default_name
184060
  47.7349802  54.1028659  65.8469123  48.2280067  54.8721800  66.2772398
  47.3560944  53.5128819  66.5738681  47.1291943  54.4681677  65.1260257
  48.7092653  53.2751273  65.1480824  48.6938287  52.2635055  65.5536465
  48.3806676  53.2085387  63.6565652  47.3774607  52.7981046  63.5415915
  48.4099392  54.2164716  63.2426636  49.3516941  52.3385798  62.8826031
  50.0619910  52.8156974  61.9982321  49.3821670  51.0518297  63.2097415
  50.0104621  50.4258201  62.7265677  48.7769075  50.7051580  63.9402075
  50.1210695  53.8150080  65.3543123  50.5829387  54.6780489  64.6090666
  50.8003830  53.2981768  66.3742102  50.3761236  52.6105273  66.9802147
  52.1558117  53.7366592  66.6709177  52.1817251  54.8200119  66.7882832
  52.6381055  53.0929614  67.9704745  51.7931334  53.2151867  68.6481045
  52.8011175  52.0319129  67.7815214  53.8907168  53.6952320  68.6051051
  54.6687254  53.7764530  67.8460223  53.5908422  55.0711021  69.1708504
  52.8131964  54.9906209  69.9303823  54.4941595  55.4850718  69.6188992
  53.2494767  55.7272449  68.3701965  54.4321164  52.7771872  69.6850140
  54.6859704  51.8114487  69.2479709  55.3242139  53.2213564  70.1265759
  53.6756555  52.6383007  70.4573976  53.0941287  53.3781908  65.5247224
  53.0470836  52.2695015  64.9865295  53.9522725  54.3245171  65.1517589
  53.9765991  55.2189737  65.6202190  54.8529948  54.1083776  64.0333327
  54.2975299  53.7092122  63.1846721  55.5096943  55.4187511  63.6129897
  56.0043561  55.2693368  62.6532583  54.7358725  56.1791722  63.5078246
  56.4601694  55.8427870  64.5723773  56.8584569  56.6677365  64.2852795
  55.9253140  53.0883327  64.4042287  56.2135574  52.8750203  65.5840281
  56.5316097  52.4383412  63.4073321  56.2740160  52.4210370  62.0030989
  56.7860500  53.2684215  61.5471812  55.1997266  52.5196604  61.8472953
  56.8072072  51.0911998  61.5187991  57.0716948  51.1410367  60.4625503
  56.0727030  50.3005418  61.6719814  58.0449526  50.8660189  62.3960510
  58.9417922  51.3846140  62.0571749  58.2624049  49.8044632  62.5140065
  57.5793646  51.4502706  63.7199852  57.1091092  50.6423287  64.2805099
  58.7321425  52.0215320  64.5273720  59.2107677  51.3752959  65.4709708
  59.1849481  53.2316014  64.1915772  58.8032055  53.7386510  63.4059102
  60.2962927  53.8260689  64.9235004  61.1344938  53.1300790  64.9569111
  60.7547178  55.1092941  64.2342220  60.9761496  54.8020990  63.2121171
  59.9293759  55.8212466  64.2283542  61.9910274  55.7677737  64.8473167
  61.7990753  55.9681560  65.9014050  63.1998060  54.8588187  64.7173626
  63.3926738  54.6583478  63.6634593  64.0696427  55.3447464  65.1593571
  63.0063164  53.9197442  65.2358230  62.2592346  57.1104157  64.1969334
  61.4005706  57.7650249  64.3462068  63.1428903  57.5627368  64.6471104
  62.4273833  56.9703482  63.1291291  59.9122859  54.1050761  66.3700939
  60.7053089  53.8612137  67.2860102  58.7045520  54.6252601  66.5974445
  58.1039519  54.9228386  65.8419143  58.2509043  54.8396274  67.9667214
  58.9657735  55.4645919  68.5019603  56.8928789  55.5398907  67.9685461
  56.2441550  54.9896960  67.2869727  56.4954743  55.4726675  68.9812902
  56.9528159  56.9955378  67.5447181  57.3212167  57.5761724  68.3904398
  57.6567765  57.0744539  66.7162793  55.6042572  57.5323470  67.1135484
  55.0277381  56.9876385  66.1488664  55.1193881  58.4987109  67.7384866
  58.1783078  53.5267207  68.7380935  58.5646198  53.4689210  69.9084914
  57.6720560  52.4647887  68.1068951  57.3003948  52.5350161  67.1703934
  57.5937709  51.1747319  68.7882364  57.0275089  51.2746480  69.7142296
  56.8916027  50.1547236  67.8944658  55.8767541  50.5006463  67.6982034
  57.4372224  50.0785864  66.9539328  56.8446080  48.8836182  68.5167500
  56.3998747  48.2601825  67.9378371  58.9781948  50.6752607  69.1764114
  59.1886012  50.1917080  70.3006720  59.9478331  50.8177910  68.2708410
  59.7681426  51.1833363  67.3466185  61.3001098  50.3787024  68.5890910
  61.2859500  49.3481291  68.9437987  62.1764885  50.4531628  67.3414941
  61.7400335  49.7210005  66.6621232  62.0689841  51.4513149  66.9169530
  63.6570712  50.1423345  67.5408163  64.1078512  50.9350385  68.1379081
  63.8316335  48.8146419  68.2501889  63.3814795  48.0213273  67.6534375
  64.8939705  48.6101708  68.3833518  63.3451870  48.8560860  69.2247414
  64.3648399  50.1275365  66.2020461  64.2632302  51.1027889  65.7259604
  65.4213787  49.9050576  66.3514790  63.9200503  49.3640972  65.5637501
  61.8875876  51.2159090  69.7157536  62.5244554  50.6782430  70.6307026
  61.6895280  52.5349081  69.6704995  61.2122454  52.9783792  68.8987262
  62.2192506  53.3798740  70.7321381  63.2934458  53.2207740  70.8264306
  61.9706441  54.8504121  70.4071593  60.8987433  55.0273078  70.3186346
  62.3764611  55.4729175  71.2045926  62.4589447  55.1026135  69.4658537
  61.5884859  53.0117080  72.0664348  62.2579389  53.0210516  73.1046060
  60.2908590  52.7085039  72.0568105  59.7521107  52.7752804  71.2051119
  59.5999237  52.3335575  73.2836478  59.7141244  53.1176767  74.0321226
  58.1105276  52.1388377  73.0038684  57.6701499  53.0525407  72.6047275
  57.9669800  51.3259011  72.2920901  57.3271314  51.7840757  74.2193671
  57.0453191  50.5325000  74.6721984  57.4285747  49.6984027  74.0844088
  56.3044365  50.6026183  75.8255255  55.9641412  49.8128931  76.3552733
  56.0969703  51.9188942  76.1389412  55.4079757  52.4891147  77.2018340
  54.9406631  51.8302728  77.9337116  55.3602949  53.8526438  77.2615003
  54.8303005  54.3355185  78.0824984  55.9772533  54.6489352  76.2911816
  55.9306932  55.7364641  76.3478600  56.6617199  54.0844090  75.2355738
  57.1241907  54.7480224  74.5049311  56.7281958  52.6918272  75.1478418
  60.2070744  51.0733161  73.8820629  60.4680215  51.0055184  75.0905222
  60.4346922  50.0562220  73.0471098  60.1539885  50.0766608  72.0771165
  61.0571259  48.8409719  73.5616547  60.4742925  48.4557848  74.3983358
  61.1234484  47.7668202  72.4773620  61.6183874  48.2130163  71.6147823
  61.7371566  46.9551751  72.8681234  59.7737351  47.2221837  72.0586724
  59.3230754  46.6966519  72.9005887  59.1358324  48.0570908  71.7686511
  59.8781783  46.2654892  70.8915750  60.9601802  45.7688604  70.5764485
  58.7516314  45.9951922  70.2458864  58.7636918  45.3626140  69.4586121
  57.8868783  46.4231786  70.5444345  62.4496236  49.1322493  74.1021625
  62.8335785  48.6159247  75.1592228  63.2166536  49.9646153  73.3951386
  62.9067185  50.3365065  72.5087208  64.5659551  50.2912520  73.8494500
  65.1595964  49.3878610  73.9893564  65.2758083  51.1919547  72.8249203
  64.6527821  52.0641486  72.6268916  66.6181527  51.6420825  73.3580643
  67.2419470  50.7703949  73.5559084  67.1075293  52.2786670  72.6209271
  66.4735036  52.2019597  74.2820318  65.4679576  50.4514072  71.5177153
  64.4966571  50.1574710  71.1198725  65.9716089  51.1012099  70.8020398
  66.0740814  49.5618468  71.6891710  64.5172276  50.9397152  75.2266313
  65.2496815  50.5513274  76.1438822  63.6418943  51.9326666  75.3941334
  63.0659292  52.2544226  74.6293872  63.5394979  52.6232445  76.6753876
  64.5120403  53.0251269  76.9595545  62.5433721  53.7792204  76.5753168
  62.9426556  54.4884619  75.8503006  61.6060889  53.3671174  76.2014569
  62.2917445  54.4943287  77.9011274  61.8291544  53.7814217  78.5836776
  63.2562303  54.8066067  78.3015667  61.3859995  55.7131203  77.7484212
  61.3203092  56.2060711  78.7183610  61.8499297  56.3880087  77.0291203
  59.9879331  55.3457445  77.2705235  59.4275783  56.2681551  77.1180052
  60.0810481  54.8167501  76.3220544  59.2695318  54.4854016  78.2495448
  59.1827641  54.9755639  79.1283577  58.3499176  54.2663525  77.8939786
  59.7883862  53.6304355  78.3906906  63.1318626  51.6606327  77.7828243
  63.7470535  51.6322765  78.8568193  62.0818998  50.8694130  77.5455220
  61.5857303  50.8923314  76.6660962  61.5871265  49.9859086  78.5961259
  61.3401043  50.5682307  79.4838084  60.3327902  49.2547054  78.1281908
  60.5158967  48.7524041  77.1783147  60.0186115  48.5219375  78.8714559
  58.9195241  50.3282351  77.8592339  58.0831252  49.3652165  77.4824974
  62.6566323  48.9911461  79.0168905  62.9099723  48.8089663  80.2127059
  63.3044460  48.3368807  78.0514739  63.0793553  48.4530945  77.0737582
  64.3300822  47.3668625  78.4138247  63.9193213  46.6398556  79.1144212
  64.8261412  46.6246717  77.1755920  64.0076383  45.9629495  76.8922620
  64.9941697  47.3538293  76.3830040  66.0973932  45.8007035  77.3878385
  66.9175581  46.4774477  77.6275209  65.9167155  44.8055300  78.5182107
  65.0969663  44.1281077  78.2790263  66.8346788  44.2324388  78.6486350
  65.6884793  45.3398884  79.4404199  66.4647773  45.0768445  76.1178929
  66.6379534  45.8020551  75.3227960  67.3710987  44.4935977  76.2806992
  65.6513447  44.4106511  75.8304686  65.4858965  48.0487261  79.1318418
  66.0074592  47.5252994  80.1232235  65.9015925  49.2210752  78.6505098
  65.4544915  49.6329920  77.8439588  67.0353148  49.9157186  79.2403449
  67.8929960  49.2474028  79.3167387  67.4159373  51.0976112  78.3558347
  66.4646309  51.4923414  77.9990386  67.9216755  51.8554351  78.9541923
  68.2915941  50.7243195  77.1619639  67.9072491  49.8128575  76.7041246
  68.2776916  51.8442797  76.1442007  68.6623604  52.7560229  76.6012053
  68.9042380  51.5719021  75.2948770  67.2564479  52.0127001  75.8024459
  69.7118219  50.4061542  77.6025338  69.6974930  49.5681075  78.2993635
  70.3127285  50.1437711  76.7318056  70.1447092  51.2781992  78.0926819
  66.7431184  50.3996460  80.6517742  67.6803775  50.6057170  81.4298757
  65.4674531  50.5830691  80.9974563  64.7155082  50.4114291  80.3453689
  65.1314698  51.0981657  82.3209300  65.5478429  52.0973049  82.4492014
  63.6142928  51.1770053  82.4829429  63.2304177  51.7948404  81.6711431
  63.2219650  50.1647648  82.3852277  63.1775062  51.7624632  83.8142271
  63.4540720  51.0637622  84.6038024  63.7033784  52.7054578  83.9636317
  61.6807110  52.0063039  83.8566399  61.4589872  52.6524662  84.7059996
  61.3848435  52.5055628  82.9339794  60.9113068  50.7051562  83.9967000
  60.9260107  50.1957094  83.0331916  61.4168097  50.0892681  84.7405063
  59.5032515  50.9316406  84.4155912  59.0345409  51.5019590  83.7262820
  59.0291003  50.0435359  84.4965276  59.4894020  51.4033138  85.3085815
  65.7330221  50.2428910  83.4295192  66.1420515  50.7674620  84.4705601
  65.7997319  48.9290841  83.2302549  65.5252490  48.5395467  82.3397387
  66.2044094  48.0136661  84.2895684  66.0138925  48.4646777  85.2634221
  65.4115475  46.7073317  84.1917864  65.5459193  46.3110654  83.1852992
  65.8417005  46.0144253  84.9149387  63.9415096  46.8765903  84.4722025
  63.4595899  46.8737616  85.7719911  64.1650627  46.7449405  86.5928521
  62.1165218  47.0298237  86.0360813  61.7494835  47.0161956  87.0623362
  61.2356814  47.1961082  84.9927963  59.8943249  47.3585458  85.2502216
  59.6872413  47.3394922  86.1874264  61.6894190  47.2084664  83.6939859
  60.9913937  47.3450640  82.8680306  63.0348760  47.0468947  83.4399424
  63.4000488  47.0519473  82.4129452  67.6934152  47.6992886  84.2785066
  68.1521200  46.9300480  85.1278339  68.4583579  48.2643012  83.3506119
  68.0504699  48.8485761  82.6348260  69.8950713  48.0309270  83.3153849
  70.1068943  46.9885056  83.5532670  70.4486224  48.3362689  81.9275699
  70.3129637  49.3980493  81.7218555  71.5119501  48.0970079  81.9138387
  69.7822313  47.5763474  80.9394919  70.1464248  47.7845534  80.0760030
  70.5689737  48.9069901  84.3636769  70.4339361  50.1347141  84.3316166
  71.2894427  48.2831937  85.2948242  71.3508164  47.2755960  85.3276796
  71.9678689  49.0505166  86.3305822  71.3052324  49.8161959  86.7340016
  72.4019051  48.1290445  87.4717639  73.1631973  48.6350121  88.0655073
  71.2149609  47.7819982  88.3587517  70.4533953  47.2755539  87.7657662
  71.5428108  47.1258323  89.1650146  70.7973359  48.6956897  88.7816674
  72.9609427  46.9244138  86.9335262  73.2321990  46.3485757  87.6521574
  73.1788152  49.8049283  85.8028247  73.7274522  50.6422104  86.5273874
  73.6101050  49.5301295  84.5713488  73.1692369  48.7868888  84.0485411
  74.7327626  50.2286657  83.9641683  75.3570788  50.6849323  84.7323800
  75.5875145  49.2454337  83.1591186  76.2667243  49.8068442  82.5175638
  76.3908675  48.3579602  84.0918820  75.7122774  47.7958495  84.7334790
  76.9933501  47.6645016  83.5051717  77.0448041  48.9751946  84.7079089
  74.7377108  48.4316263  82.3433605  75.2733723  47.8152345  81.8386544
  74.3050827  51.3767953  83.0603385  75.1642771  52.1383261  82.6041972
  73.0100492  51.5200446  82.7936759  72.3463055  50.8508067  83.1565318
  72.5119887  52.6019301  81.9581417  73.1873997  52.7667504  81.1186457
  71.1303818  52.2466030  81.4107752  71.1490805  51.2164338  81.0551054
  70.3724591  52.3485751  82.1874701  70.6789804  53.0895345  80.2584210
  69.6372426  53.9684290  80.2452782  69.0760610  54.0793808  81.1731062
  69.5206929  54.5468320  79.0056947  68.8328266  55.2371213  78.7402891
  70.4942028  54.0382416  78.1870493  70.7791609  54.3143242  76.8568074
  70.1614180  55.0436017  76.3327399  71.8255495  53.6477681  76.2847659
  72.0768563  53.8371545  75.2411770  72.5858380  52.7242171  77.0081185
  73.4194382  52.1993404  76.5415195  72.3060338  52.4490837  78.3303894
  72.9283018  51.7205418  78.8501104  71.2414497  53.1156840  78.9431117
  72.4509343  53.8807647  82.7816679  71.8767985  53.8937751  83.8751768
  73.0417290  54.9549493  82.2616034  73.4815626  54.8795331  81.3555360
  73.1238930  56.2335173  82.9683160  72.4980759  56.1984186  83.8600673
  74.5616303  56.5333126  83.3920556  75.1809254  56.4711181  82.4972346
  74.5786311  57.5537442  83.7748485  75.1038746  55.5871260  84.4494628
  74.4790005  55.6678341  85.3389117  75.0534025  54.5696783  84.0617067
  76.5418753  55.9209263  84.8091744  77.1538180  55.8279200  83.9119705
  76.5791459  56.9492241  85.1687769  77.0748338  54.9895842  85.8837982
  76.4529295  55.1024637  86.7718263  76.9997361  53.9662832  85.5159468
  78.4894286  55.2892780  86.2285795  78.5591648  56.2373073  86.5698667
  78.8042588  54.6498149  86.9441694  79.0659327  55.1843235  85.4059455
  72.5876263  57.3350602  82.0652549  73.3564078  58.0504184  81.4117951
  71.2704071  57.4994718  82.0051860  70.2073950  56.7886144  82.6393036
  70.4746525  56.6597195  83.6881410  70.1308492  55.8118099  82.1617131
  68.9567948  57.6195387  82.4564189  68.8477052  58.3396020  83.2674105
  68.0722937  56.9839518  82.4141288  69.1918175  58.3206998  81.1127715
  68.6782173  59.2792631  81.0388099  68.9300507  57.7016674  80.2546475
  70.6951030  58.5417993  81.1533852  71.0688071  58.4050972  80.1386162
  71.0670663  59.9304333  81.6467088  71.3612150  60.1470630  82.8236931
  71.0503273  60.8815700  80.7187876  70.8708843  60.6639532  79.7489718
  71.3454479  62.2612529  81.0727874  72.3030244  62.3145235  81.5907726
  71.4214488  63.1271795  79.8153051  71.9569549  64.0152887  80.1508561
  72.0268387  62.5937370  79.0824734  70.0948417  63.5432363  79.1749393
  69.3270502  62.8236983  79.4593016  69.6840044  64.9270614  79.6333767
  70.4511411  65.6472677  79.3489423  68.7385371  65.1998928  79.1645958
  69.5662452  64.9313461  80.7169886  70.1887503  63.4981273  77.6603336
  70.4297337  62.4842736  77.3407602  69.2342872  63.7977522  77.2275215
  70.9697493  64.1799230  77.3237417  70.2845464  62.7928599  82.0302419
  69.1072146  62.4337039  81.9514766  70.7137466  63.6549796  82.9432401
  71.6738307  63.9682312  82.9287026  69.8432067  64.1450014  84.0040247
  69.5220818  63.3200927  84.6400308  70.6008802  65.1555607  84.8613005
  71.4520347  64.6515887  85.3191733  70.9582583  65.9615285  84.2203661
  69.7436806  65.7538839  85.9597922  68.5640380  65.4329807  86.0919686
  70.3371447  66.6358886  86.7560517  69.8146821  67.0669233  87.5052791
  71.3081583  66.8714868  86.6086510  68.5920706  64.7857229  83.4086020
  68.7114382  65.7114043  82.5945096  67.3873947  64.3534531  83.7951104
  67.0236951  63.2738426  84.6491740  67.0192231  63.6325164  85.6784618
  67.7663930  62.4830287  84.5437598  65.6527126  62.8436664  84.1781734
  65.0993664  62.3621403  84.9844237  65.7306803  62.1599677  83.3328459
  64.9933125  64.1631796  83.7562714  64.5590347  64.7444369  84.5696850
  64.2387096  63.9939553  82.9881326  66.1785987  64.9088020  83.1637041
  66.2234148  64.6519270  82.1053540  66.0322232  66.4118938  83.3129226
  65.2257274  67.0083441  82.5894880  66.7696087  67.0455085  84.2227165
  67.3535680  66.5122252  84.8509678  66.7173831  68.4922422  84.3887141
  65.7534247  68.8702553  84.0481417  66.8955762  68.8643000  85.8631432
  67.3870240  68.0387675  86.3779970  67.5208847  69.7548746  85.9261206
  65.5782391  69.1485251  86.5523124  64.7569055  69.9131425  86.0489475
  65.3678591  68.5327372  87.7087858  64.5048250  68.6874527  88.2101191
  66.0717364  67.9121650  88.0823464  67.7540062  69.2299198  83.5529203
  67.8464813  70.4573355  83.6555111  68.5300295  68.5274184  82.7315265
  68.4658949  67.5206254  82.6830085  69.5282499  69.1949285  81.9114733
  70.1998744  69.7750473  82.5443097  70.3524354  68.1685229  81.1370950
  70.7850467  67.4609226  81.8443775  69.6942876  67.6375690  80.4493236
  71.3881423  68.7979882  80.4070048  71.8916565  68.1347358  79.9293338
  68.8493335  70.1654326  80.9517565  67.7058580  69.9641220  80.5345527
  69.5686708  71.2348002  80.6029303  70.5298212  71.3379368  80.8955940
  68.9568302  72.3197135  79.8415978  68.1340118  72.7555370  80.4082785
  69.9886911  73.4101981  79.5626222  69.5018095  74.2406095  79.0512881
  70.4324396  73.7665647  80.4922405  71.1193036  72.9741488  78.6889717
  72.1740353  72.1884475  79.0436598  72.1960926  71.8315670  80.0733440
  73.0156189  72.0122061  77.9734182  73.8653464  71.4662579  77.9752062
  72.5123429  72.6960843  76.8995565  73.0033726  72.8174561  75.6059755
  73.9337099  72.3090458  75.3528152  72.2817710  73.5735028  74.7257259
  72.6365087  73.6914388  73.7018352  71.0926567  74.2032339  75.1082594
  70.5251039  74.8045474  74.3980444  70.6022419  74.0831868  76.3933629
  69.6695766  74.5902030  76.6406899  71.3185542  73.3160854  77.3147929
  68.3435956  71.8292004  78.5373340  67.3640356  72.4122441  78.0597063
  68.9008700  70.7719711  77.9424949  69.7143628  70.3167289  78.3311893
  68.3735631  70.2810594  76.6734200  68.4996449  71.0394537  75.9007360
  69.1187250  69.0172658  76.2437158  68.9739171  68.3301368  77.0773726
  68.6192087  68.6239146  75.3583580  70.6120527  69.1666462  75.9611049
  71.0857944  69.6684534  76.8048223  71.2482667  67.8063178  75.7609663
  70.7753274  67.3040588  74.9170686  72.3126767  67.9284117  75.5604045
  71.1151750  67.2063913  76.6612302  70.8342403  70.0405819  74.7440244
  70.4064127  71.0272616  74.9215808  71.9035077  70.1372774  74.5558264
  70.3529132  69.5869847  73.8776106  66.8813304  70.0052664  76.7735736
  66.1227452  70.2869220  75.8396376  66.4419539  69.4558874  77.9050567
  67.0850164  69.2173866  78.6464657  65.0364068  69.1201150  78.0763234
  64.6654076  68.6026746  77.1916120  64.8616225  68.2048378  79.2861363
  65.6246249  68.4842696  80.0126653  63.8737416  68.3871133  79.7091811
  65.0015698  66.7392834  78.9479188  66.2498173  66.1732986  78.7381733
  67.1339958  66.8047230  78.8255294  66.3848235  64.8380659  78.4243247
  67.3721991  64.4046092  78.2652440  65.2625503  64.0513308  78.3131775
  65.3933996  62.7184489  78.0008103  66.3071967  62.4486482  77.8834129
  64.0108641  64.5898342  78.5116559  63.1216448  63.9658955  78.4217115
  63.8862624  65.9259114  78.8256834  62.8983905  66.3591183  78.9823384
  64.1611705  70.3572035  78.2205219  62.9390874  70.2551537  78.0719297
  64.7520050  71.5147284  78.5120709  65.7558074  71.5404686  78.6207792
  64.0016287  72.7460564  78.7275350  62.9621629  72.5129076  78.9582986
  64.5986562  73.5296041  79.8986444  65.6754444  73.6354831  79.7666746
  64.1421322  74.5173139  79.9627935  64.3927928  72.8761036  81.2275543
  63.1600103  72.8065243  81.8385568  63.2793682  72.1771193  82.9934650
  62.4098791  72.0201388  83.6317790  64.5443081  71.8351401  83.1535219
  64.9315895  71.3413546  83.9449060  65.2616855  72.2604716  82.0626925
  66.3335390  72.0702786  82.0073946  63.9707794  73.6372360  77.4946760
  62.9258955  74.2125668  77.1801413  65.0888025  73.7604796  76.7870071
  65.9387799  73.3231095  77.1131132  65.1474024  74.5655218  75.5712414
  64.6624243  75.5199985  75.7758621  66.6043657  74.8293629  75.1919333
  67.1009376  73.8835507  74.9752407  66.6406584  75.4686409  74.3098296
  67.1119839  75.3243170  76.0198484  64.4211398  73.9192110  74.4042975
  64.4826350  74.4491081  73.2903691  63.7450692  72.7940695  74.6241614
  63.8297866  72.3576349  75.5310501  62.9514409  72.1190667  73.6033189
  62.4805528  71.2346821  74.0325363  61.8562800  73.0423203  73.0613508
  62.3434326  73.7791591  72.4227193  61.1857632  72.4280417  72.4603773
  61.0593413  73.7551929  74.1390568  61.7265275  74.4364557  74.6671141
  60.2641154  74.3255555  73.6590523  60.4532790  72.7749158  75.1261248
  59.8743161  72.0372117  74.5705228  61.2622212  72.2749420  75.6587954
  59.5516912  73.4788318  76.1221770  59.3780680  72.8062359  76.9621594
  60.0635014  74.3744594  76.4743141  58.2482492  73.8595078  75.5145308
  57.7736399  73.0296972  75.1885551  57.6773384  74.3241708  76.2060864
  58.4088840  74.4830893  74.7364296  63.8035369  71.5941946  72.4549485
  63.3045014  71.4186201  71.3399390  65.0877574  71.3344415  72.6986123
  65.5170241  71.5982736  73.5739534  65.9227000  70.7152500  71.6794687
  65.6506787  71.0937485  70.6941553  67.3942957  71.0390532  71.9380198
  67.6125432  70.5551996  72.8900456  68.0006411  70.5862915  71.1535123
  67.7206124  72.5299690  72.0376420  67.2308860  72.9406548  72.9205949
  69.2183840  72.7431788  72.1455116  69.7087893  72.3331359  71.2626377
  69.4299154  73.8101709  72.2153901  69.5943675  72.2396717  73.0361391
  67.1572053  73.2865556  70.8477470  66.0743155  73.1655730  70.8192437
  67.4017439  74.3447169  70.9404665  67.5905469  72.8932540  69.9281668
  65.7326713  69.2063493  71.6087451  66.1074075  68.5966040  70.6022838
  65.1575317  68.5952100  72.6435843  65.0007343  69.1218986  73.4909998
  64.7727739  67.1883600  72.6225726  64.8247843  66.8154848  71.5996561
  65.6981358  66.3418490  73.4992210  65.5518959  66.7445566  74.5014883
  65.3309920  65.3161749  73.4631908  67.1865775  66.3620301  73.1547823
  67.5541536  67.3864898  73.2136971  67.9578310  65.4921014  74.1275932
  67.5911060  64.4673242  74.0689141  69.0175630  65.5133317  73.8733919
  67.8201761  65.8692427  75.1409618  67.4182982  65.8909769  71.7341361
  66.8897340  66.5469983  71.0425038  68.4852876  65.9142320  71.5125644
  67.0468772  64.8722052  71.6234580  63.3369302  67.0831405  73.1098257
  63.0513516  67.3893358  74.2710201  62.4427506  66.6521520  72.2350636
  62.7156979  66.3838642  71.3003868  61.0310342  66.5911186  72.5862341
  60.7022719  67.5568416  72.9701526  60.1948080  66.2442784  71.3591377
  60.3092553  67.0497983  70.6337835  60.5900379  65.3192244  70.9394134
  58.7264362  66.0636120  71.6851466  58.2849637  66.5559725  72.7446277
  58.0117774  65.4322758  70.8793926  60.8248516  65.5537784  73.6829242
  61.1651042  64.3814190  73.4806607  60.2802358  65.9238143  74.8455661
  60.1898398  67.2203207  75.3804874  59.5657426  67.8122544  74.7109969
  61.1955545  67.6399078  75.4046419  59.5901824  67.0807168  76.7613646
  58.5016253  67.1143066  76.7164856  59.9506017  67.8695741  77.4215944
  60.0892308  65.7075837  77.2261295  59.4519565  65.2028754  77.9522493
  61.1035565  65.7760092  77.6192720  60.0916432  64.9358393  75.9159754
  60.9753803  64.2978035  75.9201247  58.8482292  64.0764291  75.7645141
  58.7431307  63.0514572  76.4521834  57.9078116  64.4503238  74.8976223
  58.0240956  65.2733251  74.3238224  56.6544176  63.7107566  74.8000224
  56.3023107  63.4379440  75.7948557  55.5888390  64.5772601  74.1246440
  55.5466922  65.5393838  74.6351738  55.8728129  64.7310775  73.0835872
  54.3166311  63.9577592  74.1799757  53.6678896  64.5202263  73.7505981
  56.8412201  62.4029873  74.0384252  56.6131795  61.3174304  74.5825546
  57.2528482  62.4875603  72.7795751  57.4369839  63.3805870  72.3451828
  57.4114486  61.2848243  71.9773743  56.5153533  60.6685418  72.0502321
  57.6416088  61.6399355  70.5097073  58.6708752  61.9756229  70.3831170
  57.3911953  60.4306060  69.6246688  56.3619230  60.0946064  69.7503766
  57.5597296  60.7013726  68.5823729  58.0720295  59.6270259  69.9054256
  56.7523636  62.6960601  70.1261154  56.8982828  62.9180030  69.2035921
  58.5834070  60.4577779  72.5065630  59.6376355  61.0123268  72.8303449
  58.4370795  59.1321654  72.6064871  57.3509913  58.2991068  72.2808759
  56.9906366  58.5957671  71.2958695  56.5688951  58.4712484  73.0203297
  57.8663374  56.8773339  72.3068999  58.2672791  56.5924983  71.3341649
  57.0747213  56.1836901  72.5902786  58.9654215  56.9192774  73.3749597
  59.7566628  56.1798575  73.2512880  58.5419958  56.8336363  74.3756974
  59.5269282  58.3165665  73.1672502  59.7563307  58.7213428  74.1529626
  60.7898317  58.2993880  72.3207529  61.8268422  57.8329706  72.8082671
  60.7411497  58.7834996  71.0783190  59.9153905  59.2613207  70.7467950
  61.8401836  58.5730511  70.1434960  62.1110067  57.5216994  70.0464725
  61.4496917  59.1115352  68.7527664  60.5038168  58.6612523  68.4516598
  61.3021512  60.6223714  68.7878636  62.2478249  61.0734173  69.0884626
  61.0262773  60.9841208  67.7973428  60.5262884  60.8956704  69.5030183
  62.4787584  58.6953010  67.7159540  62.5324606  57.6074746  67.6729206
  62.1888237  59.0831607  66.7394283  63.4545036  59.0961504  67.9904387
  63.1408252  59.2096422  70.6120387  64.2109753  58.8608377  70.1039913
  63.0846202  60.1345421  71.5720632  62.2211448  60.3527730  72.0483875
  64.2784264  60.8995389  71.9184454  64.7034215  61.3482225  71.0205805
  63.9308716  62.0138438  72.9032089  64.7409872  62.7419712  72.9437346
  63.0104716  62.5117322  72.5981334  63.7149074  61.5361269  74.3028514
  62.4813255  61.1480165  74.7757912  62.5928645  60.7789606  76.0397005
  61.7208088  60.4388538  76.5982211  63.8559360  60.9099636  76.4011582
  64.2375154  60.6995913  77.3123336  64.5798620  61.3822607  75.3338309
  65.6508134  61.5573279  75.4363775  65.3810255  60.0326936  72.5105811
  66.5465504  60.4420102  72.4914612  65.0506957  58.8525996  73.0385350
  64.0870265  58.5623463  73.1233528  66.0868561  57.9821545  73.5876596
  66.6867864  58.5098673  74.3290785  65.4611753  56.7315561  74.2303869
  64.8060551  56.2471659  73.5063123  66.5497493  55.7612738  74.6563598
  67.2050422  56.2448321  75.3808343  66.0950361  54.8804617  75.1096882
  67.1313284  55.4613654  73.7846260  64.5879381  57.1183911  75.4264315
  63.8645150  57.8511533  75.0689130  64.0643555  56.2164932  75.7435132
  65.3553051  57.6970806  76.6013618  65.8788107  58.5993273  76.2851457
  64.6602612  57.9433771  77.4040767  66.0786532  56.9646674  76.9597446
  67.0895832  57.6085301  72.5065231  68.3016582  57.5689838  72.7484555
  66.6032525  57.3174088  71.2986507  65.6102224  57.2339501  71.1342568
  67.5124255  57.0456552  70.1916112  68.2034609  56.2477353  70.4634438
  66.7210747  56.6077540  68.9588498  65.7643520  57.1207259  69.0570370
  67.2372566  56.9697248  68.0696741  66.4815627  55.1035495  68.8315988
  67.4433615  54.6037250  68.7166238  65.7758268  54.5631864  70.0566415
  64.8136775  55.0622405  70.1720218  65.6169278  53.4909749  69.9416873
  66.3879033  54.7466384  70.9397090  65.6807325  54.8022463  67.5836335
  66.2277679  55.1502430  66.7074201  65.5180230  53.7272265  67.5064367
  64.7186953  55.3119124  67.6367727  68.3679188  58.2673046  69.8805842
  69.5872122  58.1576599  69.7038280  67.7464657  59.4482433  69.8174901
  66.7467190  59.5314229  69.9344816  68.5085516  60.6519397  69.5010109
  69.0113272  60.5313480  68.5414415  67.5788929  61.8596748  69.4162082
  66.9449590  61.8491734  70.3028404  68.2011577  62.7545473  69.4256874
  66.7094034  61.8620522  68.1734374  67.3339983  61.6040140  67.3182190
  65.9334843  61.1065694  68.2971194  66.0661618  63.2115837  67.9389381
  65.3133095  63.1203939  67.1559970  65.5921526  63.5494792  68.8604810
  67.0490255  64.2054523  67.5279525  67.9034536  63.8589844  67.1156273
  66.8973659  65.5151248  67.6621366  65.8002115  66.0343918  68.1870746
  65.0551159  65.4264003  68.4957475  65.7124597  67.0365567  68.2768788
  67.8697638  66.3243874  67.2555195  68.7096486  65.9360122  66.8507253
  67.7644935  67.3241319  67.3531297  69.6052181  60.8801161  70.5293417
  70.7248040  61.2672312  70.1789127  69.3035285  60.6438882  71.8060890
  68.3522857  60.4723630  72.0990318  70.3442257  60.6813373  72.8254481
  70.7981296  61.6718903  72.8550325  69.7527277  60.3734376  74.2019716
  69.2279714  59.4217201  74.1185222  70.5892944  60.2671476  74.8925935
  68.7991756  61.4323270  74.7224383  69.3579676  62.3617019  74.8325055
  68.0098516  61.5689362  73.9832464  68.1827498  61.0523162  76.0556885
  68.3529391  59.8900942  76.4787127  67.5278162  61.9143344  76.6781735
  71.4439221  59.6886234  72.4757315  72.6203420  60.0484970  72.3638017
  71.0642680  58.4222908  72.2939722  70.0894124  58.1688183  72.3681848
  72.0369292  57.3640503  72.0509012  72.7633174  57.3091387  72.8617304
  71.3105659  56.0147837  71.9216269  70.4578278  56.1322229  71.2529369
  72.2462034  54.9651597  71.3652127  73.0990191  54.8468208  72.0336452
  71.7179691  54.0155774  71.2794067  72.5969985  55.2754267  70.3809483
  70.7722966  55.5709651  73.2811280  71.5761569  55.0427400  73.7938537
  70.5151715  56.4707870  73.8399721  69.5601192  54.6734105  73.1867218
  69.8166132  53.7731028  72.6283701  69.2325831  54.3976932  74.1891186
  68.7556280  55.2011495  72.6744861  72.8526212  57.6759537  70.8084002
  74.0188438  57.2808087  70.7002010  72.2515650  58.3766246  69.8473217
  71.2741113  58.6225251  69.9122570  72.9934250  58.8065646  68.6747649
  73.4004721  57.9215071  68.1858016  72.3011163  59.3084389  67.9987988
  74.1307161  59.7530542  69.0086024  75.2220175  59.6509426  68.4424925
  73.8940996  60.6853911  69.9285098  72.9983899  60.6953973  70.3950968
  74.8613244  61.7186056  70.2692239  75.5293383  61.9046215  69.4282395
  74.1221867  63.0161640  70.6028414  73.3671999  62.7119066  71.3277701
  74.8275980  63.6978184  71.0780701  73.4461363  63.7205635  69.4301219
  73.0983104  62.9737351  68.7164236  72.2667633  64.5376191  69.9214288
  72.6138912  65.2850186  70.6348676  71.7919486  65.0358459  69.0761940
  71.5455779  63.8800808  70.4068516  74.4411801  64.5908800  68.7039276
  75.2574708  63.9742520  68.3277112  73.9479775  65.0887002  67.8690459
  74.8382090  65.3395385  69.3894767  75.7569186  61.3496356  71.4446941
  76.5694063  62.1783175  71.8674989  75.6364613  60.1397913  71.9809821
  74.9814063  59.4828557  71.5816853  76.3534473  59.7526647  73.1937413
  75.9916607  58.7789822  73.5241231  77.8606260  59.6616832  72.9662333
  78.1891259  60.6292801  72.5868347  78.3231138  59.4760656  73.9356410
  78.2682136  58.5783552  71.9995116  77.5627621  57.7512089  72.0786826
  78.2428004  58.9812274  70.9870146  79.6673598  58.0808163  72.3104951
  80.3800534  58.8851132  72.1280852  79.7151910  57.7843800  73.3583200
  80.0326509  56.9369775  71.4844803  79.4296021  56.7254378  70.7023790
  81.0966015  56.1714363  71.6885776  81.9257194  56.3932279  72.6952056
  81.7526603  57.1609891  73.3282090  82.7279834  55.7937823  72.8261149
  81.3298170  55.1537592  70.8662074  80.6986835  54.9740320  70.0984387
  82.1371076  54.5647846  71.0128005  76.0448780  60.6988338  74.3481619
  76.9164599  61.0325037  75.1519351  74.7941345  61.1419115  74.4279937
  74.1419525  61.0023983  73.6695123  74.3471003  61.8877119  75.5928469
  75.1708099  62.4817104  75.9887855  73.1986116  62.8307005  75.2196024
  72.4688419  62.1788873  74.7393161  72.7797218  63.2238565  76.1459175
  73.5414052  63.9929032  74.2804362  73.8747672  63.5899020  73.3241096
  72.3273071  64.8731282  74.0616622  71.9936217  65.2768945  75.0175522
  72.5882098  65.6931540  73.3926419  71.5256162  64.2833307  73.6172177
  74.6898290  64.8311029  74.8133198  75.5766694  64.2066073  74.9211100
  74.9005513  65.6435838  74.1179262  74.4178689  65.2456991  75.7840137
  73.9161111  60.9303868  76.6864401  74.0356121  61.2454575  77.8746303
  73.4230677  59.7613882  76.2898995  73.2577714  59.6380581  75.3011800
  73.0875818  58.6659959  77.1874249  73.3001592  58.9652182  78.2137659
  71.6100624  58.2848735  77.0855754  71.3310232  58.2448908  76.0326568
  71.4706828  57.3018672  77.5354330  70.7946634  59.2290528  77.7538471
  69.8739439  58.9686389  77.6760004  73.9780919  57.5018851  76.7886758
  74.0734863  57.1729223  75.6051740  74.6231002  56.8765294  77.7670697
  74.4833718  57.1232374  78.7364564  75.5958050  55.8447605  77.4524079
  75.3293540  55.3627046  76.5118096  76.9968356  56.4471450  77.3138608
  77.6803373  55.7352869  76.8510621  76.9497620  57.3516983  76.7075049
  77.6084531  56.8396898  78.6212195  78.6548407  56.1488916  79.1920783
  78.9848668  56.7216990  80.3351913  79.8034283  56.3268396  80.9369737
  78.1819349  57.7503275  80.5338090  78.1967596  58.3715345  81.3300387
  77.3114684  57.8463824  79.4758206  76.5643368  58.6397708  79.4550717
  75.6020572  54.7615138  78.5126279  75.0773399  54.9317895  79.6174261
  76.2166934  53.6365210  78.1491689  76.5344896  53.5508194  77.1943072
  76.4084243  52.5056286  79.0440029  75.7204015  52.5393687  79.8887432
  76.1789762  51.1976921  78.2770749  76.5770121  51.2936105  77.2668932
  75.1105733  50.9875253  78.2276246  76.8839033  49.6875760  78.9631508
  77.8169501  52.5876287  79.6233957  78.7957576  52.6499247  78.8762879
  77.9082148  52.5839315  80.9567232  77.0828673  52.5200419  81.5353586
  79.2044480  52.7364218  81.6134174  79.7296737  53.5985317  81.2023168
  79.0160606  52.9495370  83.1120328  79.9840234  53.1822351  83.5558782
  78.3367670  53.7885818  83.2625786  78.4809949  51.7937202  83.7276613
  78.3722912  51.9532893  84.6680448  80.1172509  51.5436286  81.3727011
  81.3419258  51.7050863  81.3249238  79.5488812  50.3505760  81.2167770
  78.5489220  50.2295621  81.2911853  80.3738178  49.1684742  80.9994321
  81.1185248  49.0775058  81.7901503  79.4924646  47.9189139  81.0121534
  79.0153908  47.8071699  81.9858130  78.7271609  47.9953213  80.2397726
  80.2372776  46.6483036  80.7522826  80.6282691  45.7929272  81.7595894
  81.2646840  44.7614063  81.2366729  81.6552741  43.9688720  81.8749735
  81.3012923  44.9151293  79.9248566  81.7250941  44.2808607  79.2628935
  80.6647076  46.0876973  79.5963063  80.5889012  46.3927662  78.5526169
  81.1500725  49.2774996  79.6934703  82.3351182  48.9319785  79.6369738
  80.4956598  49.7520526  78.6323231  79.5121887  49.9752732  78.6876155
  81.1701010  49.9103131  77.3473120  81.8457272  49.0674631  77.2015963
  80.1388198  49.9100293  76.2197860  80.6512396  49.9326911  75.2580103
  79.4996243  50.7882031  76.3111091  79.0828060  48.4393649  76.1708989
  82.0050098  51.1888487  77.2885651  83.0958543  51.1900883  76.7083730
  81.5201208  52.2767269  77.8832992  80.6252841  52.2247993  78.3487776
  82.2086095  53.5680138  77.8450598  83.2045516  53.4707779  77.4129215
  81.4183640  54.6008579  77.0289138  80.5582449  54.9328750  77.6103421
  82.2977794  55.7944643  76.6999056  83.1579310  55.4632810  76.1180483
  81.7255635  56.5194331  76.1210363  82.6419362  56.2585977  77.6241555
  80.8803241  53.9814593  75.7608067  80.2194850  53.1521030  76.0129212
  80.3237502  54.7305989  75.1976770  81.7088961  53.6140322  75.1553594
  82.4240660  54.0581423  79.2724597  81.6065679  54.8277906  79.7966462
  83.5039967  53.6404881  79.9346708  84.4460265  52.6802203  79.5628984
  84.8531190  52.9720595  78.5948045  83.9273986  51.7264417  79.4657877
  85.4948494  52.6575685  80.6504840  86.2816400  53.3833745  80.4448989
  85.9332678  51.6640590  80.7444502  84.7058197  53.0292144  81.9118385
  85.2713551  53.5032878  82.7140374  84.1956450  52.1474755  82.2995987
  83.6902552  54.0093679  81.3463158  82.7399527  53.8096226  81.8414171
  84.1048625  55.4535277  81.6072316  83.8697558  55.9326746  82.7226729
  84.6973887  56.1739553  80.6495920  84.7801542  55.8090628  79.7114541
  85.2783265  57.4896596  80.9377719  85.0047576  57.8082331  81.9436398
  86.8022902  57.4152303  80.8465367  87.0492185  57.2601750  79.7962589
  87.1863084  58.3825161  81.1705556  87.4339482  56.3128119  81.6838352
  86.9476077  55.3732962  81.4213774  88.4910471  56.2592573  81.4234972
  87.2923922  56.5558528  83.1738913  87.7521804  57.5125323  83.4217986
  86.2330037  56.5856081  83.4286659  87.9730311  55.4461755  83.9637116
  87.4568269  54.5118241  83.7432091  89.0067911  55.3782756  83.6248474
  87.9475476  55.6921406  85.4305591  86.9897257  55.7546621  85.7448329
  88.4094194  54.9310826  85.9075970  88.4261953  56.5576710  85.6351380
  84.7577113  58.5624211  79.9757899  85.5317785  59.2541176  79.3166571
  83.4377063  58.7059345  79.8857126  82.8151767  58.0584757  80.3476144
  82.8529832  59.7655084  79.0698957  83.4863190  59.9674211  78.2060577
  81.4743327  59.3344008  78.5741296  81.6350638  58.3339819  78.1723501
  80.8296210  59.2739842  79.4509401  80.8092696  60.2077916  77.5130713
  80.7247640  61.2241388  77.8977764  81.6221982  60.2181233  76.2337475
  81.7067522  59.2021127  75.8481677  81.1277231  60.8471316  75.4935153
  82.6175254  60.6125654  76.4382952  79.4126797  59.6885907  77.2411080
  78.8270348  59.7212583  78.1598312  78.9345859  60.3098851  76.4837964
  79.4699126  58.6604466  76.8836963  82.7620811  61.0708726  79.8607219
  82.2677776  61.0857205  80.9923940  83.2357803  62.1662981  79.2645885
  83.7088678  62.1006986  78.3746535  83.1193840  63.4816236  79.8924551
  83.5522938  63.4506544  80.8923197  83.8577080  64.5399066  79.0730860
  83.6401137  64.3331241  78.0252344  83.4306605  65.5040935  79.3489016
  85.3653340  64.5750719  79.2805398  85.7313033  65.5445123  78.9423792
  85.5453029  64.4724831  80.3506734  86.0940221  63.4738515  78.5385031
  85.4409629  62.7253941  77.7829694  87.3269420  63.3663170  78.7051488
  81.6542154  63.8894864  80.0434752  80.9081208  63.8605014  79.0556555
  81.2003241  64.2715405  81.2391115  81.8440560  64.3796613  82.5019991
  82.7814551  64.9146318  82.3497173  82.0556398  63.3693717  82.8522080
  80.8952712  65.1198214  83.4167752  81.0460323  66.1967612  83.3421364
  81.0309176  64.8053338  84.4515694  79.5114037  64.7106766  82.8971674
  78.7414137  65.4604103  83.0791394  79.1818505  63.7491774  83.2908850
  79.7785676  64.5960461  81.4052635  79.1917309  63.7546842  81.0367109
  79.3883134  65.8559996  80.6477202  80.2038598  66.7500659  80.4163770
  78.1202993  65.9163361  80.2630728  77.5161634  65.1166348  80.3879606
  77.5723086  67.1049985  79.6026775  78.3333140  67.5845080  78.9870149
  76.3755847  66.7352334  78.7342912  75.9544917  67.6405431  78.2970322
  76.8117434  65.7970111  77.6289403  77.2325490  64.8912081  78.0654538
  75.9516032  65.5367432  77.0120771  77.5655300  66.2866637  77.0123812
  75.2699299  66.0846940  79.5681945  74.9612359  65.1762520  79.0509499
  75.6998765  65.8233733  80.5351262  74.0690252  66.9783869  79.7761939
  73.6382312  67.2397695  78.8096560  73.3246265  66.4539662  80.3753206
  74.3768726  67.8868924  80.2938306  77.1848064  68.1310106  80.6667669
  76.5075124  67.7683645  81.6403067  77.5871797  69.3984852  80.5391745
  78.2122035  70.0875563  79.4605609  77.7736038  69.7153354  78.5347197
  79.2736907  69.8409885  79.4839741  77.9584229  71.5628490  79.6711338
  77.0185146  71.8645057  79.2088843  78.7729580  72.1586657  79.2592644
  77.8999609  71.6966893  81.1984003  77.2745685  72.5254967  81.5301558
  78.8849210  71.7787939  81.6579786  77.2552774  70.3754766  81.5859542
  77.7178017  70.0526068  82.5186517  75.7507737  70.4958894  81.7816873
  74.9752547  70.4462565  80.8250746  75.3409389  70.6575064  83.0430391
  75.9988942  70.6866988  83.8087688  73.9163835  70.7449221  83.3507699
  73.3927366  69.8859240  82.9312281  73.7007023  70.7571235  84.8641402
  74.2554588  71.6094532  85.2564137  72.6345004  70.9102869  85.0310367
  74.1473029  69.4924870  85.5752600  73.5177437  69.3650717  86.4558969
  73.9914353  68.6562050  84.8937639  75.6028217  69.5357207  85.9970051
  76.2795673  70.5480306  85.7170946  76.0722361  68.5551885  86.6115577
  73.2831020  71.9823639  82.7307363  72.1698127  71.9179856  82.1978073
  73.9746945  73.1203655  82.7939266  74.9176424  73.0967842  83.1550255
  73.4238212  74.4029448  82.3888710  72.5755311  74.2452868  81.7228026
  72.9458164  75.1970003  83.6123354  72.4173795  74.5240905  84.2876472
  73.8002295  75.6331325  84.1298940  72.0102866  76.3205628  83.3104740
  72.3254511  77.6407338  83.2156949  73.3708807  77.9083893  83.3691132
  71.2041346  78.3762048  82.9347930  71.1728595  79.3785027  82.8142927
  70.1313367  77.5302383  82.8418076  68.7967573  77.8037764  82.5719912
  68.5011673  78.8385091  82.3986320  67.9332538  76.7485257  82.5411098
  66.8777467  76.9244348  82.3335992  68.3701429  75.4404416  82.7700657
  67.6707737  74.6048594  82.7420537  69.6946500  75.1671591  83.0375400
  69.9845242  74.1303987  83.2084248  70.6024220  76.2261729  83.0752875
  74.4989791  75.1809833  81.6423915  75.6768436  75.1181981  82.0216505
  74.1415332  75.9162495  80.5870196  72.8647668  76.1704869  79.9862060
  72.1659011  76.4215107  80.7841245  72.5399433  75.2534917  79.4945673
  73.0649405  77.3084376  79.0100207  72.9335795  78.2709268  79.5044474
  72.3671551  77.2306156  78.1762697  74.5101445  77.1159187  78.5341353
  74.9773783  78.0549031  78.2373193  74.6141064  76.3885245  77.7290333
  75.1689599  76.5878773  79.7985105  75.9143110  75.8542099  79.4914567
  75.8394536  77.6791826  80.6104126  75.2121121  78.2882075  81.4930996
  77.1120041  77.9662599  80.3491087  78.1560778  77.2147842  79.6697344
  78.1073225  77.4401372  78.6043991  77.9736629  76.1513370  79.8243428
  79.4499012  77.6756668  80.3021307  80.2865623  77.5379293  79.6172033
  79.6442818  77.1315419  81.2263849  79.1962350  79.1615398  80.5846692
  79.3348610  79.7726678  79.6928147  79.7911041  79.5709790  81.4011188
  77.7261185  79.1406146  80.9736122  77.6804071  79.0363458  82.0576495
  76.9852493  80.3986091  80.5550618  76.5762305  80.5407004  79.4018495
  76.8126935  81.3193640  81.5043473  77.2346866  81.2299816  82.4176008
  75.9379353  82.4585105  81.2558054  74.9548587  82.1078423  80.9416534
  75.7755119  83.2953877  82.5259567  75.2641052  84.1880079  82.1656905
  75.1146930  82.7435584  83.1944647  77.0398936  83.7031896  83.2821619
  77.6981224  82.8369876  83.3494655  77.7652750  84.8363477  82.5770041
  77.1077927  85.7031175  82.5097298  78.6596381  85.1022379  83.1404912
  78.0496388  84.5179530  81.5740771  76.6812508  84.0977760  84.7035939
  76.2150507  83.2521928  85.2093073  77.5848927  84.3878654  85.2396729
  75.9859449  84.9369763  84.6838088  76.4437052  83.3328405  80.1176292
  75.6781909  84.1496054  79.5929608  77.7082996  83.1813802  79.7171583
  78.3467975  82.5649823  80.1993133  78.2157257  83.9619657  78.5953602
  78.0416906  85.0191766  78.7956503  79.7180560  83.7359473  78.4375840
  79.9075545  82.6832988  78.2275326  80.0928717  84.3434818  77.6138636
  80.2273709  84.0195377  79.3586019  77.4903578  83.6168069  77.3020173
  77.3446170  84.4756468  76.4252217  77.0282865  82.3742647  77.1617600
  77.1280618  81.7154991  77.9208199  76.4252018  81.9110270  75.9210023
  76.7168737  82.5634751  75.0979967  76.8962633  80.4863471  75.6072920
  77.9794418  80.5013706  75.4864698  76.6338866  79.8446532  76.4484147
  76.2960106  79.9841561  74.4248234  76.6123419  79.0930747  74.2589673
  74.9044300  81.9430359  75.9541743  74.2770361  81.7350561  74.9111372
  74.3012825  82.1801142  77.1183367  74.8497703  82.2371812  77.9645067
  72.8507693  82.3069031  77.2239067  72.4250625  82.4941500  76.2381017
  72.2357433  81.0213071  77.7866801  71.1502442  81.1082806  77.8338663
  72.5046157  80.1674601  77.1647855  72.7776706  80.6134850  79.4571163
  72.0590779  79.4998710  79.5684109  72.4007607  83.4764739  78.0818873
  71.2681428  83.9390549  77.9073355  73.2283393  83.9718493  78.9990361
  74.1111769  83.5133759  79.1736762  72.9073179  85.1572634  79.7651619
  73.8331255  85.5109075  80.2189409  72.5374796  85.9060260  79.0646811
  71.8786416  84.9478499  80.8481559  71.4324990  85.9250452  81.4558911
  71.4914611  83.7060367  81.1113237  71.8957263  82.9560853  80.5688830
  70.4894719  83.3709969  82.1128081  70.1446285  84.2609208  82.6393226
  69.2723382  82.6632307  81.4947009  69.6098149  81.7700132  80.9689907
  68.2837927  82.2700873  82.5754900  67.9454909  83.1628925  83.1013718
  67.4280907  81.7702684  82.1215566  68.7662774  81.5941299  83.2814586
  68.6110052  83.5571393  80.4608290  69.3252834  83.7903029  79.6711814
  67.7510246  83.0428081  80.0318810  68.2812669  84.4809553  80.9361579
  71.1527193  82.4800684  83.1554237  71.6925945  81.4257941  82.8095054
  71.1485129  82.8436586  84.4338764  70.9187375  84.1249949  85.0358221
  69.9404439  84.4750121  84.7063834  71.6888789  84.8050277  84.6717662
  70.9892106  83.9224702  86.5325059  70.0124569  83.6512306  86.9331059
  71.3470304  84.8246580  87.0286143  71.9958647  82.7766317  86.6878883
  71.8130830  82.1863291  87.5857929  73.0369584  83.0990443  86.6713428
  71.6905302  81.9453464  85.4517995  72.6363199  81.5364268  85.0963212
  70.7224460  80.8104384  85.7304655  69.5456247  80.8842963  85.3500634
  71.1758152  79.7414500  86.3877153  72.4634890  79.4757055  86.9395124
  72.5306858  79.9598768  87.9137624  73.2195171  79.8927096  86.2742095
  72.5458585  77.9684885  87.0330762  73.2453867  77.6661817  87.8124157
  72.8553296  77.5378071  86.0807935  71.1105910  77.5569107  87.3789603
  70.8510376  77.6348051  88.4347365  70.8967618  76.5479632  87.0262541
  70.3100662  78.5683915  86.5739474  70.1409170  78.1341205  85.5886071
  68.9721359  78.8809614  87.2258274  68.9088879  79.2424708  88.4040068
  67.8950769  78.7357133  86.4544022  68.0239894  78.6087106  85.4607467
  66.5293122  78.8291406  86.9702279  65.8236191  78.8510486  86.1397964
  66.2032888  77.6278349  87.8564911  66.9180288  77.5683534  88.6772882
  65.1944913  77.7169452  88.2595879  66.2638493  76.3125503  87.1387058
  65.2998099  75.9713525  86.2082640  64.4905484  76.6707235  85.9983214
  65.3540421  74.7629969  85.5494288  64.5897077  74.5058420  84.8161042
  66.3764605  73.8784672  85.8183860  66.4207102  72.9214671  85.2984893
  67.3417489  74.2041368  86.7438970  68.1517780  73.5070680  86.9584853
  67.2825068  75.4144603  87.3997273  68.0445255  75.6739875  88.1346239
  66.2974528  80.1320612  87.7312200  65.6108989  80.1632445  88.7538281
  66.8721692  81.2214777  87.2302991  67.4676458  81.1572506  86.4170452
  66.6921815  82.5245834  87.8523513  65.7360007  82.5433645  88.3752898
  67.8059350  82.8300796  88.8579070  68.7526597  82.6303349  88.3559970
  67.7384718  83.8915865  89.0961336  67.7318016  82.0210837  90.1349187
  66.8723833  82.3566820  90.7153280  67.6094439  80.9681014  89.8812284
  68.9757174  82.1728216  90.9815085  69.8578984  82.9723378  90.6693315
  69.0561057  81.4037652  92.0603388  69.8657554  81.4647552  92.6610459
  68.3072554  80.7611182  92.2755818  66.6663399  83.5937693  86.7736503
  67.4254901  83.5247295  85.8048906  65.7956136  84.5787455  86.9512107
  65.1488559  84.5791012  87.7269708  65.7264175  85.6715606  85.9962071
  65.5911565  85.2736753  84.9904780  64.5514871  86.5940259  86.3185197
  64.6275221  86.8648545  87.3715960  64.6599920  87.4884865  85.7051137
  63.1963179  85.9616621  86.0554712  63.1247847  85.7334226  84.9920378
  63.1315059  85.0376539  86.6300236  62.0589354  86.8841882  86.4520007
  62.1396886  87.0996410  87.5174386  62.1486062  87.8116757  85.8864694
  60.7122307  86.2459478  86.1659997  60.6405447  86.0687323  85.0928937
  60.6676082  85.2938250  86.6947436  59.5813128  87.1087737  86.6025053
  59.6222294  87.9909197  86.1123584  58.7067865  86.6482898  86.3945192
  59.6473125  87.2727555  87.5969162  67.0367984  86.4531239  86.0189817
  67.6417126  86.6194892  87.0845554  67.5061126  86.9425933  84.8768885
  66.9809568  86.9055847  83.5537367  65.9291505  87.1866186  83.6068764
  67.0648325  85.8806287  83.1924487  67.8005883  87.8755866  82.7320156
  67.3788457  88.8794233  82.7824563  67.8513187  87.5552309  81.6913908
  69.1834185  87.8156022  83.3910462  69.7536491  88.7378945  83.2800821
  69.7819646  86.9746202  83.0409156  68.8075430  87.6128533  84.8500093
  69.5477726  86.9401391  85.2831537  68.7900065  88.9152270  85.6307092
  67.7756415  89.6123151  85.7054477  69.9412629  89.2358928  86.2225978
  70.7196028  88.5924828  86.2402060  70.0873879  90.5167309  86.9046969
  69.2034730  90.7207358  87.5089945  71.3091926  90.4854577  87.8217069
  72.0410524  89.9141179  87.2506980  71.6554682  91.5133425  87.9296238
  71.1399869  89.8582881  89.2029226  70.5040150  90.5077298  89.8044758
  70.5103351  88.4826273  89.1074450  71.1460102  87.8324428  88.5063825
  70.4027123  88.0615606  90.1070553  69.5288972  88.5633241  88.6401464
  72.4927661  89.7807144  89.8872228  72.9064553  90.7838810  89.9902633
  72.3761017  89.3332192  90.8742581  73.1684923  89.1692620  89.2892101
  70.2144236  91.6573122  85.9047437  69.5981910  92.7150676  86.0747432
  71.0078038  91.4580857  84.8565502  71.4731030  90.5706948  84.7295328
  71.2617618  92.5138750  83.8903021  71.5677150  93.4262023  84.4023088
  72.3734868  92.0965285  82.9312674  72.0092793  91.2905837  82.2941599
  72.7950930  93.2667404  82.0716149  73.1598785  94.0729624  82.7080402
  73.5884215  92.9527328  81.3932874  71.9413450  93.6193315  81.4929142
  73.5026601  91.6307014  83.6791730  74.2008450  91.3686548  83.0746321
  69.9931601  92.8395047  83.1093151  69.1721181  91.9668523  82.8213970
  69.8382065  94.1155829  82.7664073  70.5307246  94.8083747  83.0124917
  68.6479010  94.5529848  82.0635335  67.7598056  94.1472046  82.5480210
  68.5577341  96.0755901  82.0769108  68.8737290  96.4340180  83.0565924
  69.2274308  96.4702847  81.3128280  67.2362225  96.5138398  81.8179719
  67.2087042  97.4733376  81.8323440  68.6650031  94.0384174  80.6247667
  69.7279910  93.7571666  80.0690727  67.4905521  93.9019445  79.9981648
  66.1529913  94.0797073  80.4599713  65.8950518  95.1354039  80.3758752
  66.1044836  93.7765659  81.5058448  65.3069058  93.2023617  79.5657845
  64.2828387  93.5724547  79.5166250  65.3038714  92.1730213  79.9243241
  66.0055560  93.3057968  78.2048384  65.7504311  94.1928338  77.6250318
  65.8293619  92.4150915  77.6017635  67.4653443  93.3662567  78.6267538
  67.8296021  92.3399994  78.6737715  68.3082732  94.1573103  77.6413386
  68.9394494  93.5598557  76.7605017  68.3257873  95.4876555  77.7496204
  67.8162188  95.9638684  78.4801411  69.0389256  96.2945644  76.7643454
  68.6811494  96.0622391  75.7612899  68.8018684  97.7795094  77.0355579
  69.1415963  98.0086912  78.0455876  69.3790893  98.3621979  76.3176510
  67.4296347  98.1066603  76.9138827  67.3071269  99.0426567  77.0885322
  70.5302280  95.9851425  76.7640152  71.1479546  95.8622344  75.6999059
  71.1298278  95.8662160  77.9481189  70.6356495  96.0479315  78.8100160
  72.5492590  95.5399278  78.0206244  73.1255332  96.2307200  77.4051464
  73.0317023  95.6538509  79.4636962  72.4970695  94.9084564  80.0524695
  74.0982298  95.4292040  79.4760647  72.7982406  97.0295800  80.0580648
  73.1146713  97.7728699  79.3262912  71.7306624  97.1395514  80.2485513
  73.5643323  97.2337167  81.3478977  73.3101558  96.4408162  82.0513194
  74.6346366  97.2078279  81.1432573  73.2355136  98.5184349  81.9534499
  73.7906303  99.3132249  81.6701590  72.2724411  98.7050009  82.8466298
  71.5138055  97.7064766  83.2684347  71.6636085  96.7751258  82.9075403
  70.7883792  97.8801869  83.9493760  72.0591164  99.9275423  83.3227401
  72.6285803 100.6975624  83.0019910  71.3285402 100.0808503  84.0030738
  72.8281518  94.1529058  77.4589281  73.8395161  93.9434545  76.7774134
  71.9458383  93.1900259  77.7282297  71.1946893  93.3270325  78.3893679
  72.0863587  91.8789746  77.1025450  73.0426818  91.4355639  77.3799116
  70.9647524  90.9495226  77.5647261  70.0672453  91.5566376  77.4464398
  70.9274533  90.1081730  76.8727437  71.0401308  90.4262479  78.9989087
  71.1002145  91.2706958  79.6854934  69.8061413  89.6006495  79.3191199
  69.7456238  88.7556965  78.6331965  69.8701502  89.2327893  80.3431719
  68.9158138  90.2201273  79.2111176  72.3027045  89.6062326  79.2109075
  73.1770105  90.2280528  79.0184804  72.3335819  89.2449249  80.2388202
  72.3039995  88.7569820  78.5276281  72.0829875  92.0026614  75.5857885
  72.9503363  91.4458391  74.9028947  71.1128251  92.7353879  75.0401038
  70.3927602  93.1643645  75.6036506  71.0364844  92.8825722  73.5925017
  70.9467340  91.9032621  73.1223998  69.8163624  93.7193134  73.2138563
  68.9298258  93.2638899  73.6551516  69.9447862  94.7251478  73.6137368
  69.6616831  93.7868815  71.8071115  68.8898720  94.3169609  71.5951606
  72.3101013  93.5107651  73.0453219  72.8166351  93.0968601  71.9959773
  72.8454117  94.5131706  73.7431700  72.3958427  94.8925083  74.5641999
  74.0900048  95.1246233  73.2916531  74.0011505  95.4028593  72.2415156
  74.4055740  96.3780321  74.1032562  73.4911998  96.9668020  74.1765297
  74.7139457  96.0612619  75.0995813  75.5043635  97.2241356  73.4777673
  76.3921606  96.6005295  73.3727311  75.1656100  97.5421096  72.4917446
  75.8394710  98.4425100  74.3133880  76.6641267  98.9812863  73.8467381
  74.9656808  99.0919462  74.3665162  76.2298030  98.0736476  75.6673830
  76.0700389  97.1164675  75.9473490  76.7723552  98.9073885  76.5445348
  76.9998375 100.1756900  76.2434879  76.7579515 100.5252971  75.3273187
  77.4143064 100.7882902  76.9312641  77.0975245  98.4569089  77.7527099
  76.9293005  97.4896521  77.9898069  77.5112233  99.0840892  78.4276891
  75.2578759  94.1539504  73.3838284  76.2151845  94.2665386  72.6099905
  75.2109744  93.2060268  74.3197852  74.4504109  93.1516082  74.9821152
  76.3024278  92.2482603  74.4409908  77.2586586  92.7595235  74.3299427
  76.2658078  91.5728253  75.8124866  76.3368552  92.3501338  76.5733039
  75.3087482  91.0596707  75.9063440  77.3939219  90.5765706  76.0011136
  78.3607698  90.6100711  75.2134870  77.3143490  89.7590725  76.9415141
  76.2498408  91.1948256  73.3438782  77.3000423  90.7216831  72.8948147
  75.0491917  90.8194823  72.9033557  74.2113201  91.2334832  73.2863358
  74.9060658  89.7702224  71.9040146  75.5908820  88.9501643  72.1199557
  73.4767723  89.2302585  71.9215705  72.7630468  90.0540623  71.9150510
  73.3048911  88.5944205  71.0530851  73.1634920  88.4024742  73.1263969
  71.8744959  88.0958691  73.5028320  71.9024866  87.3588417  74.5991445
  70.9767603  87.0135913  75.0595052  73.1628072  87.1741878  74.9448176
  73.4894124  86.6475568  75.7423693  73.9721339  87.8173666  74.0403773
  75.0553232  87.7819385  74.1567692  75.2572255  90.2499176  70.5025742
  75.4792374  89.4181616  69.6163148  75.3125253  91.5644509  70.2822540
  75.0945719  92.2148080  71.0236253  75.6312833  92.0997537  68.9655952
  74.9941224  91.6007952  68.2354133  75.3373664  93.5977917  68.9268536
  75.9743267  94.1122789  69.6463566  75.5363989  93.9818740  67.9263701
  74.2912852  93.7700066  69.1801426  77.0783727  91.8561547  68.5652630
  77.4240733  92.0781581  67.4008398  77.9285127  91.4142980  69.4918971
  77.6238396  91.2807675  70.4455444  79.3262809  91.1587409  69.1712858
  79.6795328  91.8610856  68.4162864  80.1910716  91.3107576  70.4225052
  81.2341063  91.1436730  70.1536900  80.0372833  92.7025881  71.0137270
  78.9945189  92.8702427  71.2832338  80.6606909  92.7908749  71.9034840
  80.3461989  93.4461592  70.2790340  79.8040951  90.3360955  71.3970886
  80.3488531  90.4341092  72.1814561  79.5501624  89.7760043  68.5746554
  80.5479155  89.5732891  67.8759837  78.6573404  88.8271285  68.8300481
  77.8767669  89.0032869  69.4463051  78.8051855  87.4949865  68.2691903
  79.8352535  87.1574613  68.3838021  77.8853012  86.5089339  68.9882968
  76.8828151  86.8137742  68.6879745  78.0878310  85.5064047  68.6114455
  77.9819780  86.5085873  70.5164664  78.0563168  87.5379914  70.8670401
  76.7566109  85.8539357  71.1269462  76.6818527  84.8242896  70.7771764
  76.8426817  85.8626662  72.2135079  75.8638753  86.4039519  70.8292792
  79.2433200  85.8086806  70.9765749  80.1139556  86.3235314  70.5703460
  79.2897933  85.8211627  72.0655128  79.2355321  84.7767746  70.6255645
  78.4980945  87.5158680  66.7741447  77.9004895  88.4581458  66.2494184
  78.9150755  86.4576897  66.0814545  79.4425433  85.7192771  66.5248772
  78.6855468  86.3758571  64.6464082  78.9934644  87.3063063  64.1693859
  79.4893915  85.2289319  64.0419925  79.3388434  85.2225737  62.9624583
  80.5440380  85.3968032  64.2602582  79.0907932  83.8784274  64.5934549
  77.9494200  83.6658227  64.9959938  80.0376850  82.9507055  64.6069514
  79.8318093  82.0285001  64.9636756  80.9606016  83.1703864  64.2604461
  77.1929821  86.2199868  64.3507646  76.3485842  86.1763027  65.2477177
  76.8711136  86.1336205  63.0587106  77.5830820  86.0754715  62.3446945
  75.4771693  86.1210812  62.6449305  75.0091373  87.0235892  63.0380267
  75.4571193  86.1470418  61.5554244  74.6973494  84.9119281  63.1241786
  73.5048452  85.0194588  63.4186202  75.3446748  83.7506991  63.2049688
  76.3301520  83.6968331  62.9904168  74.6426627  82.5184191  63.5443416
  73.6156893  82.5925642  63.1866724  75.3171370  81.3321546  62.8519674
  76.3436199  81.2394001  63.2066918  74.7699607  80.4177927  63.0814028
  75.3189589  81.4930646  61.7739118  74.5883002  82.2875835  65.0509024
  73.5104595  82.0408016  65.6090065  75.7443706  82.3350881  65.7131105
  76.6272956  82.4243586  65.2308516  75.7604948  82.1941659  67.1620414
  75.3382299  81.2306464  67.4473864  77.1949272  82.2716133  67.6816169
  77.6885459  81.4171439  67.2186678  77.6401688  83.1938674  67.3083780
  77.3689977  82.1997067  69.1996188  76.9040939  83.0780268  69.6474124
  76.7267758  80.9476318  69.7604669  77.1915074  80.0688233  69.3134558
  76.8647776  80.9208132  70.8413633  75.6612696  80.9510394  69.5307161
  78.8399263  82.2480085  69.5620524  79.2740611  83.1790539  69.1976614
  78.9496534  82.1960325  70.6452697  79.3553777  81.4037249  69.1042381
  74.8949792  83.2542342  67.8223731  74.3353508  83.0161612  68.8939809
  74.7664787  84.4254300  67.1962835  75.2993874  84.6310350  66.3633164
  73.8936001  85.4649123  67.7336070  74.1775413  85.7020990  68.7588967
  74.0193123  86.7315607  66.8863147  75.0622046  87.0435970  66.9420662
  73.7797265  86.4480406  65.8614659  73.1255642  87.8782981  67.3150251
  72.0844408  87.5601301  67.2608779  73.3702334  88.1456845  68.3430054
  73.3038930  89.1041426  66.4398125  73.9998053  89.0599261  65.4263452
  72.6695466  90.2033911  66.8245961  72.7536455  91.0487248  66.2782998
  72.1052659  90.1901537  67.6621600  72.4477641  84.9897019  67.7815494
  71.7726169  85.1183734  68.8097191  71.9553180  84.4262885  66.6774298
  72.4962890  84.3714355  65.8262888  70.5872351  83.9221712  66.6606739
  69.8988111  84.7049831  66.9790719  70.2048487  83.4802694  65.2506412
  70.3112691  84.3141859  64.5568421  70.8403589  82.6558705  64.9272322
  68.7891996  83.0022364  65.1325933  67.7441101  83.7692782  65.6075424
  67.9580106  84.7315785  66.0726496  66.4421608  83.3307177  65.4988374
  65.6260875  83.9468405  65.8763527  66.1727705  82.1162713  64.9143080
  65.1437663  81.7673686  64.8276059  67.2034085  81.3414973  64.4387538
  66.9927423  80.3782793  63.9740701  68.5038189  81.7831453  64.5497170
  69.3220949  81.1681576  64.1751314  70.4144938  82.7691618  67.6385015
  69.3988486  82.6848661  68.3401011  71.3947136  81.8667637  67.6958836
  72.1965253  81.9129867  67.0834616  71.2927125  80.7394244  68.6195091
  70.3718614  80.1931126  68.4153626  72.4748837  79.7932449  68.4240082
  73.4038541  80.3234760  68.6336963  72.3792509  78.9462702  69.1034112
  72.4867335  79.4335235  67.3951451  71.2230371  81.2217318  70.0652283
  70.3930436  80.7500368  70.8535299  72.0904978  82.1657102  70.4302950
  72.7908835  82.5031447  69.7855492  72.0904204  82.6927755  71.7869645
  72.1505568  81.8822673  72.5132972  73.2892988  83.6149495  71.9852264
  73.2718626  84.3869410  71.2159245  73.2439279  84.2643594  73.3527725
  73.2618026  83.4929571  74.1226548  74.1077149  84.9180230  73.4739959
  72.3295658  84.8501213  73.4472468  74.4993006  82.8583916  71.8585301
  75.2539517  83.4385159  71.9832613  70.7949804  83.4292731  72.0918850
  70.2651952  83.3269256  73.2019637  70.2706670  84.1839532  71.1247591
  70.7426514  84.3335038  70.2444383  69.0075834  84.8733791  71.3575526
  69.0799066  85.4928146  72.2515147  68.6734264  85.7705155  70.1680290
  69.5832352  86.3114090  69.9076804  68.3906503  85.1175776  69.3423113
  67.5531556  86.7629892  70.4354131  66.6379815  86.2033943  70.6288315
  67.8151004  87.3463913  71.3180960  67.3351253  87.6993471  69.2550154
  67.2117175  87.0957042  68.3558576  66.4257053  88.2727241  69.4347192
  68.5065052  88.6521633  69.0689261  68.7105848  89.1315811  70.0263239
  69.3747173  88.0683944  68.7631142  68.2229312  89.6929198  68.0438794
  67.4187195  90.2342442  68.3272715  69.0233918  90.3019693  67.9521104
  68.0342200  89.2489070  67.1565577  67.8951280  83.8676448  71.6140805
  67.0801975  84.0472531  72.5269458  67.8505758  82.7965026  70.8207719
  68.4837616  82.7055190  70.0391729  66.8537360  81.7513881  71.0288103
  65.8494768  82.1655875  70.9393591  67.0268239  80.6590620  69.9752557
  66.9733619  81.1475705  69.0023217  68.0228766  80.2394363  70.1162992
  65.9976515  79.5488995  70.0398496  66.1603101  78.9176274  70.9134276
  65.0208250  80.0267703  70.1143579  66.0164449  78.6770516  68.8028867
  66.3403187  79.1397322  67.7103459  65.7191328  77.3972432  68.9768691
  65.7167196  76.7703415  68.1849790  65.4963492  77.0547555  69.9005417
  66.9728549  81.1683564  72.4314674  65.9830880  81.0677668  73.1694376
  68.1892596  80.7658906  72.8098719  68.9889657  80.8644157  72.2008872
  68.3808794  80.1214400  74.1036788  67.7375053  79.2449397  74.1805958
  69.8329457  79.6764814  74.2636961  70.3997967  80.5518871  73.9467672
  69.9990099  79.5020638  75.3267583  70.2949886  78.4563901  73.4697065
  70.3158674  78.7002661  72.4075439  71.6838045  78.0548635  73.9226932
  71.6636270  77.8103771  74.9847281  72.0137542  77.1840906  73.3561347
  72.3746670  78.8808260  73.7535919  69.3344389  77.2935925  73.6207034
  68.3491489  77.5860748  73.2577195  69.6971427  76.4444585  73.0414637
  69.2653037  77.0128792  74.6716646  67.9902895  81.0553788  75.2397403
  67.3562501  80.6302457  76.2117263  68.3728077  82.3299045  75.1492027
  68.9192964  82.6633310  74.3680009  68.0555935  83.2654665  76.2192387
  68.3270301  82.8348197  77.1830669  68.8335097  84.5647089  76.0291294
  69.8338265  84.3239023  75.6692993  68.3184344  85.1753858  75.2875965
  68.9299837  85.2818107  77.2457920  69.4223384  86.0930963  77.1008698
  66.5612501  83.5485097  76.2805764  66.0151592  83.7485587  77.3699566
  65.8867080  83.5746210  75.1306777  66.3593546  83.4949880  74.2416540
  64.4441275  83.7741586  75.1302303  64.1847780  84.6169881  75.7709138
  63.9535472  84.0687574  73.7133607  64.5331350  84.9128462  73.3396076
  64.1649779  83.1871361  73.1082649  62.4727209  84.3957327  73.6308469
  61.9080909  83.4700186  73.7419650  62.2228181  85.0733546  74.4472287
  62.1192599  85.0477429  72.3063104  61.0411770  85.2022592  72.2620271
  62.6268443  86.0098086  72.2364019  62.5199080  84.2250697  71.1724392
  63.3572603  84.4986003  70.6783526  61.8607019  83.1526671  70.7551107
  60.7568633  82.7395347  71.3577640  60.4005044  83.2466474  72.1552257
  60.2761121  81.9191168  71.0173342  62.3195158  82.4764117  69.7060190
  63.1608575  82.7839480  69.2394725  61.8245347  81.6583684  69.3805997
  63.7092359  82.5660641  75.6913462  62.5963814  82.7081811  76.2097693
  64.3038727  81.3768923  75.5977428  65.2084771  81.2785875  75.1594207
  63.6259080  80.1688866  76.0673365  62.5445260  80.2999038  76.0280091
  64.0068051  78.9787918  75.1836778  65.0767542  78.7938428  75.2790881
  63.2405070  77.7397548  75.6045040  62.1704175  77.9237956  75.5089154
  63.5231613  76.9027799  74.9660068  63.4763426  77.5008038  76.6415115
  63.7048124  79.2802532  73.8173021  63.9442303  78.5329546  73.2642884
  63.9290438  79.8490428  77.5322504  63.0115906  79.7623932  78.3531386
  65.2061082  79.6676655  77.8724545  65.9526401  79.8375325  77.2137173
  65.5540387  79.1639962  79.1985354  65.1088119  78.1807951  79.3508112
  67.0690516  79.0400037  79.3363600  67.4373986  80.0177045  79.0256820
  67.2974115  78.8845356  80.3907705  67.7451617  77.9543285  78.5044684
  67.4960686  78.0989687  77.4532155  69.2496960  78.0291583  78.6821537
  69.4996100  77.8841374  79.7331583  69.7257024  77.2511327  78.0853332
  69.6064728  79.0060553  78.3558365  67.2262363  76.5827841  78.8866744
  66.1509414  76.5393734  78.7135968  67.7221358  75.8243364  78.2809171
  67.4318515  76.3967257  79.9408108  65.0143887  80.0472907  80.3159891
  64.6561027  79.5401501  81.3838700  64.9440943  81.3611828  80.0973106
  65.1483581  81.7541792  79.1896050  64.6278554  82.2738038  81.1909636
  65.3427353  82.1445289  82.0035729  64.6993000  83.7208465  80.7030456
  64.3929753  84.3798087  81.5154699  65.7283221  83.9452609  80.4222400
  63.8514609  83.9221601  79.5874150  63.9130592  84.8358812  79.2994579
  63.2606616  82.0066512  81.8038108  63.0018036  82.4587760  82.9245131
  62.3802191  81.2883192  81.1063224  62.5992672  81.0205824  80.1574102
  61.0713638  80.9325450  81.6400757  60.8774599  81.4944073  82.5537558
  59.9781126  81.2615159  80.6228452  59.0353829  81.2940767  81.1690134
  60.2015251  82.2515675  80.2253724  59.8653288  80.2696908  79.4770848
  60.8629565  80.0838633  79.0792055  59.4495254  79.3390015  79.8631251
  58.9707427  80.8033431  78.3711826  58.7225671  79.9891096  77.6903510
  58.0559799  81.1983507  78.8130846  59.6197173  81.8662874  77.6116462
  60.5979755  81.7353931  77.3972237  59.0219658  82.9752147  77.1919815
  57.7389573  83.2038067  77.4217462  57.1908254  82.5235770  77.9286376
  57.3137762  84.0574489  77.0891568  59.7312634  83.8787044  76.5219626
  60.7109495  83.7135603  76.3401860  59.2870465  84.7259174  76.1979255
  60.9920460  79.4650516  82.0451941  59.8954022  78.9021479  82.1091287
  62.1288015  78.8355347  82.3254875  63.0154059  79.3146684  82.2586831
  62.1313715  77.4301878  82.6943539  61.3933447  76.8998455  82.0925627
  63.5048581  76.8107872  82.4401681  64.2532445  77.3254079  83.0428150
  63.4838288  75.7552806  82.7113948  63.7586838  76.9091904  81.3847115
  61.7500865  77.2522151  84.1609245  61.8139319  78.1834139  84.9678568
  61.3464668  76.0283956  84.4958975  61.2548460  75.3302830  83.7717816
  60.9943354  75.6583788  85.8609689  61.4417697  76.3589705  86.5660029
  59.4769432  75.6714719  86.0551589  59.2428840  75.2758478  87.0434898
  58.9361083  77.0873123  85.9352939  59.1693943  77.4834634  84.9469915
  57.8553068  77.0770989  86.0762304  59.3953286  77.7178901  86.6966012
  58.8559225  74.8420419  85.0650553  57.9041423  74.8526761  85.1899625
  61.5547177  74.2731521  86.1639751  61.2295557  73.3129372  85.4542265
  62.3877792  74.1161307  87.1921481  62.7995111  75.0037030  88.2351349
  61.9205231  75.5591874  88.5621170  63.5287628  75.6946700  87.8122217
  63.3868409  74.1469424  89.3338492  62.6119083  73.8226561  90.0284115
  64.1578401  74.6915010  89.8789341  63.9895468  72.9594638  88.5729707
  64.0126323  72.0483730  89.1708667  64.9846013  73.1571607  88.1743705
  62.9955434  72.8044707  87.4330583  63.5619393  72.5124847  86.5487291
  61.9319197  71.7576453  87.7210341  60.9871756  71.9989819  88.4747643
  62.0913639  70.5878020  87.1113544  62.8507454  70.4546554  86.4588891
  61.1449378  69.4930689  87.3046805  60.1678087  69.8850291  87.5869662
  61.0062871  68.6379952  86.0340283  60.8779949  69.3008488  85.1783026
  62.2366674  67.7724318  85.8235973  62.3653606  67.1089373  86.6787661
  62.1127834  67.1778545  84.9184833  63.1160169  68.4085042  85.7223270
  59.7572225  67.7591957  86.1182323  59.8537257  66.9851486  85.3568921
  59.7515169  67.2980000  87.1058382  58.4626057  68.5155075  85.9072850
  58.4673790  68.9766256  84.9196377  57.6219560  67.8256591  85.9815588
  58.3651715  69.2894789  86.6685830  61.6065799  68.6603413  88.4952317
  62.7441831  68.1934455  88.5232007  60.7612191  68.4427503  89.5088531
  59.4326980  68.8960964  89.7483758  58.8559994  68.7223104  88.8399060
  59.4802572  69.9664662  89.9487396  58.9066321  68.1111864  90.9293673
  58.4413971  67.1818716  90.6006888  58.1829868  68.6994400  91.4936336
  60.1650366  67.8427491  91.7651452  60.0984027  66.9319334  92.3601860
  60.4329128  68.6791267  92.4107569  61.2115509  67.6727391  90.6754726
  62.1358644  68.1170660  91.0446830  61.4556030  66.2152173  90.3263625
  60.5164142  65.4802717  90.0047968  62.7126383  65.7914156  90.3821141
  63.4447394  66.4384505  90.6379913  63.0884795  64.4276845  90.0251336
  62.8721047  64.2437223  88.9727843  64.5869627  64.2191120  90.2602515
  64.8217623  63.2028552  89.9437226  65.1125772  64.9287134  89.6212716
  65.0268938  64.4148456  91.7046472  64.2053697  64.1051111  92.3506065
  65.8899832  63.7733262  91.8824918  65.3949545  65.8522190  92.0104334
  64.5824854  66.7494269  91.7015940  66.4928857  66.0861703  92.5578920
  62.2868685  63.3836472  90.8022674  61.8687429  63.6712357  91.8897185
  62.0529266  62.2593429  90.3577801  62.0407249  62.1262251  89.3566657
  61.7107778  61.1168122  91.2169052  60.8630151  61.3859211  91.8469671
  61.3385362  59.8784972  90.3991851  62.1340709  59.7346135  89.6680755
  61.2972496  59.0163541  91.0648461  60.0145853  60.0248409  89.6812452
  58.8025081  59.9405929  90.3702549  58.8319142  59.7798047  91.4479292
  57.5882410  60.0553472  89.7219828  56.6486856  59.9970323  90.2714706
  57.5777240  60.2568279  88.3486245  56.3758775  60.3636542  87.6917575
  55.6197179  60.2843159  88.2778698  58.7563816  60.3425258  87.6344151
  58.7410641  60.5039887  86.5565489  59.9725962  60.2206982  88.3034278
  60.9084929  60.2784051  87.7476695  62.8666217  60.8057579  92.1761258
  64.0431672  61.1562090  91.9336847  62.5385848  60.1362405  93.2908977
  61.5923527  59.8198371  93.4478469  63.5262712  59.8936783  94.3270657
  63.8936489  60.8431056  94.7165791  62.9064214  59.0944497  95.4849798
  62.4718411  58.2543245  94.9432891  63.7383183  58.7417690  96.0946221
  61.8382397  59.7263454  96.3924624  61.0248733  60.1100919  95.7766097
  61.2947856  58.6850805  97.3576743  62.1075471  58.3011802  97.9742278
  60.5386711  59.1409757  97.9968543  60.8479392  57.8654564  96.7949621
  62.3640950  60.9509226  97.1560703  62.6915727  61.7097899  96.4454522
  61.5698333  61.3583027  97.7816030  63.2045824  60.6549304  97.7838191
  64.7526988  59.1487984  93.7992550  65.8580395  59.3181625  94.2877340
  64.5622191  58.3030140  92.7768415  63.6093354  58.1008111  92.5099596
  65.6619306  57.5597973  92.0926490  65.2567922  57.0550729  91.2155998
  66.8072012  58.5004352  91.6379429  67.0823514  59.1452390  92.4725803
  67.6653788  57.8929680  91.3505147  66.3735816  59.3580068  90.4555475
  66.1246313  58.7498476  89.5859113  65.5253444  59.9942141  90.7082053
  67.5852039  60.2291919  90.1365902  67.5159467  61.1670655  90.6876758
  68.4971478  59.7059346  90.4240960  67.6159616  60.5108584  88.6896952
  67.5908951  59.5929919  88.1023338  66.7904257  61.1562706  88.3896407
  68.9257073  61.2253253  88.4512751  69.6908157  60.6272758  88.7288462
  69.0128452  61.4501985  87.4704902  68.9489600  62.0760859  88.9951176
  66.2312191  56.4036806  92.9258800  67.4525712  56.2524357  93.0828515
  65.3527167  55.5748983  93.4696708  64.3586336  55.7252935  93.3733410
  65.8147207  54.4182690  94.2787609  66.8726179  54.5420596  94.5103393
  65.0344658  54.3004263  95.5962663  63.9778745  54.2073036  95.3451841
  65.3699051  53.3920248  96.0966534  65.2347140  55.5058298  96.5330834
  64.9308668  56.4204179  96.0238622  64.6098955  55.3560945  97.4135851
  66.6894179  55.6579814  96.9855891  67.2814019  54.7094498  97.5145926
  67.2801136  56.8344739  96.7653146  68.2391757  56.9755064  97.0488832
  66.7653233  57.5782979  96.3160728  65.6385646  53.1602747  93.4187538
  64.5716764  52.9214932  92.8047294  66.6877359  52.3335726  93.3625014
  67.5096739  52.5476512  93.9090246  66.7361086  51.1979200  92.4665314
  65.7901020  51.0969034  91.9345855  67.8949131  51.3506738  91.4389749
  68.8364741  51.4397243  91.9808544  67.9558837  50.1479359  90.5126757
  67.0147768  50.0584974  89.9700718  68.7731101  50.2763637  89.8029236
  68.1235670  49.2448412  91.0995330  67.7164881  52.6297330  90.6136719
  66.8315061  52.4851607  89.9939893  67.5360149  53.4394711  91.3206747
  68.9118976  52.9872111  89.7217326  69.0927031  52.1780898  89.0141085
  68.6965435  53.9055584  89.1755090  69.7972129  53.1323980  90.3407943
  66.8371640  49.8575027  93.2348772  67.8834246  49.5239495  93.8149523
  65.7493575  49.0682977  93.2493482  64.3609153  49.2761156  92.8449188
  64.2672526  49.0196577  91.7896667  64.1146399  50.3285458  92.9857666
  63.5446230  48.3682623  93.7380499  62.5995632  48.1050276  93.2630041
  63.3476271  48.8450789  94.6982269  64.4454380  47.1394557  93.9117179
  64.3765912  46.4801350  93.0464692  64.2727805  46.5638734  94.8211100
  65.8204246  47.7862091  93.9604624  66.0590567  47.9592291  95.0098512
  66.9208824  46.9201705  93.3207134  67.0142119  46.8085831  92.0976558
  67.7673904  46.2968772  94.1355727  67.7581686  46.4688043  95.1307889
  68.8096445  45.4300301  93.5923311  69.3299612  45.9460440  92.7854238
  69.8332749  45.0553654  94.6764049  69.3009965  44.7285007  95.5696789
  70.4452577  44.2362980  94.2986409  70.7451217  46.2096623  95.0503049
  70.8556867  47.1865314  94.2997211  71.3853212  46.1120869  96.1983422
  72.0042094  46.8540454  96.4925781  71.2540225  45.2958129  96.7784785
  68.2246910  44.1798897  92.9208259  68.9678286  43.3027938  92.3989923
  66.8980172  44.0618817  92.9158551  66.3377359  44.7015151  93.4608810
  66.2143438  42.9430564  92.2233806  66.6940473  42.0038821  92.4989444
  64.7279866  42.8648896  92.6029093  64.3038065  41.9770585  92.1339461
  64.6585164  42.7710718  93.6866400  64.0078907  44.0121764  92.1807175
  63.0867757  43.9238142  92.4363328  66.3981333  43.0279407  90.7202715
  65.9502855  42.1537869  89.9536135  67.0699222  44.0986089  90.2575530
  67.4321410  44.7591616  90.9302841  67.2961395  44.3643600  88.8261243
  66.7128922  43.6844793  88.2050897  66.8485264  45.7975634  88.5352558
  67.4414872  46.5024346  89.1180537  66.9615910  46.0188885  87.4739681
  65.1180978  46.1435776  88.9385869  65.1386977  47.4177415  88.5578239
  68.7792032  44.2105838  88.3970219  69.2606552  44.8888888  87.4854928
  69.5143403  43.3079199  89.0591771  69.0703103  42.7348665  89.7624171
  70.9624242  43.1740703  88.8655091  71.4278700  44.1509178  88.7342519
  71.6473594  42.4554253  90.0526898  71.1714149  41.4848969  90.1928707
  73.1294777  42.2590217  89.7959214  73.6062227  43.2292086  89.6560909
  73.5822405  41.7516946  90.6478167  73.2664485  41.6548372  88.8990927
  71.4437066  43.2451944  91.3494112  70.3774881  43.3339334  91.5577512
  71.9322277  42.7245697  92.1730596  71.8762890  44.2398336  91.2414012
  71.2744843  42.4411201  87.5357503  70.7977948  41.3021312  87.2873446
  72.0644736  43.0618173  86.6714552  72.3815257  44.0074786  86.8305212
  72.3962578  42.4251641  85.4001673  72.3763020  41.3421519  85.5217630
  71.3947477  42.8143931  84.3023977  71.3942081  43.9006558  84.2122186
  71.7300320  42.3725972  83.3640476  70.0812263  42.3636525  84.5943730
  69.4881291  42.6261580  83.8866115  73.8130560  42.7045161  84.9638664
  74.7404030  42.5955652  85.7651618  74.0350131  43.0395042  83.8055258
  73.1189632  43.2635942  83.4439520  75.1762205  43.1775023  82.9207755
  76.0624219  43.3593946  83.5287735  75.2990750  42.2447698  82.3703065
  75.0139527  44.3141914  81.9340268  74.5796906  45.4063790  82.2974227
  75.3654637  44.0575440  80.6787212  75.8206391  43.1805429  80.4694738
  75.1612050  45.0055188  79.5927924  74.7399304  45.9369058  79.9711387
  76.4906231  45.3145839  78.9053106  77.0454472  44.3887737  78.7531735
  77.0753106  45.9894002  79.5305014  76.3308669  46.1168859  77.3106688
  74.1618969  44.4286985  78.6004458  74.3219271  43.2945589  78.1402984
  73.1381579  45.2132008  78.2711747  73.0590206  46.1166995  78.7156144
  72.0850370  44.8004353  77.3535222  72.0646785  43.7134364  77.2753037
  70.7235407  45.2797265  77.8623579  70.7380949  46.3549572  78.0405886
  69.9402471  45.0418274  77.1426668  70.2186845  44.5205394  79.4211886
  69.0567917  45.1605400  79.5176396  72.3064047  45.2893796  75.9275976
  71.4048109  45.1528574  75.0946514  73.4714837  45.8652716  75.6232946
  74.2373302  45.8982531  76.2809353  73.6390035  46.5262246  74.3315767
  72.8808340  47.3020307  74.2247876  75.0212829  47.1789379  74.2522614
  75.1901336  47.5518735  73.2420592  75.7860356  46.4427391  74.4997783
  75.2601120  48.6145487  75.3633830  73.4409699  45.5392212  73.1853402
  72.8182631  45.8737964  72.1706788  73.9962863  44.3315343  73.3138901
  74.4528930  44.0529550  74.1706300  73.9559472  43.3803539  72.2124104
  74.5830419  43.7636594  71.4074705  74.3592595  42.4314782  72.5660677
  72.5543561  43.1531285  71.6804254  72.3037279  43.2541543  70.4751934
  71.6185614  42.8378188  72.5791479  71.8470078  42.7498493  73.5590320
  70.2504047  42.5503487  72.1589605  70.2540746  41.7908723  71.3771158
  69.4328468  42.0320575  73.3382905  69.9433761  41.1849846  73.7964679
  69.2730894  42.8077320  74.0872276  68.0851950  41.5481445  72.9323055
  67.7673160  40.3180909  72.4410244  68.5827686  39.6024797  72.3359658
  66.4216245  40.2506918  72.1741050  65.9326159  39.4453909  71.8101538
  65.8492125  41.4551992  72.4846343  64.5258096  41.8706062  72.3876048
  63.7842547  41.1669680  72.0093346  64.2379081  43.1481309  72.7771291
  63.2115713  43.5100496  72.7159119  65.2313945  44.0064737  73.2543833
  64.9892088  45.0235135  73.5627266  66.5437098  43.5964976  73.3501595
  67.2795471  44.3040909  73.7322013  66.8697492  42.2965078  72.9615430
  69.5908250  43.7812473  71.5565220  68.8044688  43.6699972  70.6099025
  69.8780052  44.9608269  72.1038651  70.4562494  45.0312347  72.9289564
  69.3213385  46.1867645  71.5429148  68.2324142  46.1390465  71.5347928
  69.7512285  47.3773426  72.3969923  70.8393910  47.3171199  72.4163538
  69.4474035  48.2887427  71.8820746  69.2172731  47.3992913  73.8280492
  69.4638594  46.4563645  74.3160912  69.8398575  48.5466800  74.6014759
  69.5933035  49.4900434  74.1142639  69.4515750  48.5519956  75.6199597
  70.9225744  48.4234184  74.6265967  67.7067278  47.5166072  73.8308214
  67.2746587  46.6647557  73.3056882  67.3447624  47.5306965  74.8588699
  67.4124908  48.4388891  73.3299027  69.7811886  46.3645677  70.1026596
  68.9812312  46.6704283  69.2079595  71.0805221  46.1802379  69.8660142
  71.7191125  45.9647397  70.6182523  71.6228556  46.3349587  68.5223856
  71.3625716  47.3109195  68.1126881  73.1441021  46.2112329  68.5591405
  73.4088397  45.2188578  68.9241146  73.7314777  46.4139940  67.1752089
  73.4675335  47.4063974  66.8097387  74.8165040  46.3218122  67.2233715
  73.3330279  45.6596653  66.4967352  73.6831591  47.1923754  69.4524646
  74.6396652  47.1136411  69.4747671  71.0321733  45.3038710  67.5749292
  70.7366864  45.6109289  66.4130269  70.8230955  44.0793702  68.0633361
  71.1281060  43.8175066  68.9898863  70.1971703  43.0609035  67.2278290
  70.7292596  42.9798034  66.2799878  70.2376373  41.7033758  67.9282390
  69.9914473  41.8714489  68.9766860  69.4701006  41.0790080  67.4709073
  71.5842608  41.0041634  67.8299680  71.7510818  40.7296077  66.7883871
  72.3564504  41.7042995  68.1487700  71.6416819  39.7575799  68.6975724
  72.6755873  39.4144938  68.7353944  71.3108567  40.0239643  69.7014117
  70.7603705  38.6482021  68.1524273  69.7496889  39.0392096  68.0352251
  71.1486390  38.3486109  67.1789840  70.7335580  37.4695945  69.0592230
  70.3734062  37.7468958  69.9611623  70.1391394  36.7547050  68.6646352
  71.6699218  37.1068658  69.1676195  68.7638432  43.4391012  66.8800303
  68.3392612  43.2727753  65.7344734  68.0050226  43.9493041  67.8489753
  68.3390905  44.0252051  68.7991000  66.6364679  44.3682115  67.5609534
  66.0622620  43.5480983  67.1299069  65.9480867  44.8232240  68.8468815
  66.4615143  45.7064220  69.2269522  64.4849650  45.1588124  68.5884065
  63.9707407  44.2759092  68.2087289  64.0156387  45.4802369  69.5182012
  64.4200218  45.9607778  67.8530601  66.0342822  43.7859916  69.8309125
  65.6012821  44.0737710  70.6379406  66.6172151  45.4865256  66.5267383
  65.8416631  45.4469463  65.5581287  67.5202742  46.4570259  66.6694532
  68.1690132  46.4663936  67.4435006  67.5361763  47.5819069  65.7396700
  66.5515574  48.0381074  65.6371710  68.5297971  48.6577340  66.2110455
  69.4888129  48.1867858  66.4269059  68.7152562  49.7130227  65.1337045
  67.7566819  50.1847674  64.9176185  69.4208629  50.4676548  65.4811956
  69.1014554  49.2447551  64.2283442  68.0511439  49.2933588  67.5045478
  67.9657082  48.5281894  68.2761168  68.7659291  50.0519633  67.8234540
  67.0777508  49.7567884  67.3438011  67.8674234  47.0917939  64.3389539
  67.1910049  47.4427177  63.3636470  68.9173427  46.2796177  64.2097671
  69.4836874  45.9917290  64.9949251  69.3159341  45.8491889  62.8756359
  69.3879019  46.7120673  62.2135477  70.6755336  45.1586993  62.9261754
  70.6220161  44.3718052  63.6785268  70.8600268  44.7138180  61.9483498
  71.8055374  46.1100343  63.2696782  71.9645172  46.7701193  62.4169683
  71.5011873  46.7005515  64.1338323  73.0907645  45.3782201  63.5868691
  73.8030938  46.0873641  64.0085335  72.8788274  44.5984581  64.3184108
  73.6799864  44.7526509  62.3385824  74.5099407  44.1093020  62.6307783
  72.9096665  44.1532369  61.8533923  74.1677221  45.7917391  61.3932884
  74.8818315  46.3470066  61.8425383  74.5538618  45.3462139  60.5732253
  73.3987342  46.3877262  61.1220763  68.2589439  44.9379347  62.2609421
  67.9767170  45.0316467  61.0610042  67.6564991  44.0529218  63.0630976
  67.9604436  43.9291579  64.0182937  66.5835845  43.2053552  62.5652512
  66.9019017  42.7030057  61.6517862  66.2177710  42.1445845  63.6042354
  66.0366848  42.6650309  64.5446834  65.2954475  41.6706084  63.2684288
  67.2863547  41.0834974  63.8103813  67.4278821  40.5590041  62.8654064
  68.2112519  41.5900065  64.0862671  66.9147650  40.0862683  64.8909599
  65.7052500  39.9033091  65.1423172  67.8324689  39.4834186  65.4876949
  65.3495220  44.0089238  62.1981053  64.4585437  43.4763224  61.5273397
  65.2771653  45.2704337  62.6204619  65.9501905  45.6424709  63.2752327
  64.1881375  46.1335925  62.1843238  63.3121407  45.5371286  61.9294518
  63.8050478  47.1159252  63.2929850  64.7044548  47.6199519  63.6467143
  62.8166017  48.1494763  62.7708015  61.9166851  47.6462014  62.4172988
  62.5549058  48.8401659  63.5724012  63.2695397  48.7030733  61.9483186
  63.2133374  46.4017349  64.3861327  62.9739311  47.0201989  65.0802416
  64.5532898  46.9043454  60.9205592  63.7169788  47.1212127  60.0448227
  65.8118252  47.3364130  60.7955505  66.4819470  47.2240675  61.5428220
  66.2335417  48.0402928  59.5873691  65.4539071  48.7287501  59.2613391
  67.5087745  48.8417309  59.8667905  68.2805027  48.1522825  60.2091306
  68.0006301  49.5780802  58.6128572  67.2295625  50.2680971  58.2701752
  68.9068074  50.1354205  58.8501621  68.2152621  48.8543175  57.8265994
  67.2491828  49.8090422  60.8901721  68.0481376  50.3115344  61.0655949
  66.4594405  47.0781151  58.4255120  66.1545608  47.4120610  57.2749150
  66.9806129  45.8850042  58.6990714  67.2669557  45.6620308  59.6416158
  67.2016282  44.8893781  57.6549019  67.2149919  45.3757770  56.6795370
  68.5404834  44.1756985  57.8642774  68.5015500  43.7144528  58.8511087
  68.6065338  43.3985148  57.1028821  69.7635972  45.0793880  57.7744127
  69.6462661  45.8819136  58.5026207  70.6425372  44.4861702  58.0267206
  69.9368009  45.6768571  56.3847177  69.0317125  46.2226071  56.1181264
  70.7838055  46.3628143  56.3967760  70.1793539  44.6525059  55.3750155
  69.3859037  44.3532831  54.8263791  71.3601020  44.0966322  55.1360023
  72.4403503  44.4418461  55.8177588  72.3747516  45.1448906  56.5399260
  73.3255041  44.0007080  55.6128209  71.4603141  43.1696004  54.1867402
  70.6416675  42.8995714  53.6604302  72.3545651  42.7402231  53.9968744
  66.0692532  43.8712713  57.6247119  64.9575907  43.8983788  57.1746123
  66.8865936  42.7705383  58.3984791  67.8748133  42.8519901  58.5905384
  66.1991335  41.5484467  58.8104496  65.9233300  41.7235024  59.8503473
  64.9107890  41.3693974  57.9824388  64.3700479  42.3156824  57.9668187
  65.2362122  40.9440501  56.5476568  65.7765869  39.9975427  56.5624447
  64.3104951  40.8245703  55.9847435  65.8535005  41.7068735  56.0731505
  64.1684408  40.2590257  58.4991851  63.3652877  40.1444206  57.9859493
  67.1169273  40.3406570  58.6520935  66.7396155  39.2958091  58.1159614
  68.3483856  40.4867396  59.1263839  68.6286872  41.3876548  59.4867754
  69.3461302  39.4360270  59.0490934  68.8993702  38.5164934  59.4271971
  69.8708102  39.1786432  57.6254015  70.5275225  38.3108453  57.6866801
  69.0033321  38.9345863  57.0121986  70.6291676  40.3483016  56.9933348
  69.9688711  41.2155384  56.9964522  71.4930777  40.5477774  57.6273442
  71.0971343  40.0719374  55.5702308  72.3272404  40.0839919  55.3137164
  70.2317786  39.8303602  54.7019117  70.4407260  39.8239479  60.0307503
  70.2652409  40.7163806  60.8648696  71.5981961  39.1635441  59.9564356
  70.8171469  38.0772878  60.4133933  70.7381743  37.3598155  59.5966332
  69.8262683  38.4610234  60.6563040  71.5262207  37.5069945  61.6205507
  72.2523225  36.7507422  61.3222929  70.8121854  37.0692400  62.3181365
  72.2140601  38.7314193  62.2374647  73.1172059  38.5025662  62.8031970
  71.5303485  39.3060109  62.8623508  72.5719463  39.5273577  60.9923252
  72.4222895  40.5807200  61.2292411  74.0226558  39.3031076  60.5640195
  74.3822452  39.3992454  59.3871890  74.8733895  38.9982986  61.5414824
  74.5261620  38.9539425  62.4888814  76.2906112  38.7407961  61.3116278
  76.4972444  37.6778977  61.1865322  76.7765859  39.5132165  60.0561803
  76.0653838  39.3503401  59.2463882  76.8838076  41.0050167  60.3449442
  77.5952302  41.1687308  61.1543738  77.2261408  41.5251138  59.4502892
  75.9068861  41.3902070  60.6370949  78.1109456  38.9734001  59.5442942
  78.3042158  39.4465748  58.5815621  78.8779022  39.2754424  60.2574896
  78.1384900  37.4724360  59.3815982  77.3720595  37.1696624  58.6681472
  79.1175758  37.1641017  59.0149645  77.9457434  36.9985299  60.3440750
  77.0892742  39.1872949  62.5424883  76.8040375  40.2236477  63.1440079
  78.0968391  38.4197840  62.9384729  78.2462299  37.4971064  62.5557878
  78.9856147  38.8804700  64.0040959  79.7279116  38.1101227  64.2130449
  79.7160364  40.1704845  63.6069163  80.1855049  40.5989869  64.4924017
  80.4834330  39.9212394  62.8740594  78.7851227  41.2067362  63.0015660
  78.0976173  40.9388544  62.0145231  78.7545861  42.3992104  63.5981814
  78.1529876  43.1257886  63.2372614  79.3331995  42.5701879  64.4081653
  78.1932381  39.0886232  65.2927438  77.8348475  40.2012989  65.6745173
  77.9010729  37.9113255  66.0138186  78.3092605  36.9894458  66.0739844
  76.6876492  38.1810916  66.7758573  76.0737629  38.9193929  66.2599560
  75.8534509  36.9014325  66.9774476  74.9838070  37.1398605  67.5897970
  75.3927963  36.3432081  65.6376939  76.2619581  36.1040940  65.0249282
  74.8054546  35.4398935  65.8024718  74.7807661  37.0854863  65.1253048
  76.6327613  35.9165574  67.6665290  76.1082287  35.1219476  67.7892525
  77.0091812  38.7882538  68.1389990  76.1282572  38.9329182  68.9855863
  78.2753627  39.1371066  68.3477549  78.9719853  38.8748835  67.6650725
  78.7106079  39.8542772  69.5374536  77.9246239  39.8291290  70.2922357
  79.9756714  39.2289021  70.1280274  80.7845423  39.3147256  69.4024501
  80.3721816  39.9372339  71.4154526  79.5639346  39.8514341  72.1417273
  81.2740707  39.4781872  71.8203863  80.5629114  40.9900917  71.2075751
  79.7417241  37.8427337  70.4055881  80.5365077  37.4520055  70.7760617
  78.9654548  41.3082899  69.1663176  79.7134381  41.5902944  68.2241140
  78.3445149  42.2245478  69.9034302  77.7734376  41.9254484  70.6809324
  78.4224127  43.6474961  69.6122755  79.2087446  43.8258031  68.8787989
  77.0973606  44.1695357  69.0463827  76.3348470  43.9325948  69.7883606
  77.1832544  45.2516110  68.9472092  76.7071448  43.5717073  67.7153411
  77.4455379  43.8323719  66.5708169  78.3224906  44.4756262  66.6434614
  77.0853002  43.2912462  65.3527271  77.6760595  43.4985718  64.4604708
  75.9714352  42.4862483  65.2691800  75.6078584  41.9454027  64.0595028
  76.1986534  42.1938583  63.3447786  75.2198943  42.2185109  66.3900587
  74.3382125  41.5810889  66.3234939  75.5875892  42.7614492  67.6018951
  74.9946548  42.5565625  68.4932707  78.7836276  44.4018753  70.8848721
  78.9313233  43.8186913  71.9622394  78.9278481  45.7169136  70.7505859
  78.8910272  46.1204285  69.8254269  79.2148726  46.5948793  71.8753882
  78.8123155  46.1632950  72.7917844  80.7290008  46.7784751  72.0437514
  80.9070916  47.4372866  72.8936634  81.1778250  45.8046071  72.2392966
  81.3099209  47.3406795  70.8813663  82.2550540  47.4442286  71.0140346
  78.4851227  47.9140270  71.6394210  77.6316668  48.0241747  70.7553206
  78.8229407  48.9249959  72.4411797  79.5342661  48.8151898  73.1497403
  78.1380709  50.2093195  72.3418656  77.0656724  50.0731585  72.4815821
  78.6531273  51.1583740  73.4185863  78.6755947  50.5878329  74.3470675
  79.6683169  51.4452473  73.1443715  77.8146658  52.3987606  73.6107926
  76.4301270  52.3341685  73.6111502  75.9482982  51.3672261  73.4663640
  75.6659009  53.4632312  73.7900494  74.5777897  53.3991797  73.7936983
  76.2833819  54.6802363  73.9559915  75.5221062  55.8111357  74.1335043
  74.5787226  55.6335398  74.1241880  77.6561603  54.7715558  73.9544745
  78.1464866  55.7352450  74.0922557  78.4103500  53.6355001  73.7774114
  79.4983951  53.6998485  73.7665811  78.3300214  50.8354878  70.9673336
  77.3817891  51.3744119  70.3796285  79.5601819  50.7960891  70.4530623
  80.3190654  50.3696046  70.9652207  79.8561563  51.4148683  69.1674934
  79.7225585  52.4953769  69.2199518  81.3047832  51.1199620  68.7745908
  81.3842394  50.0723373  68.4842990  81.7392973  52.0002541  67.6160170
  81.6605496  53.0480910  67.9057347  82.7726197  51.7729547  67.3539501
  81.0970532  51.8124793  66.7555731  82.1626742  51.3572291  69.8961345
  83.0715245  51.1719104  69.6486503  78.8965020  50.9207973  68.0943437
  78.3359253  51.7143795  67.3309617  78.6989529  49.6046621  68.0206373
  79.1994824  48.9733911  68.6297896  77.8078502  49.0367404  67.0207798
  77.9715045  49.5196317  66.0573835  78.0772158  47.5416772  66.8691156
  78.2859433  47.1359195  67.8590110  77.1764659  47.0763731  66.4688136
  79.2457419  47.2534873  65.9488910  79.2798998  47.8167933  64.8361945
  80.1315335  46.4627709  66.3370171  76.3416347  49.2680727  67.3504529
  75.4846675  48.9684883  66.5140209  76.0310717  49.7810821  68.5413240
  76.7147806  49.8371635  69.2826041  74.6710215  50.2261208  68.8203169
  73.9550083  49.5771390  68.3160878  74.4011820  50.1753664  70.3261737
  74.5975330  49.1712113  70.7019637  75.0418483  50.8885672  70.8448175
  72.9816091  50.5105725  70.7116741  71.9534040  50.4552051  69.7882102
  72.1754958  50.1625507  68.7619897  70.6614553  50.7643936  70.1518902
  69.8616150  50.7135420  69.4131275  70.3803874  51.1365039  71.4439121
  69.3584609  51.3831467  71.7318940  71.3886327  51.1974624  72.3726998
  71.1673301  51.4915845  73.3986713  72.6811934  50.8867936  72.0083611
  73.4821344  50.9359548  72.7460444  74.4423517  51.6328988  68.2852282
  73.4393111  51.8970045  67.6099108  75.3689803  52.5494258  68.5696130
  76.1598819  52.3521064  69.1659678  75.2013976  53.9099377  68.0707711
  74.1998099  54.2678547  68.3091339  76.2232340  54.8517486  68.7131687
  75.7284669  55.8168017  68.8226100  76.4434696  54.4430343  69.6993476
  77.5183797  55.0318282  67.9391125  77.9940995  54.0578907  67.8240589
  77.2934073  55.4441839  66.9555210  78.4826294  55.9606517  68.6437203
  78.4160748  56.1348206  69.8587992  79.3831319  56.5693161  67.8818169
  80.0511962  57.2002588  68.3009861  79.3961265  56.3987102  66.8864144
  75.3063058  53.9468985  66.5519748  74.5783201  54.6986581  65.8955417
  76.2001923  53.1414897  65.9741880  76.8195153  52.5633572  66.5240072
  76.3441603  53.1234632  64.5226504  76.4990835  54.1352704  64.1480251
  77.5489498  52.2689153  64.1331391  78.4230889  52.7172663  64.6053269
  77.3818497  51.2751378  64.5485714  77.7826107  52.1590120  62.6389537
  76.9319842  51.6479402  62.1880201  77.8651119  53.1629386  62.2225080
  79.0545299  51.3823343  62.3432710  79.9029784  51.9541427  62.7191291
  79.0030153  50.4255755  62.8629423  79.2272820  51.1405999  60.8549742
  78.3601865  50.5856982  60.4967423  79.2706175  52.1082603  60.3551196
  80.4659245  50.3720908  60.5555589  80.4257776  49.4752267  61.0182929
  80.5430829  50.2331783  59.5581373  81.2695445  50.8863015  60.8870424
  75.0860558  52.6064626  63.8385440  74.7757806  53.0253299  62.7182827
  74.3515784  51.7017112  64.4864861  74.6630566  51.2983648  65.3584909
  73.0974817  51.2265591  63.9139576  73.2324083  51.0834159  62.8418550
  72.7097845  49.8894547  64.5395524  72.5622804  50.0185619  65.6117809
  71.7855873  49.5302851  64.0868306  73.5042158  49.1632589  64.3674541
  71.9774347  52.2411730  64.1029532  71.1669468  52.4567650  63.1903177
  71.9141922  52.8735933  65.2765149  72.5295547  52.6416024  66.0430711
  70.8743707  53.8713287  65.5020752  69.8900515  53.4807323  65.2439098
  70.8569159  54.3131402  66.9749808  71.8531002  54.6530276  67.2581638
  69.8630545  55.4425285  67.1705382  68.8664913  55.1032299  66.8879797
  69.8594984  55.7469233  68.2171669  70.1480802  56.2900397  66.5471709
  70.5020697  53.1423093  67.8676897  71.2413127  52.3513165  67.7413871
  70.4929123  53.4676101  68.9079757  69.5162328  52.7641371  67.5971119
  71.0644986  55.0555948  64.5673142  70.0864401  55.6726114  64.1270708
  72.3151094  55.3973014  64.2509077  73.1071744  54.9405900  64.6800315
  72.5687395  56.4874125  63.3150062  72.1309907  57.4120870  63.6911076
  74.0735394  56.6926702  63.1467067  74.5684255  55.7287046  63.2648479
  74.2677483  57.0800480  62.1465460  74.6497235  57.6607387  64.1615900
  75.8106837  58.0562822  64.0705086  73.8393480  58.0426766  65.1401365
  74.1710163  58.6866380  65.8439899  72.8944840  57.6877207  65.1767287
  71.9118394  56.2121238  61.9692483  71.1989189  57.0651805  61.4285862
  72.1399984  55.0207938  61.4109748  72.7599715  54.3460895  61.8358358
  71.5380313  54.6921848  60.1237430  71.7556284  55.4797657  59.4023090
  72.0995245  53.3742036  59.5920361  71.9924727  52.6340556  60.3850179
  71.4870582  53.0828870  58.7387369  73.5526130  53.4526456  59.1673177
  73.6621723  54.2705614  58.4552002  74.1611604  53.6549958  60.0486953
  74.0110142  52.1557584  58.5227876  73.8223020  51.3367900  59.2168895
  73.4353514  51.9982660  57.6106977  75.4900133  52.2019521  58.1855031
  76.0483073  52.3287781  59.1130394  75.7649483  51.2538660  57.7232881
  75.8129195  53.3195362  57.2552627  75.5586316  54.1981772  57.6835471
  76.8030509  53.3162259  57.0559419  75.2960191  53.2019745  56.3955579
  70.0225777  54.6169535  60.2252397  69.3122690  55.0593591  59.3134350
  69.5018373  54.0550302  61.3184271  70.0744167  53.6430934  62.0413103
  68.0525178  53.9725362  61.4536660  67.6324249  53.4305922  60.6063656
  67.6775627  53.2364585  62.7381800  68.0272083  52.2156373  62.5840004
  68.2154198  53.6816644  63.5751994  66.1772668  53.2208531  63.0461422
  65.8373019  54.2465094  63.1895088  65.3975290  52.5833429  61.9068921
  65.7366390  51.5574472  61.7632217  64.3346501  52.5836560  62.1485306
  65.5615795  53.1513015  60.9911352  65.9044657  52.4911755  64.3459080
  66.4257788  52.9928638  65.1611632  64.8329123  52.4918740  64.5455928
  66.2581982  51.4631760  64.2672362  67.4317014  55.3631143  61.4316315
  66.4461784  55.6071498  60.7266102  68.0086647  56.2978263  62.1897509
  68.7723329  56.0726068  62.8111898  67.5093436  57.6687755  62.1759396
  66.4476393  57.6817691  62.4223425  68.2600861  58.5100598  63.2067951
  69.3098999  58.2945165  63.0079700  68.0569051  59.5581191  62.9868195
  67.9531823  58.2302868  64.6737072  68.0011098  57.1562158  64.8530821
  68.9650095  58.9354728  65.5562016  68.9173476  60.0097022  65.3777127
  68.7397416  58.7312549  66.6029347  69.9662194  58.5730305  65.3231462
  66.5426454  58.6756184  65.0144335  65.8298010  58.1329902  64.3935414
  66.3396268  58.4688054  66.0652014  66.4441664  59.7453052  64.8295794
  67.6472719  58.2844123  60.7900633  66.7151567  58.9181107  60.2821521
  68.8117888  58.1083543  60.1606175  69.5645070  57.5868789  60.5867374
  69.0446308  58.7177041  58.8573177  68.9524408  59.8022521  58.9152482
  70.4511883  58.3723180  58.3657138  70.5390923  57.2888412  58.2853944
  70.7207974  59.0039557  57.0100553  70.6335254  60.0875337  57.0896916
  71.7270396  58.7441961  56.6812684  69.9954775  58.6338252  56.2854762
  71.4215360  58.8425507  59.3095794  72.3029382  58.6241995  58.9980456
  68.0029421  58.2657074  57.8456588  67.5417512  59.0616214  57.0206079
  67.6183513  56.9927633  57.8927660  68.0152126  56.3703212  58.5820891
  66.6755106  56.4437586  56.9283250  66.7574186  57.0456301  56.0232610
  67.0567190  54.9989680  56.5915072  66.9707953  54.3820257  57.4859899
  66.3873448  54.6162138  55.8210932  68.0836762  54.9690665  56.2274138
  65.2236594  56.4842243  57.3905861  64.3416628  56.0930753  56.6197778
  64.9399022  56.9436200  58.6114741  65.6768057  57.2819825  59.2136231
  63.5799513  56.9052393  59.1374422  62.9259360  56.3638311  58.4538924
  63.5737880  56.1885819  60.4917306  64.1115678  56.8006573  61.2157858
  62.5414714  56.0631104  60.8183485  64.1944224  54.9205693  60.3930024
  64.1798082  54.4895150  61.2506611  62.9508502  58.2862665  59.2733860
  61.8869923  58.5322278  58.6992271  63.5667610  59.1939286  60.0237342
  64.4482380  58.9828564  60.4693195  62.9583025  60.4999720  60.2744966
  62.0208207  60.3677640  60.8146338  63.8841285  61.3851136  61.1113977
  64.8815936  61.0158726  60.8730205  63.7911751  62.4192256  60.7796266
  63.6617458  61.3130067  62.6243202  62.5925762  61.3760226  62.8268199
  64.2070621  60.0123747  63.1862237  65.2763481  59.9488497  62.9845037
  64.0384886  59.9820539  64.2626829  63.6984350  59.1710583  62.7154948
  64.2872986  62.5109733  63.3217597  63.8354775  63.4284061  62.9445674
  64.1160238  62.4370921  64.3956813  65.3593807  62.5272540  63.1256120
  62.6075334  61.2027500  58.9674067  61.7322719  61.6765965  58.8700221
  63.2574362  61.1872806  58.2078818  76.9064250  48.3517144  77.0054125
  22.7962080  52.0992300  71.0670045  23.5248091  51.6624742  70.5206659
  21.9212306  51.6338335  70.8722715  23.1171206  52.1930620  72.0200576
  22.6184637  53.4992784  70.5700642  21.6098145  53.6547526  70.1872408
  22.8910181  54.5496536  71.7114371  22.7903744  55.5578941  71.3096632
  21.8832181  54.3488877  72.8382276  21.9835835  53.3409547  73.2408407
  22.0714192  55.0756474  73.6284806  20.8732965  54.4863570  72.4518841
  24.2157000  54.3691393  72.2189122  24.3818399  55.0094086  72.9146513
  23.5771601  53.6886577  69.3866190  24.5351814  52.9366290  69.2706625
  23.3068572  54.6462447  68.4909736  22.3893046  55.0645772  68.4344543
  24.3221017  55.0602464  67.5141128  24.5936459  54.2140297  66.8830183
  23.8414685  56.2126581  66.6121831  22.9697434  55.8899036  66.0429520
  23.5745321  57.0705991  67.2292587  24.9302985  56.6353894  65.6363585
  26.0230311  56.0729224  65.6390812  24.6291693  57.6307536  64.7992233
  25.3161694  57.9500102  64.1312369  23.7157260  58.0599872  64.8377028
  25.5885320  55.4433216  68.3126074  26.6774456  54.9878008  67.9995691
  25.4377961  56.2204374  69.3863586  24.5269833  56.5807725  69.6326878
  26.6065616  56.6894964  70.1544003  27.4107758  56.9386599  69.4621170
  26.2788892  57.9378387  70.9991187  25.2966304  57.7775441  71.4436099
  27.0285147  57.9990669  71.7880502  26.2704440  59.2502905  70.1974973
  27.1898708  59.2880728  69.6132646  25.4127959  59.2518350  69.5247868
  26.2015761  60.4874642  71.0739888  25.7772005  60.4205245  72.2252027
  26.6029193  61.6271161  70.5252856  26.5776029  62.4803909  71.0650844
  26.9318556  61.6359937  69.5703911  27.2372620  55.5956427  71.0125490
  28.4568581  55.4375446  70.9965727  26.4267380  54.8305069  71.7406061
  25.4469688  55.0574486  71.8336065  26.9616954  53.7337911  72.5405217
  27.8303900  54.0848558  73.0974980  25.9185926  53.2023589  73.5398327
  25.0031433  53.2365667  72.9491707  26.1533708  52.1666843  73.7855097
  25.7209716  54.0069031  74.8408337  25.6014709  55.0602877  74.5874537
  24.4717763  53.5168957  75.6071900  24.5907494  52.4636369  75.8613357
  24.3536605  54.0994836  76.5208315  23.5885168  53.6414365  74.9807376
  26.9809601  53.9505299  75.7070306  27.8208261  54.3731352  75.1555514
  26.8208728  54.5241840  76.6199349  27.2000694  52.9140533  75.9635579
  27.5522028  52.6113878  71.6509134  28.6172749  52.0724249  71.9556089
  26.8830502  52.2601631  70.5600527  25.9398643  52.5829914  70.3979367
  27.4546794  51.2852282  69.6251158  27.6874763  50.3722383  70.1731615
  26.4996494  50.9352599  68.4692435  26.0948546  51.8771956  68.0991116
  27.1044476  50.4695690  67.6911360  25.3390200  49.9918234  68.8522121
  25.7430590  49.0494380  69.2220269  24.7334638  50.4570643  69.6300005
  24.4496448  49.7019068  67.6516102  24.6996191  50.1988244  66.5556972
  23.4076847  48.8939550  67.8607907  22.7857004  48.6690821  67.0974630
  23.2461388  48.5112643  68.7814166  28.8196447  51.7999307  69.1248656
  29.7680419  51.0300260  69.0325487  28.9261260  53.1035128  68.8583014
  28.1029493  53.6867330  68.9066096  30.1857095  53.7135051  68.4194397
  30.5909421  53.1612468  67.5715619  29.9474297  55.1729597  67.9877860
  29.2554476  55.1591414  67.1457236  29.4660697  55.6431706  68.8452791
  31.1969857  55.9664478  67.6069480  31.6002054  56.0848866  66.2748080
  31.0094971  55.5896211  65.5041750  32.7352652  56.8196996  65.9209675
  33.0401082  56.8983852  64.8774249  33.4719165  57.4469125  66.9036688
  34.5895861  58.1677736  66.5650245  34.7640659  58.1679108  65.6210136
  33.0919598  57.3558616  68.2292719  33.6778609  57.8496766  69.0044926
  31.9525902  56.6276703  68.5733359  31.6379846  56.5679373  69.6152359
  31.2696110  53.6400773  69.5064724  32.4496915  53.4596379  69.1943113
  30.8830072  53.7618095  70.7788480  29.9221340  53.9654883  71.0140865
  31.8629743  53.6512945  71.8754308  32.6962893  54.3267325  71.6818622
  31.2441031  54.0141895  73.2204243  30.3800282  53.3608558  73.3413743
  31.9928884  53.7685938  73.9734870  30.8005856  55.4998989  73.3937361
  30.0185494  55.6616098  72.6518669  30.3710460  55.5636723  74.3935015
  32.0740377  56.7818140  73.2080827  33.2814579  56.1921166  74.3890236
  33.6127492  55.1938515  74.1029956  34.1365428  56.8679301  74.4033994
  32.8318161  56.1547503  75.3812570  32.4377858  52.2215317  71.9351895
  33.5989079  52.0476265  72.2419638  31.6059499  51.2141980  71.6362967
  30.6490939  51.4370665  71.4020844  32.0135906  49.7943806  71.6398326
  32.6145865  49.5539443  72.5168124  30.7190547  48.9507219  71.6817581
  30.1514832  49.3924318  72.5008150  30.2307942  49.1829974  70.7353175
  30.7807493  47.4245167  71.8655771  31.3380446  46.9420985  71.0625856
  31.2735093  47.2284326  72.8178589  29.3641249  46.8230802  71.9116042
  28.9372428  46.2689788  72.9256497  28.6179997  46.9838154  70.8237883
  27.6802212  46.6096024  70.7985396  28.9921173  47.4794572  70.0272479
  32.8194636  49.5213967  70.3697545  33.9582449  49.0541751  70.4481269
  32.2511007  49.8733806  69.2146593  31.3538614  50.3368676  69.2301721
  32.8158935  49.4875679  67.9088742  33.2765734  48.5021956  67.9789793
  31.7110119  49.4368048  66.8506938  31.2219632  50.4088265  66.7866286
  32.1618792  49.1933880  65.8886299  30.6711111  48.3948526  67.1725293
  30.9448699  47.4347512  67.9070171  29.4729188  48.5741084  66.6431990
  28.7381663  47.9057527  66.8263362  29.2978773  49.3785749  66.0581394
  33.9854141  50.2878093  67.3717073  34.7673263  49.7494278  66.6013920
  34.1056398  51.5548824  67.7525178  33.3786246  51.9798161  68.3101733
  35.1980823  52.4012519  67.2768910  35.8480464  51.8612434  66.5883876
  34.6474522  53.6780751  66.5495128  33.8918231  54.1379074  67.1864415
  35.7496040  54.6809145  66.2686651  36.5054307  54.2219207  65.6313647
  35.3297518  55.5512893  65.7644108  36.2070236  54.9914342  67.2080513
  33.9471908  53.2900476  65.2225106  33.1155890  52.6175780  65.4330459
  33.5720838  54.1886738  64.7327501  34.6606923  52.7905918  64.5671021
  36.1576119  52.7233771  68.4645990  37.3596721  52.4793748  68.3703477
  35.6170649  53.2201763  69.5860037  34.6185810  53.3532972  69.6595429
  36.4627991  53.7289646  70.6583796  37.3116266  54.2780328  70.2508075
  35.7103450  54.6427936  71.6324630  34.8484512  54.1111189  72.0356508
  36.6379476  55.0491432  72.7758100  37.4999085  55.5813125  72.3734167
  36.1007186  55.6987030  73.4668654  36.9761463  54.1578176  73.3042623
  35.1598268  55.8968748  70.8773577  34.4784727  55.5768667  70.0890345
  34.6271484  56.5390972  71.5787163  35.9896317  56.4499337  70.4373003
  37.1867925  52.5800550  71.3701922  38.4200611  52.5469613  71.3440701
  36.4416835  51.6182913  71.9329605  35.4381443  51.7157229  71.9922521
  37.0681008  50.4477551  72.5693200  37.7956847  50.7664166  73.3157620
  36.0303772  49.4934318  73.2564080  35.2359628  49.2695177  72.5444618
  36.6958494  48.1908563  73.7035735  37.4901243  48.4139416  74.4159367
  35.9543073  47.5472122  74.1767944  37.1180292  47.6818398  72.8371048
  35.3440478  50.1613062  74.4803151  34.8172417  51.0590983  74.1569780
  34.6337352  49.4639912  74.9245080  36.0990944  50.4299439  75.2191245
  37.9225290  49.6858065  71.5323510  39.0661344  49.3662061  71.8071864
  37.3992252  49.4146013  70.3349351  36.4441955  49.6479739  70.1035162
  38.1695124  48.5749152  69.3823413  38.5121302  47.6764413  69.8956218
  37.3120020  48.1509435  68.1585174  36.7728941  49.0307365  67.8071966
  37.9905073  47.8057015  67.3784286  36.2938308  47.0195307  68.4996820
  36.8067356  46.3323807  69.1726266  35.4667340  47.4944618  69.0273688
  35.7428543  46.2309192  67.2734394  35.4092272  46.9499030  66.5252053
  36.5522457  45.6280165  66.8617439  34.5684343  45.3148584  67.6640496
  34.9014376  44.5952542  68.4119662  33.7584183  45.9171405  68.0754247
  34.0895076  44.5976590  66.4736072  34.8398159  44.0391748  66.0925134
  33.3191738  43.9967912  66.7298177  33.7804938  45.2642690  65.7806132
  39.5188936  49.2245434  68.9894511  40.5644351  48.5514460  69.0005815
  39.5020978  50.5364716  68.7262189  38.6283644  51.0403064  68.7795084
  40.7114749  51.2801300  68.3684170  41.1431481  50.8323792  67.4732764
  40.4229962  52.7762293  68.0840564  39.9509271  53.2111229  68.9650324
  41.7003962  53.5378749  67.7657305  42.1728196  53.1038187  66.8845319
  41.4617332  54.5835388  67.5714985  42.3834179  53.4728927  68.6127011
  39.5461639  52.8914164  66.9650153  39.3692793  53.8188388  66.7912338
  41.7007910  51.2098901  69.5137288  42.8849900  50.9067029  69.3066630
  41.2312915  51.4956405  70.7245628  40.2669692  51.7621807  70.8629035
  42.1431911  51.5480458  71.8805912  43.0218955  52.1289229  71.6003065
  41.5054979  52.1904406  73.1295245  40.6618620  51.5319863  73.3364440
  42.2236559  52.1278336  73.9470998  41.0089862  53.6262316  72.9984159
  40.3035982  53.6723177  72.1687143  40.3295819  54.0981468  74.2638083
  41.0345310  54.0527809  75.0939213  39.9891266  55.1252741  74.1326573
  39.4745412  53.4571189  74.4784916  42.1782851  54.5312897  72.6277735
  42.6047459  54.2047332  71.6793055  41.8272564  55.5588682  72.5331029
  42.9401382  54.4783403  73.4055107  42.6880574  50.1756952  72.1979313
  43.8739888  50.0383066  72.5048974  41.8435436  49.1531064  72.1158484
  40.8822979  49.3115140  71.8493658  42.2574086  47.7757845  72.4623076
  42.6174895  47.7513824  73.4908238  41.0753694  46.7920102  72.3300748
  40.1417645  47.2739934  72.6202014  41.0017345  46.4503532  71.2976270
  41.2060982  45.5650572  73.1791692  41.9280864  44.4270763  72.8884692
  42.4436987  44.4017181  71.9284688  41.8337277  43.5310225  73.9248716
  42.2546755  42.6132037  73.9474761  41.0371096  44.0673045  74.9063558
  40.6239255  43.5216145  76.1237129  40.9720270  42.5237848  76.3906586
  39.7970711  44.2849084  76.9145867  39.4611843  43.8983888  77.8768146
  39.3759709  45.5504056  76.5106134  38.7217540  46.1475396  77.1458540
  39.7754032  46.0930171  75.2858797  39.4115306  47.0845623  75.0165555
  40.6163035  45.3442461  74.4647934  43.4129996  47.2989774  71.5971941
  44.3057368  46.5660314  72.0744736  43.4096652  47.7126446  70.3305283
  42.6621867  48.3041950  69.9966970  44.4306688  47.2964925  69.3877477
  44.6406459  46.2349271  69.5184675  43.9591135  47.5325723  67.9287882
  43.7185903  48.5927788  67.8499853  44.8114129  47.3053231  67.2884418
  42.7393989  46.6926857  67.4807090  42.9793399  45.6322941  67.5588042
  41.8865160  46.9197506  68.1203452  42.3936479  47.0300950  66.0342526
  42.1531264  48.0903017  65.9554482  43.2459472  46.8028438  65.3939072
  41.1914480  46.2022709  65.5926098  41.4313877  45.1418792  65.6707056
  40.3385664  46.4293390  66.2322444  40.8581685  46.5275102  64.1983203
  41.6481871  46.3167725  63.6053953  40.0619569  45.9792477  63.9058222
  40.6353875  47.5099616  64.1258161  45.7540150  48.0502535  69.6429205
  46.7745708  47.6359579  69.1813201  45.7373519  49.1749680  70.3394216
  44.8772068  49.4965889  70.7599091  46.9503079  50.0013704  70.5064002
  47.3937135  50.2240879  69.5358913  46.5780709  51.3163215  71.1858362
  45.6787667  51.7380786  70.7369797  46.4044398  51.1377745  72.2470022
  47.6350395  52.3698550  71.0967164  48.7574024  52.3661661  71.8927453
  49.5108520  53.4109182  71.5990502  50.4591006  53.5777249  72.1100287
  48.9016711  54.1047714  70.6563703  49.2330882  54.9660531  70.2459359
  47.7330679  53.4675182  70.3150260  47.0936448  53.8822906  69.5357935
  48.0042682  49.2768616  71.3437309  47.6632619  48.6205398  72.3120559
  49.2755382  49.4296562  70.9746518  49.4637590  49.9815074  70.1499504
  50.4209268  48.7936424  71.6722524  50.3094021  47.7095624  71.6514701
  51.7484502  49.1654824  70.9831176  52.5588101  48.7882260  71.6068914
  51.7691668  48.6610075  70.0171072  51.9252844  50.6855314  70.7736455
  51.2443642  50.9886990  69.9783230  51.6549618  51.1971780  71.6973584
  53.3381409  51.0954093  70.3864716  54.3302241  50.5350041  70.8673653
  53.4280363  52.0953015  69.5163691  54.3363125  52.4187021  69.2154572
  52.5876901  52.5274685  69.1597863  50.5568099  49.1341723  73.1569699
  51.2065134  48.4036220  73.8949080  49.9927030  50.2683466  73.5679945
  49.5184921  50.8525437  72.8942459  50.0469064  50.7153988  74.9514873
  50.9213909  50.2858459  75.4402207  50.1432231  52.2475049  75.0302452
  49.3406555  52.6757410  74.4297467  50.0477790  52.5900101  76.0606241
  51.4479285  52.8311259  74.4952244  52.5741980  52.0455546  74.2997668
  52.5297556  50.9806036  74.5278109  53.7750805  52.6154666  73.8083907
  54.6512352  51.9877696  73.6457557  53.8350128  53.9829821  73.5325149
  54.7547542  54.4296064  73.1547552  52.7112983  54.7765991  73.7426265
  52.7518606  55.8459048  73.5351651  51.5380093  54.2054745  74.2168232
  50.6574992  54.8264306  74.3817940  48.8273699  50.2884127  75.7692407
  48.7774219  50.6104053  76.9529446  47.8655250  49.5827950  75.1512318
  47.9741877  49.3146147  74.1835691  46.5855343  49.2937543  75.8153480
  46.3295165  50.2213575  76.3273113  45.5180910  49.0025928  74.7765826
  45.7557790  48.0717590  74.2616525  44.5491673  48.9087543  75.2669716
  45.4815791  49.8178490  74.0540014  46.6207475  48.1773403  76.8737840
  45.7858413  48.1702424  77.7838660  47.5866245  47.2624616  76.7622061
  48.2088908  47.3437619  75.9708312  47.6672354  46.0511568  77.5902927
  46.7740187  45.4458636  77.4357504  48.9149075  45.1991886  77.2211634
  48.9296700  44.2901559  77.8224462  48.8750870  44.9346515  76.1645014
  50.1975835  45.8642626  77.4374701  50.8707093  46.6453047  76.5369059
  50.4085498  46.7769871  75.5585562  52.0296744  47.1102135  77.0896090
  52.6950030  47.7155871  76.6303048  52.1441544  46.6246363  78.3691437
  53.1562072  46.8168707  79.3176578  54.0102116  47.4387586  79.0492727
  53.0063907  46.2047502  80.5343026  53.7681305  46.3391313  81.3022832
  51.8786445  45.3967018  80.8196661  51.7613051  44.9174577  81.7916003
  50.8847404  45.1907498  79.8641912  50.0717032  44.5051279  80.1029248
  51.0005282  45.8346162  78.6265643  47.5415302  46.2117016  79.1180337
  46.9068332  45.3752038  79.7614660  48.1120996  47.2741384  79.7122187
  48.9251566  48.3852265  79.1882097  48.2836349  49.2106696  78.8796747
  49.5198275  48.0505886  78.3382197  49.7682505  48.7258881  80.3748505
  50.2224788  49.7124822  80.2831571  50.5466043  47.9828184  80.5483850
  48.7506141  48.6943416  81.4630810  48.1190657  49.5820475  81.4280953
  49.1977016  48.6059435  82.4532316  47.9094311  47.4400593  81.1518193
  48.2730919  46.5293161  81.6276300  46.4555186  47.6910032  81.5733292
  46.1236633  47.5098327  82.7347565  45.6102389  48.1022550  80.6258692
  45.9510604  48.1735399  79.6777877  44.2378317  48.5382105  80.9062034
  44.0973425  48.6542910  81.9808602  43.9562421  49.8982923  80.2204331
  43.9652296  49.8037396  79.1345794  42.9825754  50.2657190  80.5445795
  44.9627248  50.9729505  80.5697627  44.7921566  51.7580533  81.7027751
  43.9166945  51.5993300  82.3324361  45.7229896  52.7386295  82.0384046
  45.5618863  53.3605328  82.9189628  46.8381053  52.9222206  81.2652854
  47.5766491  53.6733201  81.5454685  47.0285902  52.1525695  80.1251619
  47.9086186  52.3126019  79.5022334  46.0953010  51.1754008  79.7765571
  46.2490789  50.5685322  78.8842775  43.1820128  47.5259918  80.5043072
  41.9851299  47.8298011  80.5964829  43.5897095  46.3117140  80.1325293
  44.5724321  46.0815377  80.0954554  42.6182646  45.2933548  79.7044166
  41.8874730  45.7441340  79.0329698  43.3151570  44.1522124  78.9709399
  44.1181750  43.8613463  79.6481830  42.6107903  43.3268005  78.8676788
  43.9037214  44.4952149  77.5993345  43.4725324  45.5842566  76.8766408
  42.7019745  46.2227998  77.3086161  43.9926160  45.8759809  75.6325460
  43.6527846  46.7457026  75.0702287  44.9369229  45.0272688  75.0881001
  45.4772198  45.3011799  73.8648646  45.1301790  46.1060287  73.4732259
  45.3612748  43.9270405  75.7749313  46.1007128  43.2549480  75.3394735
  44.8524895  43.6706176  77.0169864  45.1923366  42.7986369  77.5757831
  41.8012404  44.7141408  80.8496125  40.6913420  44.1985099  80.6507875
  42.3884426  44.7556347  82.0366499  43.2763768  45.2281734  82.1281889
  41.8073718  44.1685948  83.2076472  40.7402925  44.0075277  83.0543552
  42.4665550  42.8235379  83.5000330  43.5422111  42.9982206  83.5234659
  42.1275050  42.5147613  84.4888718  42.1545936  41.7343047  82.4974158
  41.0775951  41.6253449  82.3697333  42.6081764  41.9995057  81.5424116
  42.7260616  40.4039763  82.9530074  43.9413394  40.2388895  83.0534678
  41.8497998  39.4540024  83.2566137  42.1767496  38.5496130  83.5652963
  40.8602367  39.6400389  83.1775147  42.0416780  45.0991170  84.3778874
  42.9121415  45.9816605  84.2993623  41.2538023  44.9270810  85.4609509
  40.0570915  44.0574051  85.5763293  40.3749082  43.0186217  85.6658941
  39.4414431  44.1728359  84.6842801  39.3716313  44.5590243  86.8133667
  38.8304957  43.7487882  87.3020270  38.6764554  45.3603207  86.5628553
  40.4821629  45.0661437  87.6694779  40.9796968  44.2450197  88.1855345
  40.1482336  45.8039380  88.3990328  41.4544037  45.7207755  86.6659929
  41.1726934  46.7467300  86.4290226  42.9050075  45.6951994  87.1952976
  43.5772983  44.6633446  87.0692712  43.3877397  46.8223878  87.7460444
  42.9248940  47.7048224  87.5811740  44.6598162  46.8298061  88.4801182
  45.4385072  46.4493267  87.8190773  45.0735946  48.2544261  88.9708916
  44.2630342  48.6556394  89.5792656  46.3492938  48.2208809  89.7882412
  47.1604716  47.8201861  89.1803471  46.6019477  49.2312002  90.1099884
  46.2043247  47.5870917  90.6631108  45.3118663  49.1707609  87.7417854
  44.3954321  49.2388459  87.1555988  45.6007877  50.1657613  88.0803091
  46.1070137  48.7523577  87.1247115  44.5413579  45.8017721  89.6070381
  43.5734821  45.8135426  90.3860932  45.4721882  44.8481900  89.6090770
  46.1675265  44.8462172  88.8765471  45.5395982  43.7971094  90.6386529
  44.5551706  43.6577499  91.0853973  45.9925476  42.4687152  90.0295006
  45.3604808  42.3086753  89.1560144  47.0325991  42.5525767  89.7142860
  45.8454224  41.2928115  90.9839044  45.8444813  41.4604349  92.2260761
  45.7688321  40.1673938  90.4710343  46.5478029  44.2616664  91.6714322
  47.7641747  44.0214826  91.5485000  46.0414107  44.9468854  92.6895731
  45.0499101  45.1335130  92.7364360  46.8940952  45.5079411  93.7147070
  47.6476497  46.1330716  93.2356803  46.0729828  46.3724161  94.6554555
  45.3198548  45.7586004  95.1495491  46.7273100  46.8173195  95.4051335
  45.5816295  47.1626468  94.0878230  47.6393320  44.4124965  94.4870193
  48.6865552  44.7002250  95.0410897  47.1297274  43.1696935  94.5020472
  46.2297880  42.9912763  94.0797018  47.8108931  42.0604022  95.1867458
  48.2657187  42.4509126  96.0970944  46.8756957  40.8816302  95.5429257
  46.4906419  40.4449915  94.6214157  47.6490531  39.7905712  96.3527612
  48.0340358  40.2263755  97.2746959  46.9738498  38.9695516  96.5938585
  48.4792141  39.4140365  95.7551380  45.6883037  41.3864303  96.3702359
  45.0634181  41.9892539  95.7112803  45.1273519  40.5133333  96.7036039
  46.1029856  42.2231294  97.5879717  46.6636230  43.0967098  97.2553414
  45.2127438  42.5470382  98.1270930  46.7275591  41.6207894  98.2476642
  48.9720957  41.5651256  94.3228102  50.1205079  41.6111003  94.7445291
  48.6832322  41.1368594  93.0995756  47.7245734  41.0762989  92.7874778
  49.7331083  40.6755051  92.2001901  50.2221637  39.7958984  92.6187782
  49.1389812  40.3045641  90.8468709  48.2755046  39.6681699  91.0405453
  48.8086700  41.2314615  90.3779833  50.1080392  39.5780903  89.9125838
  50.8232174  40.3037569  89.5252481  50.6374071  38.8183071  90.4875630
  49.3666032  38.9087557  88.7362234  49.0688672  37.9082893  89.0501010
  48.4774286  39.4999515  88.5172359  50.2324267  38.8118804  87.4858611
  49.6886386  38.3039597  86.6893615  50.5218477  39.8075790  87.1498269
  51.4424157  38.0368244  87.8272875  51.1744739  37.1140075  88.1382793
  52.0334992  37.9589502  87.0120232  51.9466721  38.5075263  88.5650301
  50.8525444  41.7154529  92.0189929  52.0205250  41.3448636  91.9665425
  50.5135100  43.0047710  91.9337495  49.5382859  43.2666553  91.9550565
  51.5174364  44.0609426  91.6861949  52.3900039  43.6360552  91.1900137
  50.9190213  45.1645406  90.7769414  50.0072170  45.4142851  91.3194724
  51.5808890  46.0304511  90.7617713  50.5603335  44.7615834  89.3196256
  49.8275723  43.9563369  89.3719706  49.9828865  45.9306380  88.4861729
  50.7153112  46.7361342  88.4329883  49.7539248  45.5813863  87.4793460
  49.0721145  46.2989996  88.9583007  51.7390725  44.1233281  88.5913903
  52.0521589  43.2249454  89.1233536  51.4400850  43.8587589  87.5771365
  52.5684092  44.8295822  88.5525997  52.1031653  44.6524369  92.9899688
  52.9439218  45.5661291  92.9717202  51.6496014  44.1300363  94.1205095
  50.9103021  43.4428605  94.0841034  52.1117005  44.5790892  95.4276212
  51.5099771  44.1230314  96.2137760  53.5821263  44.1715528  95.6344520
  53.6877938  43.1146163  95.3898733  54.2018856  44.7635223  94.9609755
  54.0679334  44.3922735  97.0653188  53.2718795  44.5374523  97.9987095
  55.3879603  44.4154615  97.2392452  55.7700694  44.5577999  98.1632756
  56.0009870  44.2906024  96.4463333  51.9221394  46.0857525  95.6288805
  52.8887180  46.8065726  95.8998570  50.6707513  46.5410527  95.4984834
  49.9539186  45.8872434  95.2177992  50.2962757  47.9546451  95.6748539
  51.1739995  48.5421573  95.9441673  49.7119650  48.5150198  94.3630169
  48.7168884  48.0706262  94.3421344  49.6249115  49.5937503  94.4928709
  50.4358613  48.2146635  93.0373008  50.6206284  47.1433483  92.9582712
  49.5510925  48.6756445  91.8488002  49.3662669  49.7470172  91.9268950
  50.0630547  48.4632531  90.9102453  48.6015704  48.1409372  91.8732185
  51.7878188  48.8607828  92.9582945  52.4142860  48.4943685  93.7715465
  52.2528948  48.6158615  92.0034024  51.6797673  49.9421430  93.0424617
  49.2871301  48.1193452  96.8521644  48.0680122  48.2523375  96.6122902
  49.7804690  48.0856841  98.1178490  51.2123440  48.0177214  98.4775671
  51.6454470  49.0164787  98.4227409  51.7286081  47.3595269  97.7787465
  51.1993289  47.4735294  99.8690407  52.0585754  47.8666994 100.4123746
  51.2637137  46.3862786  99.8261244  49.8959892  47.9132563 100.5026020
  50.0079355  48.8401369 101.0651492  49.5265310  47.1297019 101.1641478
  48.9079336  48.1248435  99.3322833  48.2164808  47.2876898  99.2365497
  48.1119959  49.4246922  99.5487791  47.1095166  49.4326287 100.2678683
  48.5905914  50.5082748  98.9473756  49.4781818  50.4396384  98.4703310
  47.9430597  51.8046537  99.0120174  47.2816902  51.8579227  99.8768018
  49.0148376  52.8960820  99.1459955  48.5197964  53.8600992  99.0289300
  49.4358200  52.8238133 100.1488170  50.1540676  52.7678960  98.0955345
  50.2535629  51.7309582  97.3713372  50.9641235  53.7233379  97.9944099
  47.0236497  52.0692727  97.7969281  46.3126365  53.0684847  97.7857610
  47.0294760  51.1860374  96.7921035  47.6096416  50.3614199  96.8513765
  46.2942988  51.4421590  95.5228749  46.6736735  52.3670779  95.0884798
  46.4496605  50.2896571  94.4651198  47.4842897  49.9714057  94.3372224
  45.8641495  49.4652473  94.8720907  45.8746878  50.7029140  93.1145765
  44.5518504  50.3592688  92.7777230  43.9954902  49.7306371  93.4729819
  43.9565902  50.7916401  91.6112967  42.9226030  50.5224383  91.3956518
  44.6808705  51.6138124  90.7052990  44.0488319  52.0081693  89.5263724
  43.1543621  51.6683699  89.4485275  46.0067401  51.9754214  91.0046011
  46.5867789  52.5966456  90.3221527  46.5943354  51.5137177  92.2298225
  47.6166791  51.7939923  92.4835143  44.8105552  51.7357570  95.8010819
  44.2483142  52.7707487  95.3756255  44.1750919  50.8515951  96.5463598
  44.6354278  50.0073362  96.8552563  42.7313970  50.9765421  96.7671476
  42.2454219  51.3428123  95.8628393  42.1378650  49.6156230  97.1229537
  42.8077057  49.1465133  97.8436123  41.1306805  49.6574684  97.5375961
  42.0758856  48.7042148  95.9408337  41.2481177  48.9493261  94.8653516
  41.4202950  48.0040956  93.9585726  40.8350481  48.0043514  93.0390156
  42.3539322  47.1743070  94.3924277  42.6991614  46.3606447  93.9036840
  42.7871199  47.5949741  95.6256518  43.5691849  47.0423242  96.1462800
  42.3159020  52.0896923  97.7399608  41.1576934  52.4741776  97.7566004
  43.2557919  52.6472511  98.5002741  44.1492550  52.1920203  98.6210542
  42.9408838  53.8004500  99.3535825  41.8592030  53.8586800  99.4747233
  43.5978922  53.7054651 100.7694793  43.5509974  54.7172282 101.1722642
  42.9390044  53.0550451 101.3447365  45.0369512  53.1852165 100.8619376
  45.0927411  52.2642438 100.2815949  45.6885287  53.9359060 100.4147084
  45.4964057  52.9046258 102.3292251  46.4417465  53.4256502 102.4807621
  44.7407407  53.3233763 102.9938437  45.6810673  51.4004276 102.6415930
  44.7359624  50.8787828 102.4907150  46.4369699  50.9810575 101.9776358
  46.1118913  51.2392265 104.0377677  45.4113921  51.6273746 104.6531876
  46.2324267  50.2573919 104.2416599  46.9878461  51.7221625 104.1776783
  43.2003789  55.1303825  98.6158861  42.5774567  56.1462721  98.9253650
  44.0723795  55.1091381  97.6050981  44.5888094  54.2602312  97.4241101
  44.3491747  56.2939211  96.7588046  44.2451735  57.1989127  97.3573637
  45.7833207  56.2344181  96.1528559  45.9267436  55.2542549  95.6980919
  45.9833479  57.2945158  95.1222658  45.8405346  58.2750508  95.5764200
  46.9939647  57.2247475  94.7199141  45.2618887  57.1593437  94.3164592
  46.8327584  56.4107677  97.2659181  46.7331842  57.4291656  97.6414863
  46.5809381  55.7056820  98.0580924  48.2571387  56.1765245  96.8173908
  48.5098543  56.8815983  96.0254907  48.9325280  56.3207075  97.6606937
  48.3576074  55.1581147  96.4420944  43.3364337  56.4262636  95.6206714
  42.9420288  57.5374426  95.2421781  42.9441243  55.2770253  95.0744539
  43.3053341  54.4149477  95.4571405  42.0519064  55.2022050  93.9248438
  41.8169653  56.1755773  93.4942069  42.6371793  54.2989031  92.8476798
  42.9125110  53.3484538  93.3047781  41.6250764  54.0485601  91.7124348
  41.3496037  54.9985739  91.2545166  42.0748114  53.4002206  90.9604408
  40.7340704  53.5696013  92.1183978  43.9703656  54.8782472  92.3365870
  44.6843192  54.7282512  93.1464464  44.2517572  54.2582800  91.4853768
  43.9754479  56.3790328  91.9106427  43.6945841  56.9996977  92.7615190
  44.9732927  56.6577461  91.5719335  43.2620199  56.5297269  91.1004504
  40.6969790  54.6750912  94.4365046  40.5659864  53.4800000  94.7780483
  39.7186835  55.5843944  94.5308578  39.9191211  56.5573482  94.3484161
  38.3901106  55.2322733  95.0426368  38.4816095  54.4238765  95.7680483
  37.7232735  56.4420297  95.7333376  38.2418816  57.3343219  95.3826817
  36.6868334  56.4690148  95.3969396  37.7625534  56.3970667  97.2887094
  37.3160396  57.3231787  97.6507078  37.1505622  55.5518678  97.6036820
  39.1805535  56.2491251  97.8714340  39.5340789  55.2430570  97.6457227
  39.8243249  56.9786609  97.3800732  39.2167867  56.4745812  99.3840247
  40.2221795  56.8024893  99.6481498  38.5037370  57.2643614  99.6204704
  38.8760105  55.2529791 100.1564617  39.5368768  54.5211610  99.9378348
  38.9151237  55.4577332 101.1447157  37.9442641  54.9492121  99.9121805
  37.4723478  54.5974361  93.9695226  36.5865656  53.8280177  94.2987628
  37.6976730  54.8821622  92.6904492  38.4489552  55.4970150  92.4118267
  36.8709238  54.2814861  91.6463788  36.1680309  53.5797284  92.0953519
  36.0806287  55.3498728  90.8945268  36.8072494  56.0098590  90.4206705
  35.4473290  54.8992441  90.1303506  35.2327311  56.1523481  91.7963961
  35.4404815  57.3575846  91.9511852  34.2898862  55.4916920  92.4490797
  33.6769482  55.9859028  93.0816636  34.1876179  54.4963327  92.3115950
  37.7474504  53.5858925  90.6599537  38.0123274  54.1465054  89.5961293
  38.2299983  52.3806052  90.9902659  37.9411663  51.5556811  92.1795006
  36.9140992  51.1934504  92.1345293  38.0763511  52.1521160  93.0817697
  38.9464068  50.4503166  92.0695609  38.5738633  49.5498465  92.5578887
  39.8886939  50.7488156  92.5290114  39.1149083  50.2408026  90.5701836
  38.3182275  49.5873971  90.2145715  40.0810606  49.8178093  90.2949999
  38.9609233  51.6235614  89.9580801  39.9030664  52.1393863  89.7726366
  38.1814195  51.4972866  88.6447601  36.9619292  51.3298206  88.6653157
  38.8792876  51.5532417  87.5142637  39.8560058  51.8101821  87.5243839
  38.2323374  51.3374393  86.2201622  37.4726517  50.5614630  86.3141705
  37.5622178  52.6198168  85.7305768  36.9597112  52.9890893  86.5604701
  38.3650192  53.3270545  85.5221910  36.6771736  52.4678475  84.4832039
  36.1413718  53.4074818  84.3486501  37.3393283  52.3028386  83.6332479
  35.4733943  51.0993531  84.5805244  34.5815697  51.5888974  86.0764961
  34.1306050  52.5698556  85.9266594  33.8004115  50.8591898  86.2896144
  35.2756052  51.6330174  86.9158229  39.2644820  50.8057925  85.2360798
  40.4582811  51.0903832  85.3686770  38.8060718  49.9724628  84.3041105
  37.8254890  49.7305594  84.3103896  39.6502710  49.3936041  83.2773134
  40.4888218  50.0573227  83.0665779  40.2000222  48.0450165  83.7461706
  40.9493201  47.6863369  83.0404789  40.6673684  48.2158413  84.7159678
  39.1115032  47.0148564  83.8885563  38.3738064  47.0681504  84.9080784
  38.9750517  46.1800180  82.9646068  38.8183691  49.1998228  82.0320986
  37.5954634  49.2614100  82.0812365  39.4822259  48.9239143  80.9190008
  40.4896896  48.8560560  80.9416157  38.8044317  48.7736604  79.6280675
  38.0544593  49.5568091  79.5170781  39.8033599  48.8813017  78.4637872
  40.7819295  48.6133115  78.8621363  39.5005560  48.1448587  77.7194341
  39.8777371  50.2301075  77.8274376  38.8655896  50.6346534  77.8264738
  40.5135509  50.8448328  78.4645842  40.5307719  50.2520052  76.1337201
  42.1168462  49.4666167  76.4121068  41.9615847  48.4663939  76.8165164
  42.6587007  49.3965438  75.4689291  42.6965659  50.0584185  77.1204831
  38.0293509  47.4656576  79.4822434  37.0341074  47.4275704  78.7737212
  38.5061164  46.3956449  80.1028112  39.4195702  46.4283504  80.5324994
  37.7413271  45.1462526  80.1885382  37.6204544  44.7122545  79.1959987
  38.2561812  44.4355693  80.8350318  36.3749877  45.4381947  80.7677793
  35.3422674  45.0616379  80.1975786  36.3658556  46.1608054  81.8845717
  37.2362488  46.3953754  82.3400846  35.1147359  46.5021146  82.5616305
  34.5462107  45.5828880  82.7027006  35.3523411  47.1486014  83.9360349
  35.9901816  48.0214971  83.7970644  34.0063429  47.5870904  84.6192724
  33.3681255  46.7145919  84.7590022  34.2202950  48.0389656  85.5878448
  33.4959123  48.3122107  83.9854256  35.9816210  46.1766569  84.7708992
  36.1419182  46.5555400  85.6382819  34.2210270  47.3402155  81.6892669
  33.0194884  47.1160162  81.6490601  34.8031307  48.3075811  80.9882710
  35.7900928  48.4903700  81.1004905  34.0384515  49.1605921  80.0762842
  33.1620722  49.5837157  80.5672270  34.8943537  50.2905053  79.4981649
  35.8246216  49.8757317  79.1100090  34.1416931  50.9846142  78.3745472
  33.2114641  51.4000734  78.7620627  34.7557641  51.7877231  77.9670749
  33.9173915  50.2644607  77.5876756  35.3125507  51.2803414  80.6103275
  34.3952790  51.7506327  80.9646429  35.7447302  50.6795110  81.4105295
  36.3395428  52.3937047  80.1767432  35.9078546  52.9952769  79.3768331
  36.5649857  53.0330373  81.0302820  37.2573055  51.9241546  79.8227174
  33.4316139  48.3995034  78.9169373  32.2963038  48.6760518  78.5082262
  34.2227463  47.4911571  78.3505290  35.1643805  47.3770811  78.6975320
  33.8090075  46.6942970  77.2308593  33.4759089  47.3370976  76.4160269
  34.9843481  45.8427650  76.7343448  35.8103721  46.5391706  76.5901129
  35.2209995  45.1638757  77.5536160  34.7635223  45.0251467  75.4322069
  34.0063365  44.2632250  75.6172633  34.4174929  45.6973606  74.6470355
  36.0965712  44.3372067  74.9802430  36.7878139  45.1501738  74.7580562
  36.4533787  43.7849806  75.8496303  36.0129078  43.3870783  73.7663183
  35.3176587  42.5873549  74.0216057  35.6159719  43.9589115  72.9275407
  37.3755342  42.7779440  73.3742279  37.7433155  42.2476719  74.1511759
  37.2552557  42.1687196  72.5776862  38.0197864  43.5187996  73.1372235
  32.6093668  45.7949215  77.6288529  31.6340547  45.7186867  76.8970602
  32.7279085  45.1221724  78.7786988  33.6234698  45.1769697  79.2424515
  31.6687620  44.2962825  79.3955947  31.4042461  43.4620734  78.7458057
  32.1934772  43.7335015  80.7303354  33.2353069  43.4723869  80.5445689
  32.1477087  44.5655027  81.4330297  31.4575234  42.5169088  81.3262601
  30.5821582  42.3435961  80.7003213  32.1369857  41.6687048  81.2426956
  31.0042971  42.6819990  82.8309534  29.9445599  42.9316890  82.7788847
  31.1224780  41.6912599  83.2697799  31.7535800  43.7484661  83.7278514
  31.7102902  44.6847319  83.1714048  31.1594282  43.8390426  84.6371802
  33.1846134  43.4461493  84.0912328  33.7354256  43.3626058  83.2487804
  33.5524946  44.1944109  84.6612047  33.2248998  42.5788388  84.6072258
  30.3987994  45.1478267  79.6265613  29.2985744  44.7653802  79.2482445
  30.5730750  46.3213452  80.2177315  31.4883442  46.5684778  80.5660233
  29.4606303  47.2477599  80.4647452  28.7044708  46.7568928  81.0774209
  29.9469127  48.4986442  81.1977438  30.8618244  48.8361869  80.7108139
  29.1781531  49.2647108  81.0964989  30.2149889  48.2530124  82.6409227
  29.2920640  47.9126148  83.1104329  30.9728536  47.4739655  82.7235612
  30.7030517  49.5085732  83.3377418  31.7302234  49.7395430  83.0554828
  30.0629068  50.3597523  83.1057759  30.6568350  49.2684774  84.7664188
  30.4646612  48.3164814  85.0436770  30.8317376  50.1781600  85.7112218
  31.0845373  51.4547326  85.4302901  31.1478739  51.7538281  84.4676736
  31.2118245  52.1182273  86.1810713  30.7604376  49.7848806  86.9629197
  30.5770275  48.8144679  87.1744852  30.8893714  50.4548211  87.7076710
  28.7247370  47.6398556  79.1822663  27.4960329  47.6398966  79.1548376
  29.4708685  47.9687874  78.1374402  30.4670353  48.0981032  78.2424562
  28.8746806  48.2199866  76.8292789  28.1431705  49.0235368  76.9147151
  29.9309634  48.6280875  75.8020987  30.7346573  47.9061484  75.9469403
  29.5417204  48.5390669  74.7878673  30.4709576  50.0408623  76.0177807
  30.6726012  50.1815238  77.0796917  31.7713040  50.2615751  75.2134113
  31.5703374  50.1215289  74.1512916  32.1366151  51.2744229  75.3830810
  32.5257384  49.5447200  75.5375222  29.3459084  51.0398152  75.6437747
  28.4781929  50.8654447  76.2799855  29.7022967  52.0597893  75.7877940
  29.0651149  50.8975501  74.6002161  28.1031027  47.0018632  76.3238196
  26.9974044  47.1612887  75.8748922  28.6677356  45.7983847  76.4272799
  29.6070246  45.6996587  76.7851749  27.9861662  44.6086083  75.9417439
  27.6325518  44.7819948  74.9253812  28.9255828  43.3962377  75.9336957
  29.3723561  43.3184976  76.9248815  28.3202354  42.5111297  75.7381491
  30.0463871  43.5004343  74.8691367  29.6194990  43.2049524  73.9107225
  30.3390195  44.5496101  74.8279582  31.2847382  42.6334858  75.1686543
  32.2097460  42.6071497  74.3187460  31.3511235  41.9901222  76.2449936
  26.7264886  44.2983099  76.7377786  25.7970096  43.7628252  76.1788986
  26.7008267  44.6495359  78.0256008  27.5108612  45.1013438  78.4253669
  25.5575036  44.3729035  78.8996241  25.0163866  43.5065983  78.5190890
  26.0077703  44.0762915  80.3564282  26.6138459  44.9086111  80.7142211
  25.1112072  43.9901172  80.9703082  26.8279983  42.7727852  80.4940590
  27.7109328  42.6675615  81.3565314  26.5265845  41.7899617  79.6613557
  27.0331145  40.9175310  79.7102623  25.7913321  41.9165982  78.9805709
  24.5715220  45.5349419  78.9243867  23.6428288  45.5159159  79.7164529
  24.7701273  46.5483949  78.0792696  25.5644717  46.5129694  77.4564844
  23.9389131  47.7928698  78.0990033  24.4281866  48.5695365  77.5112114
  22.5433434  47.5289802  77.5016847  22.6357796  46.9109160  76.6086273
  21.9668482  46.9930844  78.2557199  21.7945984  48.8105448  77.1336657
  20.5592123  48.8232385  77.0215006  22.5273255  49.8843584  76.9800777
  22.0884926  50.7608846  76.7367109  23.5280845  49.8313361  77.1056597
  23.8426184  48.4140020  79.4873373  22.7678464  48.8139734  79.9444182
  24.9836977  48.4570661  80.1759565  25.8143723  48.0427094  79.7779770
  25.0831992  49.0779896  81.4916420  24.3490998  48.6430949  82.1699220
  26.4841497  48.8416786  82.0688768  26.5477192  47.7677495  82.2441895
  27.2150907  49.1298585  81.3133786  26.7722333  49.5789931  83.3543810
  27.2978627  50.8646070  83.3400092  27.5059738  51.3411574  82.3820483
  27.5582509  51.5420504  84.5233204  27.9578627  52.5560548  84.5089258
  27.3133884  50.9133135  85.7284691  27.5677523  51.5621874  86.9051099
  27.9139801  52.4484380  86.7774942  26.8042781  49.6341410  85.7634474
  26.6011208  49.1434834  86.7153312  26.5510249  48.9724315  84.5772142
  26.1690899  47.9516644  84.5933486  24.8335829  50.5950424  81.4194504
  24.1871462  51.1796476  82.3149846  25.3633698  51.2248959  80.3626588
  25.8330498  50.6995119  79.6391454  25.3618934  52.6682182  80.2707594
  25.4870691  53.0871143  81.2692363  26.4981030  53.1946481  79.3691934
  26.3363021  52.7730308  78.3771458  26.4020157  54.2793996  79.3224867
  27.8947596  52.8295265  79.8539165  28.4431328  53.4493523  80.9606450
  27.8533000  54.2026411  81.4829023  29.7008746  53.1346776  81.4048368
  30.1163119  53.6465215  82.2728975  30.4437462  52.1954499  80.7445815
  31.6831249  51.8866683  81.2116002  31.9228382  52.3843012  81.9967745
  29.9369775  51.5448673  79.6272182  30.5219825  50.7945044  79.0954053
  28.6649825  51.8650139  79.1924022  28.2448371  51.3637981  78.3204156
  24.0215648  53.1671848  79.7911004  23.3570430  52.5436365  78.9840661
  23.6447807  54.3135264  80.3290862  24.1648762  54.6946967  81.1064594
  22.4805857  55.0246062  79.8734059  21.7387957  54.3358193  79.4691543
  21.8718525  55.7527734  81.0566854  22.6357949  56.2950757  81.6138204
  21.0854202  56.4436128  80.7527690  21.2533869  54.7972541  82.0054361
  21.8081966  54.2837294  83.1405593  22.8178523  54.6103336  83.3896070
  20.9231618  53.4234172  83.7491358  21.0857709  52.9336474  84.6173428
  19.7714904  53.3612161  83.0010811  18.5899341  52.6471912  83.2164300
  18.5266159  52.0059403  84.0955697  17.5690211  52.7999674  82.2949940
  16.6318564  52.2606375  82.4326374  17.7134815  53.6389268  81.1799338
  16.9129227  53.7489438  80.4484276  18.8943131  54.3608655  80.9749698
  18.9447133  55.0294412  80.1155705  19.9426680  54.2177540  81.8925929
  22.7892289  56.0136845  78.7526613  21.8771409  56.4410051  78.0485765
  24.0568394  56.4161860  78.6251067  24.7524596  56.0630859  79.2666145
  24.4788474  57.3836153  77.6036887  23.9104716  57.2170657  76.6886425
  24.2409210  58.8208471  78.0723972  24.4200326  59.4913541  77.2318982
  23.2032742  58.9110305  78.3937321  25.1036913  59.1705905  79.1506481
  24.9290158  60.0754195  79.4196700  25.9449194  57.2072877  77.2686805
  26.6974934  56.6287728  78.0641412  26.3472401  57.7077292  76.0973729
  25.6606599  58.0652547  75.4486183  27.7537256  57.7045697  75.6882550
  28.1247722  56.6796823  75.6828455  27.9101313  58.2884756  74.2830723
  27.5511946  59.3176472  74.2746899  28.9613770  58.2685101  73.9956979
  27.3294293  57.6959323  73.5761234  28.5958134  58.4867752  76.6938571
  29.7102778  58.0694253  77.0231428  28.0563645  59.6111267  77.1984418
  27.1847845  59.9689195  76.8345299  28.7840365  60.4222096  78.2043851
  29.7666175  60.6957327  77.8199129  28.0033113  61.7094326  78.5180363
  28.5251231  62.2591933  79.3013465  27.9518348  62.3217220  77.6177298
  26.6997613  61.4009471  78.9504505  26.2255516  62.2133496  79.1420941
  29.1055276  59.6101658  79.4717534  30.1726626  59.7887964  80.0982197
  28.2057040  58.6899800  79.8368131  27.3119441  58.6351800  79.3695985
  28.4332815  57.8383072  80.9845413  28.7259796  58.4680685  81.8246768
  27.1821194  57.0041908  81.3990210  26.3047163  57.6508375  81.4095619
  27.0308526  56.1990988  80.6799625  27.3946994  56.4070798  82.7987082
  28.3044357  55.8097681  82.7378857  27.5652816  57.2623907  83.4525003
  26.2748378  55.5623891  83.3574216  25.2277050  55.4604614  82.7092391
  26.5033702  54.9965589  84.4754494  29.6415854  56.9430374  80.7505271
  30.4172899  56.7123396  81.6556841  29.7827799  56.4308678  79.5400701
  29.0658271  56.6136437  78.8525594  30.9183167  55.6077046  79.1507930
  31.0586939  54.7929848  79.8611627  30.6579264  55.0120774  77.7714764
  29.7121303  54.4704141  77.7845024  30.6064844  55.8142960  77.0353384
  31.8742536  53.8655537  77.1668465  31.2704742  53.6209731  76.0073082
  32.1985921  56.4446188  79.1092564  33.2495907  56.0517635  79.6266195
  32.0967949  57.5992585  78.4783884  31.2663368  57.8168045  77.9463052
  33.2092252  58.5492475  78.4472989  34.0441815  58.1184067  77.8947382
  32.7936875  59.8436029  77.7680835  31.8786707  60.1888030  78.2494153
  33.5876961  60.5717745  77.9336628  32.5489077  59.6852049  76.2510789
  33.5243163  59.6425734  75.7664538  32.0281520  58.7392945  76.1021862
  31.5825100  61.0138069  75.5189722  32.5724782  62.3359374  76.0239673
  33.5749155  62.2178035  75.6125517  32.1412540  63.2708432  75.6660603
  32.6269160  62.3547398  77.1124453  33.7575102  58.8078218  79.8557016
  34.9594249  58.8976452  80.0555359  32.8720717  58.9031871  80.8286148
  31.8843025  58.8798856  80.6191671  33.2774513  59.1084692  82.2027537
  33.8839190  60.0102687  82.2867400  32.0451259  59.2684803  83.0785051
  31.5280172  60.1701671  82.7503913  31.4080274  58.4012939  82.9047430
  32.3586116  59.3761615  84.5562374  31.4237819  59.3517393  85.1162355
  32.9995519  58.5578286  84.8843057  33.0485732  60.6629808  84.8390834
  32.3786157  61.6828407  84.9866428  34.4173714  60.6499794  84.8906918
  34.9206638  61.5048583  85.0803765  34.9172115  59.7855724  84.7388306
  34.1554666  57.9886449  82.7463838  35.1161476  58.2234429  83.5135688
  33.7922550  56.7546380  82.4116222  32.9232773  56.5833858  81.9261845
  34.5937798  55.5990831  82.8324129  34.7834054  55.6520845  83.9044820
  33.8565386  54.3004695  82.5321446  33.3434190  54.4324284  81.5795721
  34.5825021  53.4921651  82.4442758  32.8464496  53.9564520  83.6054815
  32.8830883  54.6186573  84.6819474  32.0459007  53.0217924  83.3742393
  35.9893471  55.5923929  82.2085618  36.9568166  55.2503725  82.8665297
  36.0930592  56.0075146  80.9530731  35.2655208  56.2008847  80.4072823
  37.3883604  56.1490214  80.3129016  37.9413301  55.2128826  80.3901531
  37.2240244  56.4955718  78.8440632  36.3484949  57.1216520  78.6721008
  38.1189916  57.0262409  78.5192185  37.0823037  55.3044771  77.9461663
  35.8873190  55.0346786  77.3040843  35.0243761  55.6731372  77.4932931
  35.7803407  53.9702714  76.4315695  34.8359136  53.7977331  75.9154410
  36.8470446  53.1330172  76.2103861  36.7519358  52.2799652  75.5385553
  38.0620610  53.3827275  76.8555008  38.9202395  52.7298595  76.6961484
  38.1691608  54.4751266  77.7062110  39.1175892  54.6923547  78.1975309
  38.2258965  57.2168725  81.0063311  39.4026284  56.9742111  81.2999556
  37.6267504  58.3824649  81.2610669  36.6884409  58.5456547  80.9248473
  38.3012961  59.4595519  81.9826892  39.1769878  59.7796814  81.4180829
  37.3849556  60.6550241  82.1761477  36.3581947  60.2955573  82.2443018
  37.6565150  61.1557086  83.1054865  37.4729294  61.6560117  81.0437341
  37.9849830  61.3596485  79.9570069  36.9703981  62.8638880  81.2932115
  36.9985851  63.5767330  80.5782588  36.5634153  63.0615068  82.1962135
  38.8010715  59.0111167  83.3393854  39.9178405  59.3614265  83.7233177
  37.9628003  58.2871769  84.0781185  37.0253819  58.1228712  83.7399621
  38.3438729  57.7191135  85.3793197  38.6429085  58.5171720  86.0588633
  37.1893913  56.9324959  86.0228032  36.8511597  56.1700340  85.3211256
  37.6464279  56.2548100  87.3418762  37.9843877  57.0167330  88.0442694
  36.8116597  55.7051369  87.7767562  38.4647216  55.5658715  87.1324489
  36.1307668  57.8631353  86.2723757  35.3900639  57.4045802  86.6757202
  39.5266043  56.7684786  85.2505184  40.4931979  56.8569112  86.0181468
  39.4467907  55.8699725  84.2733093  38.6088407  55.8146171  83.7121721
  40.5230990  54.9328181  83.9986402  40.6146153  54.2127037  84.8117572
  40.2210946  54.1760649  82.7089709  39.2045005  53.7900472  82.7839782
  40.2784474  54.8898188  81.8871644  41.1725872  53.0370643  82.4516277
  42.1730208  53.4694200  82.4342506  41.0834630  52.3628466  83.3034430
  40.9078865  52.1300315  80.9650690  41.3842533  53.3220644  79.7019438
  42.4262141  53.6078964  79.8458771  41.2637565  52.8745306  78.7153868
  40.7515150  54.2062637  79.7789837  41.8802687  55.6568011  83.8694236
  42.8763076  55.2965281  84.4947627  41.9136851  56.6696790  83.0254456
  41.0807408  56.9219324  82.5129309  43.1413202  57.4208985  82.7662869
  43.9617225  56.7425349  82.5320603  42.9168254  58.3493325  81.5688473
  42.0330127  58.9624635  81.7450426  43.7799070  58.9950244  81.4067608
  42.6801591  57.6136283  80.2758824  43.5445273  56.5930651  79.8702997
  44.4016662  56.3543626  80.4999296  43.3298022  55.8873695  78.6911946
  44.0001550  55.0806382  78.3946943  42.2526701  56.2188909  77.8926959
  42.0733827  55.6737947  76.9659672  41.3828550  57.2648726  78.2770836
  40.5346017  57.5294664  77.6457701  41.6083105  57.9505943  79.4518408
  40.9449562  58.7648281  79.7435330  43.6003796  58.2358138  83.9709804
  44.7867253  58.2301021  84.3421963  42.6450383  58.9167755  84.5906861
  41.7130166  58.9097256  84.2016036  42.9004927  59.7523597  85.7616634
  43.6796254  60.4805831  85.5364033  41.5874065  60.5311482  86.1889282
  40.7843195  59.8074213  86.3281080  41.7995474  61.3047906  87.4770771
  42.6022303  62.0290850  87.3385224  40.8808802  61.8277332  87.7429355
  42.0681272  60.6140346  88.2763402  41.2196070  61.4603209  85.1390393
  40.4245409  61.9336928  85.3947526  43.4521211  58.9269335  86.8994875
  44.3694711  59.3645525  87.5971955  42.8922863  57.7478424  87.1315032
  42.0785133  57.4338141  86.6223283  43.4294484  56.8798441  88.1936811
  43.2840683  57.3608914  89.1609232  42.7278530  55.5219237  88.2131268
  42.7677222  55.1407246  87.1927362  43.2462193  54.8317713  88.8787739
  41.2673906  55.6100581  88.6437567  40.8374931  56.6174883  89.2092667
  40.5183852  54.5271428  88.4231680  39.5437414  54.5284889  88.6880594
  40.9298181  53.7115039  87.9924047  44.9279630  56.6500884  88.0574565
  45.6717874  56.7097699  89.0212435  45.3345351  56.3640204  86.8298583
  44.6260473  56.1949630  86.1301698  46.7255444  56.1723220  86.4611703
  47.1841694  55.3712609  87.0408800  46.7520141  55.7786823  84.9688429
  46.1431425  54.8881542  84.8128480  46.3588643  56.5971921  84.3658712
  48.2900288  55.4174380  84.3298873  47.8688226  55.1482652  83.0973981
  47.6008365  57.4147869  86.7896922  48.6805677  57.2485242  87.3892515
  47.1282422  58.6362452  86.4413960  46.2882244  58.6948242  85.8836883
  47.8275420  59.8903965  86.7881138  48.8749791  59.8044451  86.4989995
  47.2157920  61.1143016  86.0697382  46.2673639  61.3647645  86.5449767
  47.9234940  61.9295246  86.2203019  46.9953589  60.9028923  84.5775940
  47.9037250  60.1741734  83.8242224  48.7841196  59.7575611  84.3135475
  47.7053488  59.9735411  82.4740830  48.4398839  59.4174462  81.8915725
  46.5835254  60.4681387  81.8672137  46.4092747  60.2523764  80.5325027
  47.1262504  59.7514412  80.1367636  45.6452889  61.1808379  82.5999908
  44.7445285  61.5678209  82.1235717  45.8606168  61.3966634  83.9378093
  45.1362215  61.9643967  84.5217874  47.8351047  60.1517586  88.3117846
  48.7589639  60.7448124  88.8195644  46.8151669  59.7104750  89.0419885
  46.0516500  59.2174285  88.6014816  46.7536797  59.9373978  90.5014796
  47.0613677  60.9565338  90.7355499  45.3292798  59.6682301  91.1082108
  44.9973544  58.6700209  90.8227210  45.3912346  59.7689151  92.6472888
  45.7226618  60.7670627  92.9335721  44.4017158  59.5816707  93.0642932
  46.0931380  59.0292118  93.0323470  44.2907128  60.6365927  90.5387053
  44.5487732  61.6290409  90.9082350  44.3992489  60.6136387  89.4543656
  42.8255720  60.3102323  90.9173243  42.7161441  60.3334553  92.0015688
  42.1608710  61.0490681  90.4696711  42.5666205  59.3180515  90.5477011
  47.7559736  59.0144200  91.1888048  48.4993815  59.4404097  92.0743794
  47.7478239  57.7345568  90.7951340  47.1237556  57.4121484  90.0693992
  48.5892388  56.7523611  91.4706193  48.5472405  56.9314668  92.5449826
  48.1402610  55.3141238  91.1963398  47.0760390  55.2926185  91.4310061
  48.2874517  55.0349257  90.1530357  48.8620423  54.3501681  92.0749041
  48.5668939  54.2787423  93.4230550  47.7712718  54.9131626  93.8136902
  49.2472309  53.4367158  94.2638748  48.9926586  53.3936974  95.3228574
  50.2637591  52.6540225  93.7687196  50.9223090  51.8148401  94.6390730
  50.5872451  51.8679317  95.5371338  50.5955768  52.7109780  92.4188444
  51.3971900  52.0915086  92.0166326  49.8968824  53.5645075  91.5852141
  50.1559221  53.6271142  90.5282945  50.0660099  56.9115452  91.0929097
  50.9053071  56.7308795  91.9371260  50.3819622  57.2450563  89.8354645
  49.6559971  57.4432624  89.1618263  51.7697374  57.1858394  89.3649177
  52.3922471  56.6503370  90.0817288  51.8164643  56.4412337  88.0212865
  51.2178201  56.9832136  87.2891785  52.8510911  56.3952241  87.6813885
  51.2746787  55.0125792  88.1356402  52.0046143  54.0848684  88.5198375
  49.9821097  54.8272056  87.8067207  49.5767447  53.9039652  87.8650838
  49.4238533  55.6122491  87.5031466  52.4669284  58.5639426  89.3051328
  51.8192829  59.6052554  89.4009240  53.7906701  58.5571888  89.2143127
  54.2946488  57.6852327  89.2904532  54.5588423  59.7911591  89.0828942
  54.1353389  60.5567372  89.7329974  56.0318973  59.5665568  89.4806941
  56.4502748  58.8833736  88.7415593  56.5245980  60.5354164  89.3991041
  56.2566264  58.9926228  90.8972698  55.8388921  59.6755300  91.6370243
  55.7645717  58.0234862  90.9794801  57.7518010  58.8260018  91.1469003
  58.1701799  58.1428203  90.4077649  58.2445002  59.7948621  91.0653118
  57.9736401  58.2594437  92.5452654  57.5559053  58.9423497  93.2850205
  57.4815878  57.2903071  92.6274729  59.4148903  58.0988341  92.7858930
  59.8709614  58.9968139  92.7101887  59.5618139  57.7236044  93.7120226
  59.8020864  57.4657401  92.1007869  54.4059604  60.2911901  87.6152760
  54.2849707  59.4852100  86.6787913  54.3957975  61.6215016  87.4049404
  54.6844190  62.6565213  88.4166211  55.7565106  62.6913917  88.6102804
  54.1561376  62.4233140  89.3410843  54.1833074  63.8894884  87.7776373
  54.7522917  64.7420234  88.1485010  53.1302643  64.0199390  88.0270050
  54.3658929  63.7101634  86.2948510  55.3469293  64.0358864  85.9490604
  53.5916582  64.2615461  85.7613368  54.2004110  62.2103639  86.0503902
  53.1808330  61.9560114  85.7607979  55.1839711  61.7487852  84.9396114
  54.8619701  61.8371924  83.7525918  56.3716901  61.2998710  85.3274332
  56.6198959  61.3261621  86.3061068  57.3650153  60.8295813  84.3773708
  57.1845864  61.2758974  83.3994410  58.7841654  61.2223670  84.8450794
  59.5078997  60.7463031  84.1835116  58.9903014  62.7440855  84.8184723
  58.2671759  63.2208405  85.4802077  60.0000765  62.9803950  85.1540483
  58.8501538  63.1125303  83.8022501  58.9738157  60.7564256  86.1822063
  59.8536379  60.9956700  86.4826649  57.2849091  59.2947390  84.1513215
  57.9747394  58.7809077  83.2767172  56.4539977  58.5677652  84.9067468
  55.8842448  59.0101367  85.6137038  56.3801006  57.1029904  84.7658209
  57.3746313  56.6782459  84.9022027  55.4282854  56.4778839  85.8114966
  54.5159418  57.0741416  85.7971742  55.2009984  55.4593033  85.4969582
  56.0033962  56.4572879  87.2346095  57.1885354  56.7477639  87.4294270
  55.2729732  56.1282694  88.1879631  55.9136416  56.6908897  83.3534024
  55.0558714  57.3548768  82.7387185  56.4602519  55.5763107  82.8669068
  57.1699032  55.1070388  83.4112213  56.0796369  54.9999290  81.5861530
  56.4150791  55.6533545  80.7807880  56.7091017  53.6189451  81.3897289
  56.5213561  53.0426736  82.2956880  56.2132446  53.1396942  80.5456055
  58.2036082  53.6802659  81.1300117  58.7099681  54.7387935  80.6699107
  58.8668972  52.6485993  81.3868495  54.5872234  54.8324929  81.4760335
  54.0289565  55.1962700  80.4662448  53.9491168  54.2872027  82.5138811
  54.4860851  53.9221572  83.2875129  52.5084907  54.0386076  82.4915642
  52.2490712  53.5032763  81.5782071  52.0294938  53.2091566  83.7389607
  52.6927102  52.3517550  83.8534457  52.0475857  54.0393513  85.0172694
  51.3841984  54.8967437  84.9037077  51.7095175  53.4272831  85.8534411
  53.0619958  54.3885142  85.2100300  50.6129010  52.6593732  83.5505354
  50.4074978  52.0350430  84.4200882  49.9455471  53.5211726  83.5568642
  50.3909112  51.8710197  82.3121015  51.0576347  51.0087360  82.3052780
  49.3562148  51.5298831  82.2785100  50.5956863  52.4948654  81.4420535
  51.7298618  55.3532616  82.2855577  50.7428828  55.3675192  81.5536108
  52.2023227  56.4616008  82.8630479  52.9533665  56.3899974  83.5345430
  51.5536746  57.7971000  82.6626495  50.4740305  57.7298092  82.7965885
  52.1075391  58.8823506  83.6287558  53.1945920  58.8031289  83.6405533
  51.7002788  60.3086168  83.1981786  50.6132898  60.3887507  83.1865910
  52.1099423  61.0323316  83.9028155  52.0897798  60.5127572  82.2008234
  51.6280329  58.6006506  85.0200918  51.9812725  57.6186898  85.3348566
  52.0151611  59.3603208  85.6991591  50.5383452  58.6177208  85.0398406
  51.6228810  58.2503411  81.1938037  50.5909248  58.6275176  80.5988161
  52.8152799  58.1413338  80.6050496  53.6178716  57.8450432  81.1418529
  53.0174683  58.5252030  79.2198239  52.6647479  59.5461728  79.0738511
  54.5156132  58.4569369  78.8235782  54.7004572  57.3852379  78.8970155
  54.5783097  58.7652484  77.7799723  55.5735177  59.2187219  79.6490161
  55.5726991  58.8276859  80.6664595  56.9802204  59.0493134  79.0338126
  56.9819460  59.4405732  78.0164574  57.7079682  59.5955951  79.6338628
  57.2448057  57.9920571  79.0163779  55.2463919  60.6906293  79.8036067
  54.2871155  60.7989596  80.3097222  56.0243108  61.1763286  80.3927074
  55.1921687  61.1565950  78.8197192  52.1552423  57.6502885  78.3082137
  51.6080892  58.1483293  77.3318880  52.0173285  56.3633555  78.6417467
  52.5404024  56.0059450  79.4283539  51.1704199  55.4356618  77.8933350
  51.4487181  55.4574082  76.8396859  51.3304636  54.0051890  78.4118400
  51.1327102  54.0279596  79.4835090  50.5736576  53.3972653  77.9160845
  52.7109937  53.4022854  78.1620404  52.7618313  53.2042354  77.0913898
  53.4288291  54.1804013  78.4215592  53.1214456  51.8854124  79.0694050
  52.2274061  50.5941053  78.1501133  52.5801894  50.5711043  77.1190391
  52.4064248  49.6253379  78.6165280  51.1593561  50.8113482  78.1633815
  49.7058164  55.8335662  77.9746592  49.0258262  55.9097125  76.9501432
  49.2337033  56.1019806  79.1901443  49.8125288  55.9231872  79.9982862
  47.8742240  56.5946919  79.4065594  47.1882572  55.8292506  79.0437255
  47.6040130  56.8281849  80.8835499  48.2771766  57.5987856  81.2592165
  46.5717022  57.1512491  81.0179534  47.7690581  55.9022477  81.4344579
  47.5965898  57.8739853  78.6373229  46.5137107  58.0259128  78.0928598
  48.5481500  58.8095893  78.6393825  49.3751060  58.6926280  79.2073290
  48.3839176  60.0717868  77.8955181  47.4690665  60.5719816  78.2132470
  49.5669404  61.0039281  78.1583575  50.4736704  60.4012303  78.1064416
  49.5789972  61.7469207  77.3609136  49.5016923  61.7173752  79.5244410
  48.7356030  62.4907750  79.4691175  49.2312717  60.9931421  80.2928557
  50.8068632  62.3600736  79.9075659  51.8614429  62.0554721  79.3585837
  50.7461975  63.2407491  80.8550486  51.5875751  63.7092621  81.1594838
  49.8577914  63.4549480  81.2851122  48.1989795  59.8237328  76.3957404
  47.3410183  60.4347111  75.7573072  49.0067928  58.9259720  75.8377402
  49.7819803  58.5443775  76.3607787  48.8707137  58.5535393  74.4199792
  48.9648164  59.4760584  73.8470898  50.0176251  57.5525072  73.9628030
  49.9309804  56.6204498  74.5212487  49.9180097  57.3474329  72.8969129
  50.9915030  58.0021996  74.1562915  47.4786979  57.9843955  74.1233219
  46.8365027  58.3652881  73.1458614  47.0203761  57.0861823  74.9903721
  47.6037292  56.8162653  75.7694378  45.7212111  56.4382264  74.8417195
  45.6249069  56.0574027  73.8249609  45.5567689  55.2820935  75.8099883
  45.8063925  55.7242006  76.7745238  44.5085035  54.9833689  75.8081972
  46.4205001  54.0772127  75.5736144  47.4683647  54.3707136  75.5108621
  46.2227866  53.0902328  76.7896700  45.1751766  52.7959063  76.8527885
  46.8404143  52.2041225  76.6432284  46.5160568  53.5882106  77.7138513
  46.0859376  53.3983312  74.2168410  46.2508935  54.1067736  73.4050539
  46.7289382  52.5294648  74.0764043  45.0429179  53.0817751  74.2157983
  44.5935643  57.4026955  75.0498133  43.5914274  57.3566384  74.3102917
  44.7360199  58.2724792  76.0465419  45.5348304  58.2182895  76.6622241
  43.7343868  59.2909439  76.3065396  42.7650419  58.8133723  76.4493508
  44.0682834  60.1021680  77.5580801  44.0602760  59.4022735  78.3936534
  45.0778524  60.4885265  77.4180882  43.1176350  61.2591470  77.8547433
  43.0515354  61.8805298  76.9616503  42.1481078  60.8011872  78.0506743
  43.5293153  62.1385489  79.0678454  44.4254848  61.7545152  79.8617626
  42.9630606  63.2443666  79.2066324  43.6101190  60.2368831  75.0945700
  42.5099289  60.7211224  74.7876235  44.7250518  60.5624608  74.4500228
  45.6360963  60.2682127  74.7717606  44.6516926  61.4647309  73.2726698
  44.1316277  62.3838109  73.5427136  46.0619010  61.8243019  72.7850807
  46.5254362  62.4111433  73.5780824  46.6001475  60.8837521  72.6677917
  46.1143760  62.5983183  71.4906519  45.9437021  61.9132662  70.6601853
  45.3336582  63.3589078  71.4998896  47.4613777  63.2618877  71.3268403
  47.6447852  63.8960787  72.1941709  48.2268580  62.4876354  71.2751432
  47.5086204  64.1055652  70.0637954  47.4932497  63.4371140  69.2029603
  46.6252768  64.7438325  70.0433451  48.7448990  64.9596325  70.0126647
  49.5635363  64.3683710  70.0311700  48.7424986  65.5048306  69.1624569
  48.7591202  65.5794065  70.8100209  43.8175520  60.8473306  72.1560897
  42.9581859  61.5117211  71.5875933  44.0622791  59.5630933  71.8720874
  44.8254491  59.0984833  72.3430530  43.3124684  58.8135455  70.8515048
  43.3262596  59.3335234  69.8936259  43.8991964  57.3718812  70.6712815
  44.1293675  56.9615217  71.6545041  42.8912682  56.4531868  69.9549434
  42.6609475  56.8626788  68.9713941  43.3222123  55.4583915  69.8419379
  41.9764447  56.3875208  70.5439129  45.2334933  57.4597923  69.8887309
  44.9799984  57.2521251  68.8491562  45.5626196  58.4947068  69.9821516
  46.3439833  56.5372815  70.3294199  46.0157398  55.5021014  70.2358353
  47.2208973  56.6979494  69.7022780  46.5983595  56.7446817  71.3688321
  41.8196100  58.7444054  71.2031901  40.9751150  58.9028458  70.3357786
  41.5235327  58.4539953  72.4763610  42.2890390  58.1876004  73.0789663
  40.1627904  58.4637452  73.0391642  39.5728992  57.6551703  72.6074999
  40.2263284  58.2652968  74.5733751  40.4170124  57.2187083  74.8108438
  41.0261014  58.8819366  74.9835198  38.9737321  58.6485048  75.3006365
  37.7765848  57.9597201  75.0683094  37.7770049  57.1371028  74.3531868
  36.6081554  58.3047612  75.7257624  35.6834043  57.7645414  75.5230343
  36.6176266  59.3510549  76.6531339  35.7112037  59.6293508  77.1907664
  37.8032515  60.0396144  76.8858876  37.8163048  60.8688254  77.5932340
  38.9791878  59.6712510  76.2149546  39.9107477  60.1995609  76.4178944
  39.4505675  59.7771384  72.7109707  38.3203038  59.7746626  72.2022893
  40.1180628  60.8945137  72.9985042  41.0084397  60.8484162  73.4730602
  39.5376446  62.2071902  72.7442837  38.5190081  62.2368251  73.1310661
  40.3531386  63.3095118  73.4278169  41.3478672  63.1286274  73.0205147
  39.9907232  64.2781178  73.0834951  40.4199079  63.3041952  74.9636569
  40.6695135  62.2978010  75.2997649  41.5100727  64.3178635  75.4852873
  41.2608794  65.3246138  75.1499435  41.5369151  64.2945699  76.5747081
  42.4868280  64.0358746  75.0921820  39.0546827  63.5868122  75.5891776
  38.3447721  62.8220393  75.2741400  39.1426854  63.5747137  76.6755525
  38.7013634  64.5655663  75.2646705  39.3722016  62.4816474  71.2497092
  38.3314803  62.9978086  70.8382330  40.3877571  62.1415408  70.4436890
  41.2506342  61.8004216  70.8426631  40.3160528  62.3192070  68.9850256
  40.1482114  63.3712806  68.7546568  41.6195241  61.8704721  68.3080725
  41.9039077  60.9339537  68.7878210  41.3700012  61.6820686  67.2638779
  42.8017960  62.8691985  68.3841504  42.6133099  63.6883140  67.6901593
  42.8514673  63.2591727  69.4007894  44.1533071  62.2336441  68.0365508
  44.4092606  61.0914791  68.3909587  45.0061105  62.9696414  67.3403904
  45.9080124  62.5904797  67.0895702  44.7507093  63.9067537  67.0634571
  39.1044246  61.5536991  68.4031203  38.3970384  62.0597251  67.5241166
  38.8578262  60.3498921  68.9133896  39.4864309  59.9597902  69.6009767
  37.7361138  59.5340685  68.4597828  37.6402927  59.6128158  67.3768625
  37.9490483  58.0656977  68.8256861  38.0719956  58.0245171  69.9079463
  37.0399029  57.5348067  68.5433574  39.1420596  57.4142007  68.1571664
  40.0236854  58.0228518  68.3581157  39.2794047  56.4229065  68.5891089
  38.9471246  57.2906638  66.6734063  38.3063634  56.4328204  66.4693748
  38.4695389  58.1969565  66.3010558  40.2710885  57.1024391  65.9841472
  40.7923598  58.0591237  65.9505107  40.8659678  56.3847962  66.5491307
  40.0716547  56.6010009  64.6061574  39.5208113  57.2660433  64.0823351
  40.9690224  56.4804403  64.1586125  39.5890273  55.7143155  64.6371221
  36.4072391  60.0121114  69.0169121  35.3773681  59.9834629  68.3157280
  36.4079456  60.4684223  70.2706923  37.2083481  60.3531558  70.8758112
  35.1913108  61.0543683  70.8338317  34.3529129  60.3636864  70.7435725
  35.3513164  61.4445873  72.3188622  36.3061968  61.9493846  72.4654306
  34.2322341  62.3685293  72.7064419  33.2769807  61.8642337  72.5605730
  34.3382306  62.6488143  73.7544426  34.2682582  63.2639656  72.0859601
  35.3677313  60.1931456  73.1850921  36.2017526  59.5567633  72.8892409
  35.4809111  60.4764249  74.2315350  34.4323015  59.6487817  73.0557095
  34.7217572  62.2612638  69.9973679  33.5385992  62.3920223  69.7336840
  35.6633308  63.0977877  69.5554991  36.6167171  62.9358403  69.8469213
  35.3765738  64.2882262  68.7133271  34.6395214  64.8833414  69.2524846
  36.6367419  65.1197972  68.5360845  37.3810898  64.5405116  67.9897563
  36.3996866  66.0250411  67.9771225  37.0343012  65.3909395  69.5141069
  34.8041203  63.9565873  67.3449549  34.2126728  64.8105830  66.7055535
  35.0133885  62.7284454  66.8852513  35.5410189  62.0756181  67.4469648
  34.5239398  62.2852731  65.5926453  34.2714596  63.1486592  64.9770825
  35.5939231  61.4644257  64.8685692  35.6603940  60.5176056  65.4044913
  35.2084130  61.2867797  63.8646151  36.9891716  62.0987314  64.7758764
  36.9786266  62.8468900  63.9832552  37.2442844  62.5760901  65.7219990
  38.0657661  61.0508622  64.4481870  37.7787012  60.0445157  63.8031184
  39.2941429  61.2776410  64.9052547  40.0315933  60.6148624  64.7129191
  39.4837863  62.1115769  65.4425513  33.2693225  61.4290381  65.7591233
  32.8323441  60.7885053  64.8115313  32.7047972  61.4049915  66.9660889
  33.1502470  61.8972185  67.7272633  31.4691676  60.6677581  67.2440752
  31.5502341  59.6514462  66.8585398  31.2139438  60.5997734  68.7582086
  32.0952877  60.1351316  69.2002947  31.1341668  61.6299148  69.1054036
  29.9504305  59.8142049  69.1811474  29.0853984  60.4390595  68.9589381
  29.9088202  58.9085294  68.5760668  29.9226043  59.3593992  70.9393929
  30.6649615  60.8142901  71.6689353  30.0587600  61.6890388  71.4334923
  30.7197727  60.6913102  72.7505879  31.6693349  60.9502843  71.2678854
  30.2750850  61.3362695  66.5587546  30.2482775  62.5655198  66.4128132
  29.2891495  60.5279015  66.1219418  29.4718579  59.0889560  65.8486663
  29.3077274  58.5234619  66.7659328  30.4870859  58.9151263  65.4920230
  28.4416915  58.7984431  64.8020897  28.1014831  57.7682907  64.9076518
  28.8825700  58.9355577  63.8147058  27.3181672  59.7744162  65.0291484
  26.6053529  59.3660444  65.7455472  26.8002731  60.0206713  64.1021943
  27.9807470  61.0355729  65.6113965  28.2008105  61.7837253  64.8498598
  27.0732215  61.6636381  66.7071102  27.1901280  61.2766399  67.8721142
  26.2028623  62.6164219  66.3501452  26.2065245  62.9681806  65.4033866
  25.2567990  63.2169243  67.3186735  25.5700782  62.9549650  68.3292835
  25.2010030  64.7447033  67.2035912  26.1900026  65.1604596  67.3962720
  24.8799538  65.0224795  66.1996650  24.2107538  65.2954996  68.2242059
  23.2213610  64.8805197  68.0318666  24.5314099  65.0185027  69.2284740
  24.1261228  66.8129137  68.1418850  24.8057495  67.4322284  67.3264119
  23.2876753  67.4117691  68.9907675  23.1935694  68.4172931  68.9778443
  22.7512857  66.8565716  69.6420304  23.8781054  62.6293092  67.1001912
  23.7276199  61.4145798  67.0806597  22.9004162  63.3629732  66.9725170
  51.8565741  12.6278317  61.7216697  52.4560395  12.5252070  62.5280260
  52.2638317  13.3111097  61.0992770  51.6170863  11.7094502  61.3762417
  50.5699330  13.2257154  62.1747246  50.4041773  14.1791070  61.6730586
  49.3809106  12.2940506  61.8672895  49.3147350  12.1314722  60.7915161
  49.5280144  11.3383052  62.3702918  48.0901478  12.9363161  62.3643315
  48.1553971  13.0987914  63.4401778  47.9421152  13.8919570  61.8614011
  46.9138690  12.0146365  62.0601936  46.8476936  11.8520560  60.9844207
  47.0609730  11.0588925  62.5631978  45.6231061  12.6569041  62.5572343
  45.6883548  12.8193806  63.6330803  45.4750739  13.6125422  62.0543014
  44.4892513  11.7684643  62.2640669  44.6260165  10.8830426  62.7303538
  43.6343850  12.1938347  62.5932531  44.4283539  11.6181246  61.2671775
  50.6191688  13.4806322  63.6696236  51.1665246  12.6722649  64.4220690
  50.0957812  14.6360394  64.0829089  49.8522988  15.3467981  63.4078995
  49.8900538  14.9252059  65.4931812  50.7138596  14.5023729  66.0682076
  49.8270081  16.4357010  65.7639041  49.2371915  16.7955271  64.9208497
  49.2715075  16.5924575  66.6885374  51.1456494  17.2029813  65.8264501
  51.7569311  16.9344936  64.9648528  50.8761120  18.7315892  65.8130091
  50.2652299  19.0009257  66.6746236  51.8236194  19.2685347  65.8579548
  50.3499452  19.0002340  64.8969966  51.9650514  16.7924371  67.0458105
  52.1855089  15.7262297  66.9938521  52.8982268  17.3554415  67.0634465
  51.3977735  17.0018585  67.9526938  48.5983972  14.2747762  65.9703460
  47.5946775  14.1949275  65.2476061  48.6598989  13.7696305  67.1869492
  49.5646611  13.6042008  67.6042474  47.4791370  13.4673903  67.9668473
  47.0577342  12.5014324  67.6885592  47.9051220  13.4110615  69.4501156
  47.9556187  12.3644034  69.7502089  48.8937417  13.8616934  69.5376478
  46.9966924  14.0995751  70.2907427  47.2959845  14.0412846  71.2010318
  46.3835025  14.5240077  67.8458030  46.6345917  15.7116830  67.7038509
  45.1461452  14.1037888  67.9911855  44.9324529  13.1177030  67.9456915
  44.0274465  15.0577997  68.0580400  44.0517784  15.5694612  67.0959019
  42.7118350  14.2952873  68.1712753  42.6463896  13.5613244  67.3680851
  42.6687052  13.7849872  69.1334778  41.5580792  15.2634137  68.0632049
  41.6225928  15.9974584  68.8663967  41.6002754  15.7737941  67.1010040
  40.2405884  14.4998130  68.1766046  39.7577182  14.3526478  69.3310656
  39.7296120  14.0709567  67.1076866  44.1630496  16.1721795  69.1651530
  44.0690579  17.3808970  68.8814920  44.3705790  15.7933491  70.4263588
  44.2975891  14.8296050  70.7195639  44.6076213  16.8226144  71.4576987
  43.8095244  17.5633785  71.4086175  44.6396003  16.2229559  72.8865888
  44.9541710  15.1808763  72.8298900  45.3429642  16.7811586  73.5044795
  43.3165292  16.2361589  73.6178079  43.1336915  15.5804709  74.8197059
  41.8920506  15.7591549  75.2380095  41.5510574  15.3121954  76.1718455
  41.2607612  16.5120923  74.3575732  40.3003200  16.8192925  74.4148498
  42.1267934  16.8179973  73.3347148  41.7887579  17.4313404  72.4994642
  45.9105348  17.6088309  71.1382210  46.0078429  18.8050135  71.4369321
  46.9043866  16.9762910  70.5153093  46.8939998  15.9715767  70.4126418
  48.1282417  17.6957097  70.1677458  48.3914592  18.3724726  70.9806466
  49.2982549  16.7335412  69.9331228  48.8303290  15.8874440  69.4298692
  50.0342906  17.1882460  69.2701033  50.0062504  16.2381608  71.2350689
  49.2426523  15.8546317  71.9117699  51.0297688  15.1443725  70.9521496
  51.7939974  15.5273235  70.2758345  51.4958696  14.8317200  71.8865474
  50.5322990  14.2908992  70.4914898  50.6577212  17.3640742  72.0061738
  49.9007799  18.0937337  72.2938131  51.1345676  16.9640163  72.9009768
  51.4080715  17.8471995  71.3803437  47.9036892  18.7091934  69.0417453
  48.5537079  19.7565444  68.9937417  47.0061622  18.3852084  68.1025393
  46.6319700  17.4520869  68.0057726  46.6176934  19.3946375  67.1157115
  47.5110702  19.7439074  66.5980364  45.6390457  18.8487912  66.0835809
  44.8132006  18.3957172  66.6320361  45.2703024  19.6988089  65.5094745
  46.2332968  17.8382569  65.1525079  46.9557277  18.3582428  64.5233743
  46.7501003  17.0965459  65.7615080  45.1843434  17.1312473  64.2578346
  44.1917094  17.2255130  64.6981647  45.1827319  17.5732289  63.2614666
  45.5123016  15.7077120  64.1395268  46.4317028  15.4387040  64.4595824
  44.7052080  14.7614919  63.6503843  45.1060795  13.4945543  63.6501860
  46.0156304  13.2558168  64.0187257  44.4993719  12.7761725  63.2814948
  43.5110231  15.0658232  63.1640080  43.2005551  16.0269146  63.1603893
  42.9166191  14.3353340  62.7990860  46.0352407  20.6392852  67.7927418
  46.3239892  21.7522418  67.4119428  45.1967389  20.4591219  68.8121190
  44.8985930  19.5289485  69.0689961  44.6349330  21.6017789  69.5523285
  44.1635123  22.2950139  68.8557031  43.5809929  21.1283746  70.5614537
  42.8655923  20.5674569  69.9600615  44.0764264  20.4533404  71.2592893
  42.8439943  22.2214986  71.3443240  43.4408958  22.8792039  72.4292319
  44.4559245  22.6038975  72.7156278  42.7567530  23.8747598  73.1419472
  43.2395395  24.3987575  73.9668384  41.4544099  24.1890781  72.7891862
  40.7561376  25.1369703  73.4865874  41.2632347  25.5243424  74.2038008
  40.8457780  23.5452417  71.7229345  39.8282646  23.8096470  71.4350859
  41.5324223  22.5637531  71.0219175  41.0460835  22.0411624  70.1982224
  45.7477562  22.3645315  70.2535609  45.8073151  23.5765390  70.1856229
  46.6567499  21.6307380  70.8905432  46.5148157  20.6385785  71.0153372
  47.8423179  22.2431053  71.4918084  47.5377117  22.9483742  72.2650548
  48.7379095  21.1853372  72.1233197  48.9148870  20.3728099  71.4186371
  49.6910427  21.6255791  72.4162776  48.0711586  20.4293240  73.5913978
  49.1014832  19.6171266  73.8097208  48.6534173  23.0816166  70.4733987
  49.0501956  24.2158536  70.7690549  48.8290665  22.5505451  69.2600103
  48.4841377  21.6257473  69.0458317  49.5919735  23.2673482  68.2259294
  50.5609373  23.5709488  68.6222060  49.8226110  22.3558113  67.0078047
  50.0765661  21.3595024  67.3697088  48.8751373  22.3160251  66.4703935
  50.9044163  22.8437238  66.0815290  51.8771596  23.4981968  66.5027755
  50.7727661  22.5314866  64.8878279  48.8473743  24.5412429  67.8486376
  49.4513870  25.5695024  67.6262208  47.5168071  24.4699984  67.8381874
  47.0441843  23.5810894  67.9192296  46.7199718  25.6493248  67.6081817
  47.0584080  26.1520743  66.7021999  45.2613887  25.2808756  67.4407975
  45.1702909  24.5277291  66.6581284  44.8848375  24.8755400  68.3799526
  44.5150231  26.4125621  67.0884593  43.5925008  26.1679511  66.9849320
  46.9016136  26.6894990  68.7077475  46.9585744  27.8891820  68.4130996
  46.9324616  26.2709993  69.9789569  46.7434706  25.3033201  70.1979970
  47.1868440  27.1982027  71.0872622  46.4707183  28.0189162  71.0461228
  47.1514876  26.5576824  72.4831786  47.8775747  25.7459509  72.5277882
  47.4977033  27.6127102  73.5443930  46.7717328  28.4245960  73.5007022
  47.4719261  27.1557978  74.5336692  48.4954954  28.0075161  73.3529819
  45.7866333  25.9206858  72.7437433  45.0545053  26.7256777  72.8075983
  45.5523103  25.2839754  71.8906359  45.7430218  25.0860732  74.0322958
  45.9768034  25.7222499  74.8859499  44.7466593  24.6622515  74.1577401
  46.4746105  24.2805485  73.9689882  48.5690433  27.8680945  70.8812232
  48.7191294  29.0848338  71.0598139  49.5615048  27.0630126  70.4884035
  49.3930833  26.0710689  70.4001925  50.9121407  27.5563780  70.2626372
  51.2814563  28.0557146  71.1583872  51.8364233  26.4063566  69.9349509
  51.7944127  25.7912557  70.8338309  51.4131744  25.8530681  69.0966000
  53.2882627  26.7604323  69.6289400  53.2934105  27.4274370  68.7668617
  53.9990509  27.4439911  70.8101362  53.9947106  26.7773630  71.6725091
  55.0282759  27.6718861  70.5328988  53.4783864  28.3676297  71.0629220
  53.9970050  25.4797736  69.2169610  53.5131493  25.0643548  68.3329868
  55.0406075  25.6981726  68.9904727  53.9460331  24.7574636  70.0316812
  50.9210707  28.6190423  69.1656223  51.5516175  29.6709299  69.3231089
  50.2113898  28.3412071  68.0619381  49.7520559  27.4459558  67.9745488
  50.1239847  29.2809754  66.9375530  51.1233027  29.5016530  66.5623676
  49.2952088  28.6792460  65.7983312  49.8080543  27.7605968  65.5134235
  48.3271801  28.4338513  66.2351399  49.0880618  29.5549410  64.5563983
  48.4436753  30.3895516  64.8326084  50.0601600  29.9354334  64.2427859
  48.4273147  28.7508767  63.3646035  47.3457252  28.8847314  63.3832048
  48.8209894  29.1096023  62.4135852  48.7275329  27.3124409  63.4877837
  49.6753120  27.0477551  63.2602850  47.8713607  26.3561759  63.8712513
  46.5785911  26.6178045  64.1103063  46.2284850  27.5589233  64.0015808
  45.9605301  25.8726229  64.3980641  48.3119532  25.1057769  64.0150033
  49.2823369  24.8916334  63.8344543  47.6732521  24.3786082  64.3037683
  49.5158466  30.6022208  67.4276955  50.0323076  31.6722508  67.1363299
  48.4954570  30.5241030  68.2810228  48.0715273  29.6412011  68.5277358
  47.9095492  31.7414366  68.8128085  47.6626857  32.4173181  67.9940644
  46.6306570  31.4328472  69.5947408  45.8864212  31.0142205  68.9172720
  46.8539112  30.7102965  70.3797110  46.0964017  32.6844625  70.2082931
  46.8324556  32.9471566  70.9681071  46.0857029  33.4507933  69.4332306
  44.7302371  32.5919249  70.8426005  44.1181007  31.4958133  70.8683932
  44.2648625  33.6743334  71.2840758  48.9007554  32.5107405  69.6808233
  49.0148004  33.7253715  69.5786746  49.6393795  31.8067056  70.5161731
  49.5095714  30.8082791  70.5961328  50.6021930  32.4511724  71.4000158
  50.1034143  33.2445586  71.9566640  51.2043535  31.4608542  72.3951859
  51.5536017  30.5984138  71.8274521  52.0542435  31.9507957  72.8703114
  50.2233516  31.0014272  73.4619188  49.7269272  31.8968557  73.8359128
  49.4939791  30.3643560  72.9616608  50.9404390  30.1069702  74.8387661
  51.4829318  28.5956336  74.0833125  52.2097789  28.8195921  73.3025213
  51.9447965  27.9575808  74.8367514  50.6279060  28.0801003  73.6459824
  51.7258458  33.1515978  70.6589643  52.2555011  34.1362825  71.1712673
  52.0444055  32.6631200  69.4462012  51.6052649  31.7994901  69.1608973
  53.0530084  33.2428050  68.5766108  53.8021893  33.7646168  69.1720431
  53.7484898  32.1442528  67.7688839  52.8924187  31.5290399  67.4918378
  54.2037887  32.5585915  66.8693694  54.7810517  31.2800111  68.5147662
  54.4003771  31.0866988  69.5176710  55.0441857  29.9442047  67.8005654
  55.4253448  30.1367140  66.7976912  55.7790765  29.3690554  68.3638056
  54.1149552  29.3784455  67.7331286  56.1241199  32.0395303  68.8087189
  55.9197427  32.9146526  69.4255579  56.8094662  31.3759762  69.3360686
  56.5765073  32.3557857  67.8688108  52.5151839  34.3396022  67.6524061
  53.2853680  34.9630305  66.9320738  51.2012511  34.5624821  67.6674150
  50.6327479  34.1580407  68.3977099  50.5386509  35.3607491  66.6332522
  51.0736957  35.2548928  65.6895251  49.0861179  34.8945575  66.4300376
  48.7073928  35.3348634  65.5076510  49.0806226  33.8080992  66.3424115
  48.2611066  35.2844984  67.5121057  47.3640556  34.9800897  67.3564310
  50.5455024  36.8328323  67.0112127  50.7551493  37.1988624  68.1716748
  50.3145123  37.6919873  66.0378072  50.1281563  37.3662608  65.1001116
  50.4020120  39.1260082  66.2650358  51.3989432  39.3918830  66.6165156
  50.1276599  39.8776031  64.9450475  49.2123358  39.4792710  64.5073118
  49.9902696  40.9343617  65.1741437  51.2657671  39.7191213  63.9631424
  51.5184471  38.6603161  63.9067060  50.9208544  40.0623017  62.9877633
  52.4998190  40.5145462  64.3741730  52.2480173  41.5735722  64.4303770
  52.8456116  40.1715864  65.3493169  53.6039346  40.3089748  63.3425263
  53.8566146  39.2501698  63.2860884  53.2590216  40.6521579  62.3671496
  54.7937597  41.0758910  63.7388275  55.1137789  40.7577489  64.6424165
  55.5250100  40.9397436  63.0555729  54.5599429  42.0570796  63.7907673
  49.4699629  39.6269517  67.3579813  49.7833637  40.5975855  68.0485695
  48.3238911  38.9704986  67.5072822  48.1124353  38.2092139  66.8781310
  47.3257973  39.3353819  68.5167310  46.8641759  40.2896653  68.2630617
  46.2281108  38.2568142  68.5711471  45.7419048  38.2509578  67.5956120
  46.7299771  37.3027101  68.7321305  45.1706429  38.4721723  69.6701778
  45.6849884  38.5035138  70.6306814  44.6852835  39.4308183  69.4870760
  44.1121997  37.3585949  69.6924803  43.7672377  37.1945419  68.6716047
  44.5811135  36.4489199  70.0675945  42.9062896  37.7258037  70.5916703
  42.1814079  38.2409867  69.9614057  42.4761351  36.7902318  70.9491216
  43.2580060  38.5985401  71.7685937  43.6562167  39.4656931  71.4375746
  42.4241729  38.7937078  72.3040673  43.9293651  38.1211674  72.3529663
  47.9388919  39.5195738  69.9111350  47.5277403  40.4190607  70.6728767
  48.8944296  38.6603978  70.2552864  49.1746718  37.9263433  69.6206781
  49.4589417  38.6663707  71.5936659  48.8992405  39.3527262  72.2290790
  49.3895910  37.2745046  72.2024191  49.9874028  36.5666958  71.6282005
  49.7474265  37.3004502  73.2316812  48.0101644  36.7280188  72.2460472
  47.0215337  37.2432763  73.0629861  45.9031740  36.5646607  72.8567187
  44.9929255  36.8337078  73.3925921  46.1367611  35.6171650  71.9665440
  45.4698490  34.9417792  71.6213162  47.4549498  35.6960763  71.5763485
  47.8510907  34.9882920  70.8481898  50.8737025  39.2352018  71.6981160
  51.4842936  39.1750160  72.7482842  51.3375120  39.8871606  70.6290222
  50.7186668  40.1081387  69.8620160  52.7413461  40.2203587  70.4968636
  53.3194351  39.3101620  70.6564072  53.0306297  40.7393336  69.1045037
  52.4658468  41.6557131  68.9331304  54.0963643  40.9464776  69.0075426
  52.7382659  39.9900185  68.3688750  53.1868261  41.2341234  71.5639034
  54.3425147  41.2023096  71.9910999  52.2817375  42.1020068  72.0455371
  51.3392883  42.1120762  71.6825118  52.6723524  43.1510843  73.0065352
  53.5005548  43.6742154  72.5285040  51.5212515  44.1652094  73.2543050
  50.6880397  43.6581288  73.7408514  51.8785767  44.9719901  73.8942456
  51.1885813  44.5778502  72.3018569  53.1984131  42.5873240  74.3067761
  54.0347460  43.2252004  74.9588857  52.7687865  41.3760083  74.6866411
  52.0335495  40.9200625  74.1654509  53.2523738  40.7335517  75.9162995
  54.0152461  41.3692879  76.3657041  52.1252319  40.5034764  76.9542423
  52.4868992  39.6958534  77.5906707  52.0212278  41.4129124  77.5460272
  50.7924448  40.1270442  76.3782194  49.8808868  41.1193970  76.0170170
  50.1549003  42.1636287  76.1673374  48.6384054  40.7959687  75.4725768
  47.9488028  41.5871606  75.1783567  48.2903209  39.4984927  75.3066430
  47.0533273  39.2097305  74.7880707  46.5383320  39.9945719  74.5870645
  49.1632959  38.4819174  75.6560716  48.8858946  37.4406726  75.4918820
  50.4137287  38.7967994  76.2255864  51.0831878  37.9985292  76.5460380
  53.9944781  39.4272551  75.6582057  54.7674373  39.0217585  76.4860720
  53.7909453  38.8112233  74.5005282  53.1472347  39.1987023  73.8255496
  54.3887275  37.5250328  74.2180029  54.3949841  36.9956950  75.1708206
  53.5481838  36.7394490  73.2335715  53.5397741  37.2523349  72.2718141
  53.9703211  35.7422273  73.1092768  52.5285230  36.6574718  73.6099635
  55.8419528  37.6097788  73.7276321  56.5734304  36.6200455  73.8230390
  56.2515708  38.7491726  73.1796068  55.6435401  39.5541686  73.1308275
  57.5075320  38.7862830  72.4414724  57.5043496  38.0048910  71.6815278
  57.7075985  40.1436728  71.7492879  58.5520887  40.0904178  71.0621930
  56.8033069  40.3929059  71.1940945  57.9780014  41.3026413  72.6765070
  57.0766378  42.1757306  73.2075878  56.0327212  42.0195748  72.9356442
  57.7065926  43.0958160  73.9992328  57.2647225  43.8230540  74.5432690
  59.0472945  42.8102626  73.9920616  60.0952183  43.4050692  74.6825159
  59.8632498  44.2300939  75.3560316  61.3490143  42.9215584  74.4762687
  62.1930065  43.4166226  74.9565692  61.5870273  41.8129613  73.6698840
  62.5935012  41.4165445  73.5358560  60.5439927  41.1784927  73.0108625
  60.7724058  40.3159153  72.3848527  59.2411526  41.6817668  73.1757081
  58.7643208  38.3380443  73.2137690  59.6641853  37.7407016  72.6141929
  58.8264507  38.5810334  74.5349284  58.0085098  39.4250668  75.4380327
  57.1965339  38.8341992  75.8619088  57.5935675  40.2663739  74.8829433
  59.0165286  39.8623346  76.4818693  58.5305862  40.1511362  77.4138311
  59.6332493  40.6866195  76.1236637  59.8129927  38.6499336  76.6492337
  59.2757718  37.9161132  77.2500667  60.7770203  38.8617599  77.1117052
  60.0210163  38.1101239  75.2320500  60.8793778  38.5702683  74.7425799
  60.1892093  36.5965417  75.2329379  61.2587721  36.1045478  75.5243012
  59.0988470  35.8929089  74.9586169  58.2443092  36.4080520  74.8021176
  59.0341308  34.4371515  74.9790119  59.8730255  34.0171733  75.5339651
  57.7309914  34.0272609  75.6761199  56.8121002  34.1977231  75.1151557
  57.8288841  32.9645431  75.8978128  57.5652468  34.7303968  76.9993299
  58.2944703  34.3420640  78.1153535  58.9257623  33.4563843  78.0436459
  58.2323405  35.0521874  79.2990137  58.8281550  34.7435554  80.1579969
  57.4237141  36.1396694  79.3889261  57.3753643  36.7020703  80.3213785
  56.6685612  36.5316190  78.3105136  55.9839745  37.3733884  78.4147509
  56.7710499  35.8669939  77.0970196  56.2301929  36.2365831  76.2258265
  59.1766912  33.7875739  73.6110581  59.1098805  32.5835542  73.4873256
  59.4596383  34.6027565  72.5976399  59.5608476  35.5956566  72.7525763
  59.5868582  34.0979682  71.2316154  58.7663051  33.4137464  71.0156702
  59.5440978  35.2459495  70.2227430  60.2391938  35.9812315  70.6280839
  59.9257296  34.8708168  69.2731470  58.1860017  35.8996754  70.0011885
  57.0182429  35.3518762  70.4964171  57.0725465  34.4483595  71.1037129
  55.7934243  35.9334657  70.2313832  54.8744305  35.5001188  70.6260509
  55.7438494  37.1069257  69.4761905  54.5480641  37.7403863  69.1671059
  53.7805550  37.2879363  69.5246228  56.9122525  37.6528932  68.9856767
  56.8805898  38.5678119  68.3940504  58.0993937  37.0511443  69.2397554
  59.0212183  37.4738081  68.8401371  60.8682676  33.2836463  70.9473715
  60.9038457  32.4952860  70.0226379  61.9215172  33.5441385  71.7154953
  61.8284744  34.1912964  72.4853194  63.2086466  32.8619732  71.5312310
  63.0650731  31.9449873  70.9597219  64.1825876  33.7666708  70.7688897
  64.6229533  34.4403023  71.5040072  64.9576175  33.1173944  70.3616197
  63.5575123  34.5848613  69.6382906  63.3256556  33.8930490  68.8285135
  62.6331900  35.0153436  70.0235376  64.4408587  35.6797296  69.1219182
  64.5222898  36.4419081  69.8968710  65.4254242  35.2552084  68.9256730
  63.8898481  36.3168040  67.8310869  63.7579352  35.5409144  67.0769684
  62.9278490  36.7828686  68.0442550  64.8380409  37.3463498  67.3228950
  65.7293860  36.9146073  67.1248999  64.4677594  37.7571025  66.4777478
  64.9600830  38.0656212  68.0213601  63.8327085  32.6076865  72.8874080
  63.4106539  33.2100811  73.8800876  64.8393899  31.7225818  72.9396211
  65.3726635  30.8323021  71.9017698  66.0109454  31.4084650  71.2318948
  64.5432490  30.4074252  71.3363936  66.1358952  29.7891339  72.6719956
  66.9473722  29.3815012  72.0691361  65.4749063  28.9808367  72.9848063
  66.6565899  30.5368959  73.8510859  67.5254975  31.1119086  73.5309938
  66.9244330  29.9231615  74.7111381  65.5059206  31.4907546  74.2240626
  64.7851177  31.0567708  74.9170270  66.0524709  32.7955683  74.8083724
  66.5259929  33.6536275  74.0517515  66.0323623  32.9057546  76.1284132
  65.5379324  32.2315461  76.6950536  66.6826410  34.0134623  76.7920745
  66.2896248  34.9636699  76.4304906  66.5380905  33.9725962  78.3374648
  66.8330575  32.9823104  78.6844917  67.4202018  35.0415696  79.0212094
  67.1254962  36.0322222  78.6750056  67.2921165  34.9819738  80.1020161
  68.4660411  34.8655430  78.7695423  65.0664510  34.1626588  78.6910835
  64.4779615  33.3629419  78.2413781  64.9461860  34.1366497  79.7741160
  64.7221333  35.1243896  78.3107940  68.1608150  33.9974894  76.4161164
  68.8392313  32.9966770  76.6313346  68.6533893  35.1143078  75.8957066
  68.0052011  35.8617498  75.6925275  70.0398731  35.2900443  75.5259480
  70.5106008  34.3127577  75.4190583  70.1752413  36.0383866  74.2159445
  69.5577973  35.5173336  73.4842574  69.7981470  37.0518640  74.3529249
  71.6193533  36.0954192  73.7156280  72.5553749  36.0414336  74.5411219
  71.8115735  36.2143089  72.4839715  70.7016239  35.9996818  76.7137958
  70.6847091  37.2330245  76.8395755  71.2111086  35.1985851  77.6333128
  71.2649921  34.2047037  77.4618610  71.6665463  35.7007406  78.9150918
  70.8432369  36.1924293  79.4332648  72.1596902  34.5330316  79.7764940
  72.9902411  34.0362836  79.2749698  72.4927638  34.9096030  80.7436321
  71.3473025  33.8215203  79.9244033  72.7749526  36.7234982  78.7410249
  72.7772567  37.7602935  79.3642971  73.7174812  36.4406065  77.8539521
  73.7565405  35.5652538  77.3516261  74.7972612  37.3904933  77.6652430
  75.1765327  37.7134349  78.6347589  75.9313816  36.7617511  76.8878378
  75.5162155  36.2938631  75.9951916  76.6242068  37.5506780  76.5951134
  76.6596872  35.7331767  77.6975628  75.9787213  34.9659135  78.0659286
  77.3874419  35.2796448  77.0246726  77.3818676  36.3701462  78.8665257
  78.2422271  37.2643929  78.6384614  77.0390575  36.0144377  80.0244224
  74.3462834  38.6700568  76.9984857  74.7329020  39.7516063  77.4349816
  73.4548236  38.5824812  76.0103121  73.1157755  37.6962507  75.6642759
  72.9862119  39.8174141  75.3500470  73.8538618  40.3759018  74.9988003
  72.0994184  39.4925519  74.1540939  71.2216457  38.9411606  74.4911143
  71.7837249  40.4183323  73.6730861  72.6576806  38.8854662  73.4414303
  72.2396850  40.7029446  76.3309910  72.2407908  41.9305648  76.1903584
  71.5348249  40.1021603  77.3040128  71.4789404  39.0947057  77.3488625
  70.7596943  40.8897455  78.2811433  70.5260269  41.8703194  77.8664462
  69.4460921  40.1738854  78.6162650  69.7560210  39.2198994  79.0428258
  68.9074755  40.7498967  79.3687296  68.5304985  39.9220474  77.4146520
  69.1069631  39.4081199  76.6454524  67.3278759  39.0791084  77.7923473
  66.7506268  39.5926327  78.5612265  66.7027512  38.9225288  76.9132553
  67.6645718  38.1153945  78.1744360  68.0744202  41.2986820  76.8043319
  68.9502256  41.8615666  76.4814924  67.4227823  41.1195077  75.9491326
  67.5338499  41.8700096  77.5589626  71.5300100  41.1872683  79.5608667
  70.9833003  41.8045352  80.4832473  72.7768590  40.7219358  79.6336899
  73.1155290  40.1736844  78.8559867  73.6758983  40.9544712  80.7600743
  74.6611744  40.5542540  80.5210000  73.7539204  42.0264802  80.9412057
  73.1621771  40.2811688  82.0098868  73.3711576  40.7580378  83.1498719
  72.5437407  39.1112461  81.8617304  72.4397882  38.7692182  80.9171087
  72.0104174  38.2975079  82.9580681  71.8872909  38.9135232  83.8488342
  70.6472256  37.7096911  82.5768325  70.9403783  37.0370087  81.7708182
  70.2273983  37.1297905  83.3987573  69.5905869  38.7029939  82.0574509
  70.0349820  39.2911497  81.2545272  68.3207541  37.9619826  81.5197401
  67.8755119  37.3739404  82.3222764  67.5967648  38.6938691  81.1615746
  68.6045752  37.3014554  80.7004417  69.2581874  39.7655709  83.1148542
  70.1610317  40.3209083  83.3689641  68.5097064  40.4516781  82.7184525
  68.8675247  39.2795027  84.0088449  73.0251825  37.2127918  83.1749019
  72.8766499  36.0753027  82.7331344  74.1095971  37.5543677  83.8383443
  74.2135518  38.4658808  84.2607619  75.2499397  36.6317190  83.8850678
  75.3680977  36.1592320  82.9099299  76.5652807  37.3629410  84.2426560
  76.4537020  37.7745073  85.2457825  77.4363353  36.7083141  84.2138918
  76.8660908  38.5151165  83.3386301  77.0784868  38.3567299  81.9852537
  77.2849260  39.5400442  81.4366662  77.4781814  39.6317638  80.3678637
  77.2074126  40.4583021  82.3872656  77.3292218  41.4531510  82.2626137
  76.9329060  39.8429973  83.5817463  76.8145119  40.4384734  84.4870044
  75.0469877  35.4590757  84.8288540  75.8408249  34.5191157  84.7853369
  73.9857205  35.5099425  85.6564326  73.4507724  36.3654910  85.7007804
  73.5860178  34.4015875  86.5097632  74.4082661  33.6919388  86.6014459
  73.2190025  34.9008228  87.8962165  72.9221879  34.0325132  88.4844671
  74.1120500  35.3472694  88.3335399  72.0911803  35.9213367  87.8947108
  71.6890913  36.3717691  86.8170744  71.6072720  36.2771421  88.9924136
  72.3888832  33.5849565  85.9970054  71.9224837  32.6526742  86.6841555
  71.8950272  33.8881462  84.7915630  72.3426897  34.5687078  84.1944588
  70.6369768  33.2871089  84.3388607  69.8420210  33.5265289  85.0451343
  70.2429021  33.8212049  82.9592174  70.3076064  34.9077766  82.9019937
  70.9887479  33.3780786  82.2993286  68.8687073  33.3773962  82.5325658
  68.7142424  32.2899836  81.7131713  69.6042382  31.7768775  81.3488511
  67.4639164  31.8427242  81.3486376  67.3510401  30.9962379  80.6712737
  66.3377876  32.4709670  81.8704535  65.0838480  32.0002666  81.5248792
  65.1165558  31.2484169  80.9288490  66.4808231  33.5639978  82.7075907
  65.5967456  34.0803526  83.0816030  67.7312977  33.9975751  83.0665766
  67.8408215  34.8250001  83.7676276  70.7129776  31.7598010  84.3107454
  69.8084590  31.0755513  84.7742586  71.7967449  31.2121936  83.7702635
  72.5435059  31.7952385  83.4202548  71.9061047  29.7559616  83.5906478
  70.9447741  29.3526201  83.2724367  72.9559445  29.4162889  82.5270807
  73.8313307  30.0255161  82.7521151  73.2417993  28.3646771  82.5047260
  72.5333182  29.7721875  81.1448896  71.5579015  29.0747630  80.4670169
  71.3585518  29.6430696  79.2946362  70.6232847  29.2352078  78.6010009
  72.1623218  30.6836923  79.1905586  72.2354088  31.2999741  78.3937180
  72.8896289  30.8007719  80.3409432  73.5950680  31.6233668  80.4583939
  72.2278652  29.0303585  84.9038630  72.0574143  27.8104148  85.0080496
  72.7037728  29.7823696  85.8951714  72.9968317  30.7303201  85.7064767
  72.8888074  29.2483644  87.2686304  73.3437416  28.2592686  87.2154920
  73.8078754  30.1720597  88.1097678  73.4101381  31.1835221  88.0270149
  73.7691171  29.8509957  89.1506884  75.2435253  30.1538413  87.6295185
  75.7100874  29.0854228  87.1759241  75.9173346  31.2029724  87.7210599
  71.5362176  29.0568039  87.9665397  71.3115069  28.0711010  88.6673569
  70.6336392  30.0161545  87.7531183  70.8557795  30.7884352  87.1412886
  69.3042455  30.0014363  88.4136945  69.3184225  29.5261397  89.3945061
  68.7481263  31.4489228  88.5470328  68.7370494  31.8981086  87.5539519
  67.3138215  31.4810762  89.1459835  67.3241876  31.0324465  90.1393236
  66.9725921  32.5137912  89.2178364  66.6376447  30.9195650  88.5013213
  69.7243045  32.3139641  89.3620333  70.6500490  32.3866294  88.7912288
  69.2792738  33.3042235  89.4591598  70.0163410  31.7698394  90.7088800
  70.4618512  30.7797181  90.6125458  70.7112382  32.4316304  91.2258421
  69.0910750  31.6973101  91.2804763  68.2873738  29.1449135  87.6221987
  67.4954492  28.3715320  88.2130111  68.3303711  29.2759335  86.2975078
  69.0035021  29.9167399  85.9020823  67.4083406  28.5836675  85.3859166
  66.6097434  28.0309505  85.8807354  66.8019383  29.5730074  84.3905219
  67.6156241  30.1074145  83.9001905  65.9401920  28.8616673  83.3273293
  65.1259678  28.3273839  83.8169014  65.5278928  29.6000434  82.6396442
  66.5568583  28.1541594  82.7730239  66.0349586  30.7106658  85.1137698
  66.7790478  31.2997839  85.6498406  65.5772490  31.3238610  84.3375011
  64.9470404  30.2341701  86.1013096  65.4040939  29.6212542  86.8781853
  64.4659220  31.0991947  86.5577708  64.2022959  29.6453290  85.5658457
  68.1990886  27.4683571  84.6952514  68.9077912  27.7079819  83.7222259
  68.0071368  26.2491084  85.1801770  67.3408814  26.1459289  85.9322123
  68.7195628  25.0644220  84.7214140  69.7430538  25.3227302  84.4496748
  68.7593209  24.0156712  85.8445418  67.7206702  23.8080418  86.1018235
  69.2107549  23.1237329  85.4100841  69.5261122  24.4117308  87.1044898
  68.9726704  25.2067095  87.6043017  69.5803212  23.5411008  87.7580698
  70.9272720  24.8937535  86.7887254  71.3426729  24.2549296  86.0093377
  70.8635028  25.9183478  86.4223383  71.8479798  24.8478712  88.0417433
  72.1141699  23.8029600  88.2011293  72.7445509  25.4174179  87.7970474
  71.2366802  25.3955142  89.2761346  70.4061188  24.8676242  89.5032900
  71.8970924  25.3281706  90.0373314  70.9903392  26.3638666  89.1287954
  68.1032523  24.4254314  83.4807818  68.7793387  23.6866596  82.7679702
  66.8422084  24.7286476  83.2156285  66.3482083  25.3558713  83.8342187
  66.1064930  24.1453493  82.0774260  66.8053236  23.6617283  81.3948971
  65.0876829  23.0883135  82.5741948  64.3181620  23.5991105  83.1530068
  64.6224261  22.5456387  81.7513095  65.6949013  22.0538784  83.4834515
  66.4289335  21.0000265  82.9951502  66.8637473  20.2570836  84.0030325
  67.4631065  19.3656427  83.8180978  66.4411382  20.8012307  85.1352000
  66.6148042  20.4545511  86.0678057  65.7148212  21.9341655  84.8351160
  65.2875913  22.5360071  85.6372148  65.4023788  25.2323213  81.2955667
  64.2046104  25.4469713  81.4855730  66.1321763  25.8883266  80.3946751
  67.5837500  25.7946356  80.1382926  67.7854279  24.9432158  79.4882844
  68.1134335  25.6641492  81.0819597  67.8983590  27.1092355  79.4817033
  68.7305476  26.9874138  78.7883632  68.1620151  27.8477599  80.2387822
  66.6568207  27.4980858  78.7735429  66.6410723  26.9800475  77.8146439
  66.5459923  28.5698451  78.6087739  65.5126678  26.9827161  79.6656445
  65.1478833  27.7132125  80.3877286  64.3445749  26.4975562  78.7947519
  64.3883055  25.3563456  78.2955735  63.3545645  27.3633110  78.5965776
  63.3404679  28.2441024  79.0906496  62.2440406  27.0459749  77.7329634
  62.5876498  26.4759709  76.8697558  61.2175380  26.1982687  78.5051154
  61.7708607  25.3597599  78.9280057  60.8446192  26.8302925  79.3110791
  60.0498502  25.6744066  77.6927290  59.4493563  25.0496645  78.3539440
  59.4627667  26.5364268  77.3759385  60.5332700  24.6999094  76.2179292
  61.5760744  23.3790925  76.9245917  60.9926660  22.7976293  77.6384784
  61.9271701  22.7260311  76.1256278  62.4320308  23.8237134  77.4322846
  61.6350899  28.3138164  77.1977701  61.6658909  29.3253523  77.8648131
  61.1104936  28.2404410  75.9690066  61.1249386  27.3548496  75.4836011
  60.5243650  29.3995474  75.2849483  59.9376036  29.9821433  75.9951541
  61.6142434  30.3022759  74.6924322  61.1831195  31.2616055  74.4062188
  62.3567532  30.4572698  75.4752196  62.2646730  29.6785423  73.5090317
  63.0771273  28.7360869  73.6857626  61.9255143  30.1216898  72.3832735
  59.6190564  28.8722748  74.1759907  59.6652847  27.6472979  73.8430860
  58.8479867  29.7615090  73.5652796  58.8390010  30.7369992  73.8268850
  57.8626059  29.2936699  72.5565273  57.2760440  28.4695308  72.9625311
  56.9138572  30.4305575  72.1835975  57.6356125  31.2066211  71.9288553
  56.3363207  30.1672286  71.2974770  55.9725345  30.9478633  73.2691082
  56.5345000  31.1314705  74.1848505  55.3260331  32.2596646  72.7930291
  54.7634723  32.0767456  71.8775157  54.6526096  32.6341595  73.5639734
  56.1031821  32.9991028  72.5997135  54.9548598  29.8550168  73.6956039
  55.4917446  28.9896461  74.0841752  54.2977879  30.2518461  74.4694800
  54.3597683  29.5554437  72.8329214  58.4983115  28.6665932  71.3229369
  57.9156280  27.7811098  70.7433724  59.6694484  29.1524523  70.8956568
  60.0842718  29.9797462  71.3001388  60.3302695  28.5377476  69.7304634
  59.6013162  28.4626960  68.9235597  61.5493384  29.3384910  69.2215048
  61.7945875  28.9548227  68.2311761  61.2380533  30.3799340  69.1402758
  62.6922470  29.2504649  70.0591642  63.4061362  29.7698286  69.6820389
  60.7457141  27.1029730  69.9767593  60.7916997  26.2922516  69.0330082
  61.1165508  26.8053187  71.2285224  61.1966419  27.5401006  71.9168395
  61.5079485  25.4659316  71.6069998  62.1370084  25.0089727  70.8430814
  62.2670613  25.4655994  72.9263071  61.6562197  25.9587580  73.6824600
  62.5768743  24.0527192  73.3713706  63.1881196  23.5590409  72.6158836
  63.1195393  24.0796403  74.3162987  61.6464220  23.5004069  73.5029386
  63.4748802  26.2298340  72.7576300  63.9655947  26.2389891  73.5826850
  60.2604030  24.5599032  71.6475429  60.2944854  23.4296927  71.1936184
  59.1666221  25.0754430  72.2006896  59.2008973  25.9252799  72.7453930
  57.9004275  24.3387323  72.1409445  57.9981703  23.3220341  72.5215628
  56.7589983  25.0456144  72.9074987  56.6002941  26.0292668  72.4655257
  55.4615205  24.2397399  72.8359750  55.6193241  23.2560591  73.2782092
  54.6778009  24.7625242  73.3842274  55.1611996  24.1253411  71.7944272
  57.1426377  25.3298426  74.3572739  58.0215579  25.9740599  74.3814700
  56.3143443  25.8270649  74.8620510  57.3663655  24.3916613  74.8650754
  57.5113407  24.0480112  70.6976630  57.1132936  22.9311716  70.3769125
  57.6820207  25.0414670  69.8214445  57.9018164  25.9800557  70.1228420
  57.4417670  24.8076510  68.3915986  56.4374234  24.4079326  68.2515334
  57.5668446  26.1112620  67.5912037  56.7483290  26.7579257  67.9073642
  58.5172038  26.5658552  67.8709578  57.5164278  25.9318976  66.0878529
  58.4570020  25.4808245  65.7716980  56.6938830  25.2546974  65.8578051
  57.3178169  27.2079112  65.3720818  56.2983945  27.5485754  65.5532578
  58.0209686  27.9389359  65.7711806  57.5443494  27.0521713  63.8604267
  57.2931899  27.9920019  63.3687582  58.5947276  26.8200732  63.6845424
  56.7015243  25.9680701  63.3109346  55.7281611  26.1831512  63.4734277
  56.8665059  25.8837628  62.3180735  56.9343949  25.0970345  63.7660910
  58.3576174  23.7210601  67.8133459  57.8853331  22.8396630  67.0766944
  59.6593983  23.8311505  68.0513117  60.0369499  24.6347979  68.5326692
  60.5981195  22.8173795  67.5431888  60.5855496  22.8181997  66.4532620
  62.0227033  23.1148995  68.0159877  62.2734242  24.1246424  67.6909376
  62.0235404  23.0736746  69.1052075  63.0431257  22.1456879  67.4760469
  62.6303297  21.1435222  67.5916500  63.1694094  22.3660082  66.4160405
  64.4270878  22.2232609  68.1913332  65.0664828  21.4722408  67.7273916
  64.8311909  23.2160711  67.9935252  64.4162922  22.0005315  69.6412177
  64.6207283  22.8019984  70.2208348  64.1778560  20.8393180  70.2303360
  64.2094967  20.7746476  71.5572428  64.4132194  21.6046216  72.0955180
  64.0296790  19.8958184  72.0213812  63.9248708  19.7358711  69.4981348
  63.9166967  19.7935324  68.4898152  63.7446706  18.8565848  69.9612570
  60.1551076  21.4230711  67.9666253  60.1405089  20.4843166  67.1708137
  59.8260331  21.2839048  69.2487667  59.9395692  22.0566194  69.8891737
  59.4322863  19.9880151  69.7913027  60.1504769  19.2318686  69.4742161
  59.3879114  20.0091937  71.3161428  58.7383882  20.8266874  71.6290692
  58.9712352  19.0626186  71.6603470  60.7616376  20.2011125  71.9137250
  61.3634056  19.3682513  71.5499689  61.1409455  21.1330685  71.4945765
  60.8413415  20.2588671  73.4336993  61.8746067  20.4850361  73.6969663
  60.1964388  21.0737454  73.7625965  60.4173843  18.9745662  74.1133959
  59.3701944  18.7983222  73.8675665  61.0262985  18.1668302  73.7073352
  60.5786773  19.0215905  75.5951463  60.0141892  19.7697175  75.9716549
  60.2820494  18.1424342  75.9941402  61.5490285  19.1844676  75.8231564
  58.1209542  19.4879936  69.1880884  58.0049813  18.3156570  68.9064943
  57.1425944  20.3882807  69.0157363  57.2562668  21.3347588  69.3494387
  55.8730648  20.0163622  68.4230666  55.4575741  19.1553202  68.9465868
  54.8835899  21.1711497  68.5231168  54.8240657  21.4605440  69.5723103
  55.2877031  21.9991697  67.9407291  53.5026895  20.8267916  68.0170321
  52.9465744  21.7621764  67.9546451  53.6270729  20.4112607  67.0170496
  52.5848054  19.6597958  69.0322830  52.2253331  20.7013809  70.4608526
  51.6422797  21.5658659  70.1433413  51.6565520  20.1296171  71.1941157
  53.1596808  21.0388449  70.9094211  56.0737394  19.5785402  66.9854256
  55.5634125  18.5448049  66.5755016  56.8410835  20.3684604  66.2480823
  57.2314598  21.2124761  66.6422184  57.1051884  20.0746679  64.8462762
  56.1671219  19.9701561  64.3011085  57.9098883  21.2166960  64.2206853
  58.6978526  21.4251702  64.9443910  58.3572332  20.9024283  63.2777015
  57.0897480  22.4639077  63.9971190  55.8546693  22.3803426  64.1425411
  57.6921035  23.4967669  63.6034331  57.8511401  18.7606609  64.7138277
  57.6662785  18.0223675  63.7404665  58.6766714  18.4640619  65.7040747
  58.7941073  19.1139918  66.4682077  59.4291735  17.2244419  65.7338874
  59.7078937  16.9979530  64.7047532  60.3284543  17.4135081  66.3201019
  58.7013833  16.0362339  66.3191507  59.2745261  14.9483957  66.4438923
  57.4261660  16.2431389  66.6565024  57.0739991  17.1873645  66.5893028
  56.5619105  15.2257078  67.2230448  55.6239568  15.6783769  67.5446544
  56.2509974  14.1368488  66.1856460  57.1692669  13.5718681  66.0254051
  55.4942279  13.4836254  66.6200411  55.7517944  14.6759810  64.8594413
  56.4985449  15.3589570  64.4544620  55.6118464  13.8420904  64.1715873
  54.4565862  15.4007147  65.0331386  53.7669572  14.7386279  65.5567337
  54.6436936  16.2849547  65.6424086  53.8371673  15.8218515  63.7708418
  53.5334218  15.0736716  63.1641583  53.6450817  17.0800886  63.3743252
  54.0558251  18.1243155  64.1098964  54.5246614  17.9647764  64.9901463
  53.8943118  19.0651612  63.7800138  53.0343152  17.3107690  62.2171356
  52.7224193  16.5348576  61.6507589  52.8847387  18.2609734  61.9091793
  57.1356461  14.6415222  68.5132900  57.0294406  13.4358916  68.7709975
  57.7365982  15.5027790  69.3297349  57.8275407  16.4722072  69.0613366
  58.3652561  15.0687272  70.5628453  58.7447002  14.0565431  70.4228285
  59.5231552  15.9696909  70.9862579  59.1060668  16.9710530  71.0930777
  59.8501493  15.6070076  71.9607505  60.6934284  16.0135530  70.0516319
  60.9632300  15.0046013  69.7396634  60.3650156  16.5859351  69.1840935
  61.8967131  16.6873834  70.6739305  62.0739602  16.6786601  71.9102024
  62.7148796  17.2000118  69.8995419  57.4061116  14.9234899  71.7316866
  57.6830881  14.1536085  72.6276551  56.2789639  15.6380022  71.7323140
  56.0690980  16.2933175  70.9929781  55.3369444  15.5233221  72.8453610
  55.8890644  15.4298983  73.7805267  54.4371630  16.7481970  72.9319631
  53.9038886  16.8647439  71.9884937  53.7217467  16.5577845  73.7319772
  55.2051275  18.0111921  73.2345567  55.8945537  18.1576279  74.4203990
  55.8401334  17.3439026  75.1435787  56.6416836  19.2955481  74.7084261
  57.2036014  19.3920270  75.6374266  56.6637940  20.3181250  73.7774992
  57.3839695  21.4557169  74.0639916  57.8166062  21.4200792  74.9202364
  55.9835812  20.1914513  72.6165279  56.0043598  21.0112865  71.8985175
  55.2709133  19.0468454  72.3345565  54.7467000  18.9515951  71.3836475
  54.5004633  14.2683184  72.6888551  53.8770528  14.0582269  71.6421202
  54.4509696  13.4378487  73.7410007  55.2087190  13.5621096  74.9930942
  54.9694732  14.5133398  75.4685128  56.2761724  13.5233587  74.7759753
  54.7417381  12.3739634  75.8038336  53.9756767  12.6984375  76.5080818
  55.5870379  11.9591296  76.3529080  54.2090868  11.3966498  74.8440994
  53.4086545  10.8317419  75.3218924  54.9654860  10.7074294  74.4686861
  53.6406348  12.2307825  73.6877777  53.7999936  11.7610539  72.7171810
  52.1470077  12.5183121  73.8763215  51.2781513  11.7252887  73.4500451
  51.8604431  13.6349028  74.5452513  52.6139850  14.2116341  74.8911628
  50.5047382  13.9925463  74.9001996  49.8599288  13.8763573  74.0290967
  49.9683066  13.0983061  76.0318609  48.9685769  13.4679055  76.2599752
  49.9011909  12.0753500  75.6615147  50.8233840  13.1260720  77.2997650
  51.5961519  14.0696622  77.5003077  50.7432648  12.1650900  78.1051726
  50.4083266  15.4672637  75.2400577  51.4162338  16.1536989  75.2988088
  49.1770469  15.9494277  75.4231921  48.3839156  15.3429779  75.2706772
  48.9247880  17.3475866  75.7584207  49.3543143  17.9486592  74.9569732
  47.4496278  17.6455806  75.8464882  47.0070781  17.0578413  76.6507347
  47.3042591  18.7064863  76.0500744  46.9694349  17.3881803  74.9024230
  49.6261481  17.7531721  77.0727933  50.0245594  18.8915588  77.2483075
  49.7055092  16.8272032  78.0129642  49.2743886  15.9252325  77.8691474
  50.3395232  17.0929733  79.2981282  49.8791447  17.9660227  79.7606599
  50.1777480  15.8961336  80.2419463  50.5479396  15.0180737  79.7127315
  50.8057932  16.0868107  81.1121770  48.7647172  15.6522602  80.6885465
  48.7840916  15.3374079  81.7319033  48.2165339  16.5904753  80.6028165
  48.0259005  14.5675269  79.8560829  48.1272661  14.4923359  78.6254939
  47.2744223  13.7150363  80.5529513  46.7671467  12.9851834  80.0732768
  47.2157879  13.8029074  81.5574123  51.8028312  17.4421995  79.1305585
  52.3082626  18.3421386  79.7971353  52.4860815  16.7524066  78.2338809
  52.0518082  16.0021413  77.7156067  53.8830688  17.0548903  77.9685579
  54.4432180  16.9702617  78.8997776  54.2672166  16.3336025  77.2472579
  54.0622348  18.4581800  77.4088362  54.9845137  19.1867013  77.7883310
  53.1967919  18.8204964  76.4676022  52.5679137  18.1292989  76.0843822
  53.1660635  20.1752743  75.9068977  54.1192767  20.4259798  75.4414617
  52.0713916  20.2248998  74.8375410  52.4244740  19.7139851  73.9417742
  51.1788869  19.7241949  75.2128144  51.6411582  21.6102083  74.4047957
  52.3641420  22.3138848  73.4739371  53.2571711  21.8619701  73.0422287
  51.9729758  23.5783907  73.0833044  52.5691409  24.1224266  72.3506976
  50.8499622  24.1477952  73.6066513  50.5262410  25.1336093  73.2727725
  50.1236891  23.4712847  74.5614512  49.2492079  23.9372557  75.0156030
  50.5061521  22.1972888  74.9440718  49.9137241  21.6468271  75.6749075
  52.9465711  21.2252134  76.9974112  53.7122008  22.1814708  77.1173153
  51.9350751  20.9956093  77.8305450  51.3617535  20.1709244  77.7242597
  51.5794623  21.9536421  78.8645032  51.4215907  22.9207409  78.3871191
  50.2770895  21.5446067  79.5968345  50.4224764  20.5822225  80.0875273
  50.0273532  22.2984767  80.3434348  49.4637575  21.4649040  78.8755595
  52.7251764  22.1187400  79.8645952  52.9496093  23.2156390  80.3542435
  53.4215842  21.0262501  80.1704806  53.1340973  20.1287067  79.8073463
  54.5291473  21.0659342  81.1194270  54.1508370  21.4982136  82.0457719
  55.0475182  19.6700352  81.4119381  55.4380963  19.2275068  80.4955772
  55.8425364  19.7255470  82.1555542  54.2347911  19.0529695  81.7950878
  55.6437487  22.0160591  80.6149072  56.2002574  22.8151645  81.3748899
  55.9146627  21.9669031  79.3057272  55.4886281  21.2949905  78.6835316
  56.9275766  22.8736134  78.7602707  57.8060922  22.8552311  79.4052292
  57.3451782  22.4798783  77.3658968  56.4718911  22.0342004  76.8896195
  57.6305359  23.3835713  76.8273710  58.4955401  21.4908650  77.3388074
  59.0206381  21.1499288  78.4258431  58.8621079  21.0878095  76.2230868
  56.4440292  24.3225103  78.7635577  57.2097955  25.2427694  79.0510121
  55.1693491  24.5565908  78.3936604  54.5721956  23.8325805  78.0204097
  54.6713956  25.9215957  78.4066221  55.3422704  26.5823430  77.8575873
  53.2585596  26.0334866  77.7943395  52.5814856  25.3745374  78.3378981
  52.7483047  27.4843328  77.8883563  53.4246636  28.1438576  77.3446040
  51.7511337  27.5482719  77.4528540  52.7076443  27.7886764  78.9342164
  53.2641018  25.5713575  76.3499521  53.5879494  24.5316906  76.3018113
  52.2593298  25.6579118  75.9363809  53.9490192  26.1918418  75.7720350
  54.7443984  26.4790590  79.8357432  55.1554209  27.6306152  80.0541004
  54.3174924  25.6781251  80.8033160  53.8380068  24.8125285  80.6009908
  54.3844182  26.1253069  82.1953014  53.9981646  27.1415240  82.2741061
  53.5595002  25.2250870  83.0845171  53.8337016  24.1844296  82.9114706
  53.7359116  25.4777284  84.1300559  52.0907494  25.4218548  82.7578206
  51.8592342  26.4836985  82.8414227  51.9194624  25.0927698  81.7328982
  51.2402563  24.6722378  83.6521985  51.5393826  23.6245528  83.6209172
  51.3726857  25.0573278  84.6632710  49.8141648  24.7669068  83.2940059
  49.4262546  25.6923690  83.1793557  49.0200631  23.7297066  83.1382743
  47.7348273  23.9270109  82.9186337  47.3723238  24.8685604  82.8719885
  47.1189268  23.1356626  82.7980764  49.5036141  22.4819970  83.2248133
  50.4854969  22.3359993  83.4110687  48.8837440  21.6938949  83.1033440
  55.8203644  26.3058690  82.7046753  56.0845527  27.1498698  83.5627663
  56.7278710  25.4709331  82.2119687  56.4468659  24.6646746  81.6724478
  58.1506405  25.6326643  82.5313038  58.2826872  25.6298962  83.6132720
  58.9896083  24.4881507  81.9298127  58.6376136  23.6322851  82.5057407
  58.7267344  24.3523868  80.8807343  60.5229358  24.6032862  82.0649257
  60.8362152  25.5193132  81.5640750  60.9818387  24.6372849  83.5215222
  60.6693043  23.7213151  84.0229407  62.0681364  24.7188746  83.5589537
  60.5359944  25.4959597  84.0235191  61.1591863  23.4510553  81.2605575
  60.8662568  23.5328993  80.2138516  62.2448308  23.5086330  81.3390566
  60.8166991  22.4962832  81.6595709  58.6615522  26.9999542  82.0874562
  59.4255767  27.6704254  82.8055891  58.3039892  27.3680951  80.8657173
  57.8137620  26.7323681  80.2528324  58.6378358  28.7027369  80.3595715
  59.7171680  28.8213684  80.2643473  58.0032640  28.8707867  78.9764179
  58.4379131  28.1070901  78.3314785  56.9354688  28.6842185  79.0908984
  58.2147578  30.2464694  78.3493778  57.8475882  31.0074099  79.0380409
  59.2809936  30.3954717  78.1789616  57.3454227  30.3923145  76.7949725
  55.7014728  30.7555772  77.4311596  55.7332970  31.6729901  78.0189009
  55.0089385  30.8816919  76.5989385  55.3651502  29.9323608  78.0614795
  58.1463249  29.8340953  81.2906709  58.9168304  30.7165728  81.6932387
  56.8792329  29.7773218  81.7013614  56.2238945  29.0859588  81.3657304
  56.3992892  30.7904265  82.6129354  56.6306045  31.7764818  82.2100864
  54.8866208  30.6885790  82.8178189  54.6485461  29.6819231  83.1614224
  54.5464224  31.4141012  83.5567253  54.0659838  30.9250987  81.5694081
  54.2555924  32.0639784  80.8287573  54.9884938  32.8057361  81.1461704
  53.5142125  32.2712622  79.6756596  53.6986116  33.1532753  79.0623484
  52.5339840  31.3535373  79.3001453  51.9001587  31.5608151  78.4379380
  52.3659261  30.1933510  80.0115454  51.6741348  29.4182538  79.6817737
  53.0989776  30.0183576  81.1723873  52.9217145  29.1469685  81.8027513
  57.1128300  30.7180478  83.9713513  57.5051549  31.7363606  84.5309674
  57.2257879  29.5032607  84.5109410  56.8078038  28.7055987  84.0536403
  57.8260769  29.3108494  85.8061730  57.3203191  29.9421583  86.5367599
  57.7160719  27.8561230  86.2588339  58.1290261  27.2067809  85.4868735
  58.2779859  27.7234028  87.1833544  56.3446114  27.5180047  86.4822216
  56.2827856  26.6030767  86.7662711  59.2658571  29.8105682  85.8326326
  59.7044493  30.3530944  86.8471282  60.0132052  29.6034235  84.7488393
  59.6634027  29.0864907  83.9547876  61.3910300  30.1082847  84.6985911
  61.9709602  29.6687004  85.5100995  62.0476409  29.7523392  83.3897420
  61.2825474  29.9456573  82.6378383  62.9115603  30.3894440  83.2004258
  62.4825402  28.2968870  83.2785690  62.6089451  27.5782350  84.2884003
  62.7936880  27.8916953  82.0478482  63.0913166  26.9390016  81.8932788
  62.7304655  28.5391323  81.2752364  61.4020510  31.6322446  84.8742835
  62.2560459  32.1957515  85.5657151  60.4747526  32.3031900  84.2066900
  59.8574309  31.8139790  83.5744828  60.3753520  33.7447848  84.2842392
  61.3366022  34.2017908  84.0492015  59.3432967  34.2412331  83.2829891
  59.5956907  33.8841664  82.2845403  58.3544225  33.8757235  83.5598115
  59.1960937  36.0188680  83.1514810  58.2430615  36.0111986  82.2238123
  60.0522832  34.2200908  85.7152021  60.6824095  35.1177112  86.2675475
  59.0676018  33.5707326  86.3385418  58.4923455  32.9087074  85.8376403
  58.7364192  33.8624660  87.7160510  58.5763212  34.9355434  87.8208023
  57.4712902  33.1311910  88.1779076  57.7565523  32.0803122  88.2266761
  57.2085528  33.4824979  89.1757315  56.2747303  33.2885693  87.2544762
  55.9822115  34.4882614  86.6366303  56.6123964  35.3579121  86.8228400
  54.8915753  34.5907879  85.7815543  54.7081195  35.5481409  85.2937828
  54.0532116  33.5353249  85.5528752  52.9690331  33.6914809  84.6895431
  52.9105247  34.5741880  84.3167099  54.3132721  32.3320284  86.1805431
  53.6732916  31.4674417  86.0044317  55.4050907  32.2281798  87.0457608
  55.5917652  31.2955670  87.5781949  59.8720060  33.5583564  88.6803135
  60.0963027  34.3049468  89.6519337  60.5875818  32.4622523  88.4307257
  60.3627818  31.8857543  87.6324686  61.6862715  32.0325127  89.3166510
  61.3310619  31.9747744  90.3455298  62.2043202  30.6414881  88.8950633
  61.3793977  29.9327877  88.9681781  62.5407183  30.7011553  87.8599903
  63.3652302  30.1691858  89.7841598  64.1919852  30.8722836  89.6830140
  63.0279410  30.1524212  90.8205270  63.8293044  28.7820086  89.3811986
  64.0324234  28.8202186  88.3109736  64.7580900  28.5954841  89.9203324
  62.8426329  27.6620595  89.6697007  61.8675801  27.9999019  89.3186520
  63.1606774  26.8000542  89.0832761  62.7477195  27.2799902  91.0959000
  62.4526096  28.0784919  91.6394115  62.0747369  26.5341735  91.2005512
  63.6510234  26.9665026  91.4212714  62.8209509  33.0632847  89.2704258
  63.3326805  33.4932372  90.3022449  63.2136387  33.4489962  88.0550135
  62.7612773  33.0929808  87.2251210  64.3665026  34.3183417  87.8920500
  65.1787379  33.9553059  88.5217944  64.8561045  34.3569250  86.4294867
  65.0670737  33.3260549  86.1450609  64.0633209  34.7533392  85.7950973
  66.1065262  35.1939438  86.2567528  67.3273346  34.7133732  86.6918076
  67.3811932  33.7079450  87.1093154  68.4616973  35.4820670  86.6042557
  69.4105117  35.1163095  86.9967789  68.3783877  36.7604572  86.0692053
  69.5115929  37.5179055  85.9678984  70.2942180  37.0674892  86.2938167
  67.1954864  37.2473237  85.5853918  67.1447279  38.2317130  85.1200943
  66.0505545  36.4708365  85.6927819  65.0954831  36.8557486  85.3353168
  64.1399340  35.7488496  88.3803490  65.0519121  36.3829577  88.9381527
  62.9444059  36.2695563  88.1078089  62.2106346  35.6625546  87.7713154
  62.6606847  37.6875039  88.2342325  63.5893085  38.2572008  88.1995568
  61.7551727  38.1526995  87.0807456  60.9654593  37.4014319  87.0877419
  61.3152944  39.1426169  87.2018682  62.4574704  38.0985613  85.7539513
  62.3378174  37.1108320  84.9827374  63.3054655  39.0495403  85.5523743
  63.8209547  39.0868247  84.6846298  63.4498943  39.7523189  86.2632494
  61.9970969  38.0647673  89.5463783  61.1550746  37.3422717  90.0157624
  62.3170121  39.2425659  90.0932226  63.4521076  40.1157862  89.7547590
  63.2154141  40.7183311  88.8778234  64.3409682  39.5174545  89.5546962
  63.5857940  40.9382816  90.9983740  64.0736777  41.8880565  90.7792939
  64.1600878  40.4009803  91.7530893  62.1614254  41.1421311  91.4499385
  61.7367870  41.9003408  90.7919876  61.9976073  41.4299529  92.4884094
  61.5049053  39.7864681  91.1737423  61.5206523  39.1066260  92.0256020
  60.0679271  39.9493858  90.6793894  59.8517176  40.2364350  89.5010019
  59.0859706  39.7413076  91.5599051  59.2236919  39.4493587  92.9997206
  59.8247192  40.2274749  93.4702540  59.7147206  38.4846369  93.1273988
  57.8435716  39.4396597  93.4789281  57.7013240  40.3570554  94.0501110
  57.7448919  38.5803269  94.1421858  56.9128704  39.3527753  92.3829138
  56.0588052  40.0185802  92.5069114  56.5623164  38.3236241  92.3050724
  57.6949180  39.7369177  91.1183541  57.6068831  38.9316965  90.3889934
  57.1949696  41.0387612  90.5002431  56.2154581  41.0178315  89.7404557
  57.8786304  42.1411377  90.8015866  58.6187122  42.0922570  91.4871440
  57.4992594  43.4541894  90.2839769  56.4406015  43.4624403  90.0246032
  57.7535390  44.5380956  91.3573078  57.2064429  45.4239192  91.0346598
  57.3490288  44.1876920  92.3068808  59.2189899  44.8847633  91.5299261
  60.1187475  44.1115060  91.1464426  59.4857404  45.9681899  92.0982746
  58.1759185  43.7868460  88.9187967  58.0061229  44.8738242  88.3752851
  58.9703725  42.8613898  88.3908879  59.2021194  42.0219861  88.9025461
  59.5988388  43.0768448  87.1061703  60.0627596  44.0631627  87.0988444
  60.6746500  42.0275992  86.8081709  60.4628211  41.1220541  87.3766916
  60.6970264  41.7911939  85.7443514  62.0572792  42.4523792  87.1806766
  63.1692157  42.0081576  86.5038647  64.2511816  42.5481196  87.0440718
  65.2416718  42.3140585  86.6538876  63.8735453  43.3344707  88.0395805
  64.4828452  43.8823061  88.6301141  62.5062776  43.2891608  88.1462391
  62.0000338  43.8720139  88.9157199  58.5150977  43.1061969  86.0166269
  57.5256301  42.3515662  86.0402127  58.7135352  43.9850387  85.0397002
  59.4979449  44.6208966  85.0617348  57.7565595  44.1020255  83.9393086
  56.7690706  44.3692098  84.3155762  58.2311255  45.2014343  82.9889191
  58.2368345  46.1289899  83.5613764  59.2509463  44.9469094  82.7003320
  57.3890345  45.3801749  81.7517467  57.8326099  46.1806521  81.1596504
  57.4311749  44.4471369  81.1898184  55.9336750  45.7225711  82.0605162
  55.6555862  46.2494084  83.1700287  55.0696357  45.4675679  81.1901948
  57.5587051  42.7860906  83.1893473  56.4582845  42.4608693  82.7702966
  58.6153758  42.0070770  83.0420039  59.5266007  42.2940415  83.3697535
  58.5137627  40.7658761  82.2727179  57.9705746  40.8960600  81.3367168
  59.8774317  40.1463107  81.9642404  60.5325383  40.9308425  81.5854997
  60.5089305  39.5100543  83.2096075  59.8545697  38.7250584  83.5886780
  61.4763500  39.0812160  82.9482693  60.6450943  40.2712816  83.9777832
  59.7773140  39.1578321  80.8318356  59.4134644  39.6643092  79.9378578
  60.7606755  38.7318864  80.6326625  59.0852552  38.3610736  81.1044734
  57.5769032  39.7733966  82.9753157  56.9245134  38.9793339  82.3122628
  57.4691619  39.8579107  84.3035081  58.0892444  40.4638983  84.8215584
  56.5661259  38.9962399  85.0486977  56.5814869  37.9479069  84.7506015
  56.8392175  39.0819796  86.5700864  56.9512098  40.1320355  86.8401595
  55.6892824  38.4580707  87.3940864  55.5769823  37.4078245  87.1248790
  55.9183197  38.5377354  88.4567698  54.7607129  38.9881856  87.1823356
  58.1938253  38.4883361  86.8674232  58.9608353  39.0434111  86.3273405
  58.3897043  38.5469384  87.9380757  58.2110867  37.4451167  86.5519928
  55.1057076  39.3053766  84.6851940  54.2913587  38.3993800  84.4784262
  54.7826621  40.5927331  84.5736732  55.4106851  41.3232970  84.8769270
  53.4364786  40.9702530  84.1413787  52.7537670  40.4577764  84.8191484
  53.2094896  42.4826380  84.2676819  53.8797395  43.0091546  83.5882370
  52.1761777  42.7180147  84.0128005  53.4110893  42.7965427  85.2918502
  53.1213646  40.4464691  82.7213084  51.9766605  40.0559455  82.4078635
  54.1202899  40.4934002  81.8437391  54.9953819  40.9272099  82.1008822
  53.9649020  40.0113971  80.4842489  53.0681451  40.4395981  80.0363984
  55.1746130  40.4201012  79.6422833  56.0657509  39.9947378  80.1038442
  55.0477160  40.0008984  78.6441519  55.3279289  41.9332924  79.5417417
  54.5245811  42.3020515  78.9039721  55.2107122  42.3416059  80.5455556
  56.9045181  42.4631843  78.8700080  56.4617622  42.1937628  77.2166646
  55.6003169  42.8124621  76.9652244  57.2981591  42.4557788  76.5686765
  56.2078828  41.1433146  77.0745202  53.7499038  38.4944525  80.4615339
  52.8464556  38.0008150  79.7675235  54.5605245  37.7607546  81.2239822
  55.3363693  38.2083373  81.6907090  54.4013233  36.3106413  81.3746490
  54.5458973  35.8277077  80.4082264  55.4401162  35.7455971  82.3693265
  55.3020695  36.2130445  83.3442809  55.3067064  34.6677341  82.4615953
  56.4453738  35.9568670  82.0047425  52.9934686  35.9847206  81.8404180
  52.3496083  35.0696455  81.3251632  52.5170884  36.7595967  82.8139955
  53.0517812  37.5355834  83.1773790  51.2253299  36.4746595  83.4108980
  51.1630232  35.4360246  83.7356358  51.0658340  37.3800615  84.6345222
  51.9506788  37.2156349  85.2494310  51.0714752  38.4024551  84.2566605
  49.8573284  37.1641412  85.4466563  48.9823949  37.4373090  84.8567652
  49.7977792  36.1099299  85.7172010  49.9009903  38.0156902  86.7189503
  50.1147942  39.0459903  86.4345764  48.9229633  37.9669452  87.1976846
  50.9176803  37.5725566  87.6802324  50.9117921  36.5869018  87.9005714
  51.8118800  38.3567936  88.2894582  52.6804637  37.8249300  89.1440326
  52.6598069  36.8320379  89.3279855  53.3569671  38.4162234  89.6053512
  51.8397313  39.6657546  88.0819649  51.1738779  40.0882074  87.4508763
  52.5266773  40.2345916  88.5559148  50.1070141  36.6992046  82.4046688
  49.1375581  35.9419578  82.3555725  50.2300509  37.7588546  81.6056414
  50.9712818  38.4334208  81.7306875  49.2210707  38.0192071  80.5780220
  48.2266210  38.0229062  81.0242901  49.4721578  39.3882175  79.9268601
  49.7581395  40.0674571  80.7299462  50.3122032  39.2592344  79.2443742
  48.2947538  39.9663682  79.1731893  48.6192477  40.9068914  78.7279695
  48.0323967  39.2625152  78.3833401  47.0844732  40.2143590  80.0508393
  46.7014969  39.2593927  80.4106552  47.3786110  40.8306262  80.9004257
  46.0181318  40.9170470  79.2707761  46.3841046  41.9020706  78.9811335
  45.7943512  40.3356967  78.3763191  44.7857741  41.0670019  80.0840866
  44.9928215  41.6060325  80.9127464  44.0796403  41.5426636  79.5407442
  44.4462526  40.1543528  80.3522204  49.1883904  36.9089866  79.5526316
  48.1243025  36.4495461  79.1744606  50.3538665  36.4233670  79.1491431
  51.2154885  36.8831467  79.4066495  50.4183577  35.3162587  78.2207014
  49.7160245  35.4827953  77.4039439  51.8339729  35.1748632  77.6312824
  52.0322744  36.1582832  77.2050654  52.5593363  34.9674262  78.4179957
  51.9507112  34.1156212  76.5405906  51.6730670  33.1490597  76.9610348
  51.0141416  34.4467649  75.3331176  51.2914950  35.4130408  74.9118281
  51.1175121  33.6751845  74.5701766  49.9795919  34.4832437  75.6744045
  53.4163613  33.9566593  76.0978547  54.0234316  33.6541494  76.9511149
  53.4808285  33.1967437  75.3190906  53.7841544  34.9063609  75.7094039
  49.9113806  34.0195232  78.8572809  49.1987393  33.2552796  78.2093797
  50.1981586  33.8378257  80.1407642  50.8432057  34.4392208  80.6330419
  49.7110491  32.6500066  80.8182155  49.8795779  31.7886300  80.1718970
  50.4033636  32.3998437  82.1541545  51.4795344  32.4005583  81.9810789
  50.1434647  33.2175128  82.8264415  49.9897348  31.0694519  82.7861126
  49.0161668  31.2221390  83.2518947  49.9053868  30.3085721  82.0101943
  50.9609867  30.5785861  83.8428044  51.7561277  31.3410672  84.3739722
  50.9107466  29.2733678  84.1273478  51.5330200  28.8869100  84.8227094
  50.2507441  28.6796658  83.6456673  48.1877598  32.6421216  80.9569154
  47.5576495  31.5868932  80.8680629  47.6108122  33.8192921  81.1516081
  48.1476721  34.6695005  81.2466160  46.1571832  33.9105793  81.2035133
  45.7957992  33.3382611  82.0578861  45.6759202  35.3577186  81.3449404
  46.2183078  35.8959881  80.5676497  44.6064246  35.4043979  81.1397567
  45.9582088  35.9894830  82.6831284  46.2664811  35.2590771  83.6576033
  45.7988731  37.2436889  82.7541812  45.5609874  33.3574609  79.8857490
  44.5600514  32.6545054  79.8964060  46.1344389  33.7609770  78.7496935
  46.8300482  34.4929473  78.7708231  45.7193069  33.2427175  77.4580594
  44.6507647  33.4065594  77.3185147  46.4900412  33.9468768  76.2911634
  47.5621511  33.8216924  76.4428483  46.0992397  33.3445674  74.9817915
  45.0272641  33.4697807  74.8291784  46.6407872  33.8412484  74.1767233
  46.3440052  32.2824040  74.9823695  46.1704036  35.4247356  76.2784264
  46.4709958  35.8701992  77.2267453  46.7106633  35.9068406  75.4636909
  45.0988075  35.5640123  76.1356515  45.8948413  31.7241690  77.4131714
  44.9609610  30.9821005  77.0624495  47.0872405  31.2645842  77.7412752
  47.8331543  31.8844352  78.0232266  47.3663621  29.8512251  77.6594699
  47.2368513  29.5119309  76.6317512  48.8142016  29.5493825  78.0996388
  49.4397072  29.8941614  77.2762498  49.1483345  30.0129156  79.0278588
  49.0634286  28.0805668  78.2406784  49.1180020  27.2836527  77.1235935
  49.0508270  27.7365366  76.1344102  49.2575753  25.9115994  77.2489140
  49.3183511  25.2983754  76.3498237  49.3184460  25.3324770  78.4657085
  49.3960608  24.2486425  78.5516073  49.2822498  26.1160190  79.6056290
  49.3973090  25.6698892  80.5934700  49.0967103  27.4860575  79.4800803
  48.9753682  28.1034282  80.3701530  46.4131250  29.0032843  78.5093271
  45.8330349  28.0322750  78.0484665  46.3009533  29.3435307  79.7824347
  46.7757300  30.1582770  80.1442010  45.5100369  28.5312706  80.7105089
  45.8740227  27.5039188  80.6977861  45.6177353  29.0716952  82.1418436
  45.3145292  30.1178037  82.0991567  44.8986514  28.5095506  82.7376723
  47.0074539  28.9679504  82.7856893  47.6743304  29.5431536  82.1434138
  46.9501968  29.4412909  83.7658779  47.5440633  27.5561600  82.9365502
  46.7532687  26.5762644  82.9496121  48.7675926  27.4099889  83.0659261
  44.0517148  28.5179330  80.2827333  43.3723589  27.4761777  80.4062751
  43.5537290  29.6602739  79.7835175  44.0867773  30.5181196  79.7758093
  42.1750275  29.7009707  79.3219507  41.5290125  29.2760077  80.0901761
  41.7148662  31.1241032  79.0314295  41.8510433  31.7009980  79.9461684
  42.3649366  31.5212790  78.2518398  40.2467851  31.2239333  78.5755678
  40.0416576  32.2688146  78.3426587  40.1377100  30.6228232  77.6728656
  39.0775287  30.6547184  79.8067143  39.4585461  31.7209002  81.2395232
  39.3087380  32.7653155  80.9659300  38.7993247  31.4649788  82.0690002
  40.4953238  31.5696944  81.5400727  41.9717993  28.8200931  78.1054550
  41.0491684  27.9772191  78.0569924  42.8474581  28.9535089  77.1133180
  43.6185283  29.6055186  77.1341383  42.6716902  28.1258416  75.9211655
  41.6598067  28.2552282  75.5371733  43.6611017  28.5111833  74.8268344
  44.6627638  28.3642231  75.2307836  43.5023870  27.8276808  73.9927277
  43.5204814  29.9005481  74.3565151  43.4564345  30.5414202  75.2358795
  44.4182340  30.1495557  73.7907081  42.2800895  30.1184465  73.4719174
  42.2867485  29.5037379  72.5718130  41.3435154  29.9661787  74.0083343
  42.3720507  31.5207264  73.0808826  42.7934476  31.7000214  72.1806730
  41.9958360  32.5565945  73.8221153  41.3027266  32.3881523  74.9608601
  41.0585559  31.4570888  75.2668034  41.0290662  33.1933705  75.5056843
  42.2722382  33.7750245  73.3932026  42.7601184  33.9003643  72.5177811
  41.9944171  34.5756533  73.9426639  42.8658581  26.6306407  76.2418807
  42.1328481  25.7712430  75.7296844  43.8740354  26.3194484  77.0475188
  44.4945383  27.0268266  77.4145225  44.1479242  24.9223518  77.3721235
  44.2581017  24.3377861  76.4587545  45.4362323  24.8270404  78.1669354
  46.2390655  25.4147194  77.7217483  45.2416131  25.1856583  79.1776859
  45.9551798  23.4219954  78.3014086  46.4127629  22.7163748  77.1942034
  46.4185097  23.1884223  76.2117381  46.8593286  21.4194394  77.3387848
  47.1682741  20.8615760  76.4547929  46.9173816  20.8301777  78.5772647
  47.2883922  19.8118382  78.6931774  46.5005813  21.5400201  79.6794767
  46.5441391  21.0753813  80.6645218  46.0316333  22.8261983  79.5458641
  45.7159637  23.3854491  80.4265974  42.9653287  24.3041348  78.1514704
  42.5771014  23.1583536  77.9048816  42.3904968  25.0664731  79.0799696
  42.7706328  25.9794263  79.2851827  41.2548469  24.5979998  79.8654764
  41.5562369  23.6486566  80.3082073  40.9162277  25.5643918  80.9784115
  40.6038011  26.5170045  80.5506045  40.1063896  25.1547700  81.5821270
  41.7940910  25.7189032  81.6057722  40.0119042  24.3587927  79.0341903
  39.2115205  23.4772358  79.3699155  39.8511946  25.1204768  77.9549874
  40.5313992  25.8454121  77.7764105  38.6904749  25.0149452  77.0545332
  37.8055449  24.7396728  77.6283130  38.4235703  26.3463955  76.3541482
  39.3553353  26.6222732  75.8603823  37.6599136  26.1467232  75.6024439
  37.9664649  27.4898880  77.2504766  38.6627300  27.5286278  78.0882207
  38.0551823  28.4033662  76.6624384  36.5846134  27.3664450  77.7635704
  35.9133613  27.2211594  76.9171593  36.5356722  26.4968084  78.4188844
  36.1588377  28.6239807  78.5465780  36.9815725  28.9621876  79.1765178
  35.8853537  29.4167862  77.8503272  35.0191217  28.2968499  79.3765230
  35.2724535  27.5625342  80.0220486  34.7331201  29.1159010  79.8936868
  34.2565034  27.9838434  78.7929655  38.8450057  23.8987091  76.0192525
  37.9474357  23.6686032  75.2151491  39.9991353  23.2423866  75.9857935
  40.7711752  23.5494286  76.5600573  40.1996627  22.0945082  75.1190034
  40.0685930  22.3949093  74.0794463  41.5993886  21.5230040  75.2870645
  42.3118423  22.3153409  75.0574752  41.7133207  21.2233113  76.3288437
  41.8596859  20.3415803  74.3948329  41.2253446  19.5258310  74.7416257
  41.5654107  20.6256859  73.3844923  43.5833305  19.7897110  74.3794899
  43.8490049  19.2761807  76.0642108  43.1535248  18.4750387  76.3143666
  44.8719316  18.9173993  76.1782179  43.6843700  20.1214016  76.7324909
  39.1456809  21.0355795  75.4734966  39.1278728  20.5559893  76.5984544
  38.2631224  20.6734856  74.5199849  38.0628367  21.2193647  73.1557681
  38.7071473  20.6977994  72.4480013  38.2967305  22.2838970  73.1429734
  36.6076700  20.9509859  72.9154439  36.4037968  20.8681737  71.8478874
  35.9956352  21.7461873  73.3410840  36.3615700  19.6415002  73.6272270
  36.6998889  18.8094246  73.0097406  35.3107733  19.5013689  73.8807800
  37.1946127  19.7159528  74.8942217  36.6613497  20.1712128  75.7287678
  37.7242487  18.3543125  75.3145196  38.6848662  17.8486532  74.7399278
  37.1788196  17.6947198  76.2308195 100.3966965  60.7915011  57.3219076
 100.5084814  61.3388666  56.4804826  99.8081854  59.9968164  57.1164052
 101.3047428  60.6523243  57.7416472  99.6738017  61.5585162  58.2480647
  98.7516910  61.0366170  58.5038622 100.4758429  61.7974191  59.5356750
 100.8483490  60.8321947  59.8787207 101.3176712  62.4437714  59.2873730
  99.6332683  62.4552564  60.6597435 100.2398511  62.4354148  61.5651520
  99.4585179  63.4893395  60.3626972  98.1223506  61.6939978  60.9742845
  97.5501839  62.3185343  62.6217617  97.4388404  63.4020827  62.5814556
  96.5909691  61.8642226  62.8699721  98.2835985  62.0573015  63.3846258
  99.3439745  62.9042722  57.7075456 100.1994919  63.4259668  56.9763277
  98.2016786  63.4784789  58.1111045  97.5491820  62.9289862  58.6518497
  97.8597818  64.8924282  57.8220650  98.0372619  65.1444731  56.7765635
  96.3426189  65.0522280  58.1209408  96.1918540  64.9466484  59.1952881
  96.0346879  66.0497924  57.8076618  95.5527269  64.0645439  57.4252098
  94.6242976  64.1932640  57.6326947  98.6029019  65.9746321  58.6733191
  98.7843110  65.8332143  59.8746503  99.0131113  67.0356775  57.9967862
  98.5711618  67.0725994  57.0893631 100.0335646  68.0526183  58.3202989
 100.0147679  68.2116136  59.3984763 101.4023352  67.6911159  57.9224041
 101.5258969  67.5760017  56.8455660 101.8590285  68.6278337  58.2419210
 102.0940565  66.4982670  58.6559157 101.9926644  66.3394402  60.0647424
 101.3929381  67.0412017  60.6443619 102.6580789  65.2883853  60.7086804
 102.6383274  65.2785240  61.7984577 103.2267628  64.2169995  60.0090062
 103.8777270  63.1804217  60.6312738 103.8993351  63.2707018  61.5867749
 103.2158806  64.3077885  58.6259932 103.6681819  63.5123268  58.0337393
 102.6383265  65.3945632  57.9970766 102.5849188  65.4295804  56.9089491
  99.5012992  69.3405622  57.6517856  99.1588677  69.3425185  56.4791480
  99.4622780  70.4360511  58.3947084  99.7314076  70.2721841  59.3543001
  98.8785952  71.7425110  58.0466812  98.9455395  71.9065734  56.9711808
  97.3881506  71.7853465  58.4616884  97.3199347  71.8953807  59.5439722
  96.9349046  72.6515512  57.9796536  96.6038726  70.5205149  58.0433213
  96.2456426  70.3114354  56.8460001  96.3079181  69.6196347  58.9321131
  95.7955112  68.7935189  58.6581213  96.5917246  69.7498904  59.8926276
  99.7413858  72.9098580  58.5065881 100.7567250  72.7860054  59.3138253
  99.3488169  74.1102305  58.1145619  98.5924303  74.1356033  57.4457309
  99.9891499  75.3454136  58.4643010 100.4904579  75.2973550  59.4309861
 101.0058675  75.5527474  57.4158564 101.8373484  74.8605225  57.5483833
 100.4568187  75.2913568  56.5112458 101.5407861  76.9674708  57.2915143
 100.9219077  77.7969946  56.3506919  99.9847565  77.5033730  55.8777928
 101.5276007  79.0310519  56.0149904 101.1132238  79.6789525  55.2425797
 102.5123662  79.5183648  56.8837735 103.0974788  80.6834546  56.6004450
 102.7658963  81.0831796  55.7930587 103.0698562  78.7218539  57.8740186
 103.9330211  79.0588892  58.4479994 102.5097243  77.4764924  58.1286868
 102.8363916  76.8984431  58.9931216  98.9003626  76.4119470  58.6248678
  97.8051802  76.2730611  58.0166144  99.1793882  77.3784033  59.4841772
 100.0485908  77.3049082  59.9932792  98.1898191  78.3640062  59.9354930
  97.6240826  78.8549514  59.1436507  97.1781118  77.7437478  60.9647241
  96.6658944  76.9061338  60.4912946  97.8731086  77.2751269  62.1640984
  98.3852195  78.1123327  62.6383660  97.1504521  76.8501714  62.8607195
  98.6021061  76.5132972  61.8879103  95.9903653  78.6543393  61.3002943
  95.4301022  78.8715529  60.3908848  95.3391317  78.1537159  62.0167932
  96.3565825  79.5857905  61.7320170  98.7171588  79.7683627  60.3511250
  99.6867291  79.8162526  61.0699330  98.1741025  80.8307956  59.6753749
  97.3542921  80.7044953  59.0991298  98.8874949  82.1346304  59.6108228
  99.3129338  82.5554099  60.5218912  99.9691994  82.1564035  58.5038899
 100.6934456  81.3872479  58.7721555  99.4812721  81.9176900  57.1023790
  98.7572823  82.6867737  56.8332137 100.3241529  81.9554197  56.4122855
  99.0080443  80.9375206  57.0438557 100.9065729  83.2913575  58.5912742
 101.4301939  83.2580660  59.5466876 101.6302463  83.2289748  57.7785597
 100.3531576  84.2271709  58.5132638  97.8578700  83.2468229  59.5415873
  96.8056106  82.9930342  58.9748787  98.0203516  84.4356184  60.2043572
  98.6623649  84.3608226  60.9804524  97.3779161  85.6938276  59.9739310
  96.3450280  85.4364823  60.2084832  97.8759855  86.7344729  61.0081715
  98.9471281  86.8665329  60.8554824  97.1905541  88.0530637  60.8859785
  96.1193552  87.9218702  61.0390172  97.5831637  88.7382331  61.6373105
  97.3673818  88.4643425  59.8921565  97.3847078  86.3337208  62.2766009
  97.6755771  86.9589290  62.9445156  97.6571464  86.1740654  58.4771184
  98.8107487  86.4342822  58.1838797  96.6356583  86.3842075  57.7040328
  95.7302376  86.0817731  58.0339512  96.7135006  87.0633283  56.3883594
  97.6935595  86.9506489  55.9248003  95.6298074  86.4873295  55.4144377
  94.6419789  86.6013010  55.8608741  95.6654339  87.0289053  54.4691723
  95.8269997  85.4304843  55.2347363  96.4381663  88.5467150  56.5789342
  96.9211748  89.3480167  55.8235698  95.7778372  88.9460723  57.6531866
  95.5831603  88.1888671  58.2925929  95.3117373  90.2548699  57.9905541
  96.0393224  91.0204074  57.7209776  94.0056917  90.4979662  57.1720145
  94.3136407  90.7519986  56.1577492  93.4621902  89.5532079  57.1602796
  93.1402871  91.5501902  57.6952387  92.4230395  91.6192331  56.8773818
  92.6194725  91.2746606  58.6122652  93.7920535  92.9296100  57.8954150
  94.5377072  93.3311620  57.0330610  93.7068348  93.5919968  59.0373846
  94.1491920  94.4954571  59.1278327  93.1998083  93.1911867  59.8135140
  95.0180906  90.4359090  59.5241781  94.1970372  89.7535649  60.1216761
  95.8561465  91.3046606  60.1266122  96.6223043  91.6538216  59.5687697
  95.8724071  91.5653961  61.5777988  96.0359649  90.6517373  62.1492667
  97.0100786  92.4968474  61.8319325  97.1744211  92.4965411  62.9094716
  97.8783242  92.0670852  61.3323785  96.8047826  93.9224802  61.3520901
  96.9270087  94.0025225  60.2719259  95.8231931  94.3024546  61.6352925
  97.8719061  94.7304357  62.0383149  97.6418110  94.7267940  63.1037454
  98.8196361  94.2189692  61.8700617  97.9807564  96.2183352  61.5297683
  98.7012462  96.7230367  62.1734074  98.3684834  96.1794631  60.5118017
  96.6558466  96.9902184  61.5425906  96.2966172  97.0267246  62.4858409
  96.8100855  97.9293597  61.2044722  95.9882192  96.5229516  60.9459044
  94.5113043  91.9271411  62.1993499  93.5377127  92.3345754  61.4433435
  94.3073196  91.7683509  63.4930430  95.2840941  91.2573716  64.3905778
  95.9983254  92.0576099  64.5844657  95.7900219  90.4336500  63.8869720
  94.5374032  90.7976636  65.6771544  95.1582848  90.9009335  66.5670648
  94.1859731  89.7689626  65.5973268  93.3374058  91.7963495  65.7001493
  93.6009503  92.6980598  66.2529258  92.4579599  91.3377069  66.1521688
  93.0471102  92.1512120  64.2231189  92.2422674  91.5451952  63.8071020
  92.6692509  93.6634369  64.1139755  93.6641649  94.4491769  64.2304738
  91.3950515  94.0403100  64.0035239  90.6394620  93.3714293  64.0457428
  91.0622381  95.4480223  63.8416834  91.9556729  96.0672445  63.9219167
  90.4096266  95.7082849  62.4910929  90.0858302  96.7486108  62.4598160
  91.4124595  95.4311493  61.2949307  91.7363534  94.3908265  61.3252766
  90.9113800  95.6276364  60.3470851  92.2801281  96.0841679  61.3888375
  89.2489193  94.9623656  62.1978663  88.9238613  95.2051195  61.3278042
  90.0658895  95.9711918  64.8856638  89.8860602  97.1878694  64.9506638
  89.3919714  95.1231251  65.6567944  89.4944447  94.1555708  65.3858014
  88.4280929  95.4478391  66.6714136  87.9137593  96.3277434  66.2849831
  87.4379254  94.3705440  66.8668866  87.9364422  93.4854866  67.2621768
  86.6742601  94.7015688  67.5706892  86.9709190  94.1279959  65.9123319
  89.1358888  95.9224267  67.9733247  90.0142183  95.3070669  68.5266759
  88.6604737  97.0612672  68.5367205  87.9756467  97.6506146  68.0852994
  89.2423518  97.5165179  69.8076027  90.2815954  97.2146360  69.9377532
  89.1584577  99.0245555  69.9217840  88.1356253  99.3188056  69.6865607
  89.5294738  99.5392877  71.3139434  90.5524040  99.2458029  71.5497006
  89.4503280 100.6262435  71.3330095  88.8503946  99.1130562  72.0523740
  89.9998916  99.7775441  68.8899704  89.6668045  99.5134929  67.8862613
  89.8845044 100.8510035  69.0398712  91.0488352  99.5054836  69.0074498
  88.5854036  96.8253483  70.9417269  87.4503586  97.2243910  71.3479324
  89.2226936  95.8444290  71.5264027  90.0775318  95.4953146  71.1171716
  88.6903849  95.1652704  72.6719166  87.6034064  95.1070905  72.6154185
  89.2686445  93.7096807  72.7033543  90.3409611  93.9040346  72.6818365
  89.0158542  93.1707210  73.6164367  88.9187753  92.8638328  71.5436238
  89.6296600  92.6393619  70.5605242  87.7060028  92.4319631  71.4936276
  87.4120070  91.8494174  70.7227147  87.0549954  92.6779911  72.2255841
  88.9230942  95.8971250  73.9895903  88.1363925  95.6484167  74.9302952
  89.8840620  96.7626493  74.0212528  90.5206066  96.8778448  73.2455981
  90.0631309  97.5743705  75.1581891  89.0829974  97.9675388  75.4281082
  90.4279880  96.9293320  75.9575038  91.0207676  98.7242815  74.9803138
  91.8617437  98.7618206  74.1213150  90.7804212  99.7928525  75.7424100
  90.0093096  99.7727844  76.3943942  91.6412002 101.0265695  75.6930459
  92.6473775 100.7427622  75.3845661  91.1018762 102.0758905  74.7056371
  91.7163844 102.9745991  74.6527040  90.9462481 101.6830835  73.7008572
  89.5080791 102.6028203  75.2802061  89.2824439 103.4649734  74.2929477
  91.7427837 101.7902799  77.0465277  90.8627509 101.8053376  77.9332061
  92.7654098 102.5843914  77.1775505  93.4378936 102.7197471  76.4362383
  93.0004399 103.2663152  78.4729639  92.1298760 103.7899286  78.8679913
  93.5186043 102.2434957  79.5709120  92.8599413 101.3766406  79.5177659
  94.9667363 101.7911001  79.4191293  95.6260772 102.6574183  79.4726391
  95.2163617 101.0951492  80.2200288  95.0944894 101.2968628  78.4560560
  93.3617963 102.6433608  81.0177182  92.3059105 102.7971729  81.2403145
  93.7564125 101.8544780  81.6580630  93.9096515 103.5676407  81.2011907
  93.9858399 104.3956612  78.2699433  94.8891815 104.2486046  77.4556317
  93.8973818 105.4984235  79.0644421  93.1146394 105.6049462  79.6937804
  94.9256847 106.5140472  79.0718320  95.9193990 106.3873276  78.6422121
  94.2906630 107.8165992  78.4860275  95.0418237 108.5811844  78.6841875
  93.8717655 107.8846904  77.0269338  93.1202265 107.1206493  76.8281127
  93.4540173 108.8686536  76.8138562  94.7401456 107.7136783  76.3907173
  93.2859750 108.5182799  79.2395115  92.9986600 109.2910442  78.7476927
  95.4722571 106.8955932  80.4800973  94.8571737 106.8194012  81.5644834
  96.6616473 107.4049241  80.3449232  97.1011170 107.5126693  79.4419522
  97.4023910 107.8425308  81.5374001  96.8469932 108.6623209  81.9930059
  97.4440536 107.0028166  82.2311173  98.8050671 108.3049272  81.2428608
  99.0970926 108.5679421  80.0942815  99.6524883 108.4633155  82.2556547
  99.3002478 108.1235267  83.1391531 101.0075288 109.0353448  82.2184953
 101.1755541 109.5507054  81.2728368 101.1715052 110.0839663  83.4056258
 100.5866945 109.6445223  84.2137005 102.1708375 110.3229224  83.7694045
 100.5128359 111.3959801  83.0604585 100.2947115 112.3990501  84.0131664
  99.7005470 113.3865119  83.3825081  99.3211822 114.2367205  83.9493650
  99.6804929 113.1274818  82.0712133  99.3352762 113.7392892  81.3455295
 100.1948543 111.9178950  81.8684491 100.2891559 111.5287004  80.8546759
 102.0092209 107.8382292  82.4237779 102.3880437 107.4772490  83.5155909
 102.3166533 107.1189412  81.3489601 102.0844775 107.4885315  80.4381381
 103.0056382 105.7558738  81.4241191 102.9878700 105.3201247  82.4230717
 102.1291062 104.8463327  80.4571074 101.1512262 104.6649827  80.9031592
 102.0026567 105.3440064  79.4956338 102.7606910 103.4209128  80.1515048
 102.8921367 102.4644525  81.2025155 102.5450943 102.6760491  82.2138950
 103.5022145 101.1908529  80.9000832 103.5873109 100.4390972  81.6847632
 103.9717489 100.9231592  79.6411144 104.4165374  99.9479151  79.4432202
 103.8861911 101.9002235  78.5909896 104.3525558 101.7160048  77.6231738
 103.1971192 103.0959150  78.8190158 102.9939556 103.7743957  77.9904699
 104.4456777 105.8126853  80.9660562 105.2528382 104.9017851  81.1899172
 104.7749924 106.9206117  80.2061674 104.1568260 107.7036046  80.0483963
 106.1482116 106.9673411  79.6069719 106.5872929 105.9935847  79.8240094
 106.0276383 107.1191168  78.1109922 107.0328164 107.1321371  77.6896282
 105.2230805 105.9806280  77.4763909 104.2175702 105.9672637  77.8969501
 105.1636557 106.1337337  76.3988351 105.7146655 105.0295674  77.6811554
 105.2620113 108.2388388  77.7782717 105.2009362 108.3123589  76.8230413
 106.9673876 108.1382137  80.1049621 108.2022891 108.0149465  80.1691454
 106.2928493 109.2062245  80.5878774 105.3950387 109.2547536  80.1277900
 106.6449237 110.2717597  81.5550212 106.4085714 109.9669909  82.5745077
 108.1893637 110.5308443  81.4543925 108.7264883 109.6445618  81.7921792
 108.4528939 110.7417556  80.4179716 108.5393702 111.6184686  82.2530881
 109.4846994 111.7723633  82.1877506 105.8809184 111.5716976  81.3729015
 105.2823438 111.7830083  80.3191439 105.6185198 112.2317808  82.5451861
 106.2727021 112.1233340  83.3070156 104.4353855 113.0352595  82.7659758
 103.5553090 112.3922242  82.7575916 104.5866230 113.6455739  84.1748216
 105.4585979 114.2992485  84.1964870 103.6946089 114.2223916  84.4191418
 104.7136663 112.8468902  84.9056180 104.2125440 114.1116466  81.7521994
 103.0832190 114.4621328  81.5183779 105.2079791 114.6594284  81.0164515
 106.1582863 114.3791909  81.2126211 104.9815364 115.6878816  79.9856054
 104.5355074 116.5901886  80.4039347 106.3377363 116.0346376  79.4295775
 106.1375981 116.8435454  78.7269309 106.8841497 116.4262380  80.2875878
 107.1689803 114.9659343  78.7461831 106.4053622 114.2761772  78.3867064
 107.6588134 115.4402052  77.8957539 108.2076933 114.1943812  79.5688052
 108.0053865 113.8276273  80.7348140 109.3128313 114.0206454  78.9776447
 104.0172315 115.3060558  78.8319858 103.3271692 116.1575786  78.2492149
 103.9234076 114.0351842  78.5434440 104.5626824 113.4195383  79.0255303
 102.9449592 113.4252156  77.5508519 102.5700262 114.2182924  76.9038946
 103.5865266 112.3158902  76.6595593 103.8034215 111.4426983  77.2748575
 102.7972390 112.0717312  75.9485661 104.8129114 112.7177683  75.9197719
 105.7176732 111.9421452  75.7147551 104.8802809 113.8444631  75.4481511
 101.7555558 112.7822481  78.2504613 102.0010691 112.1660261  79.2895377
 100.5616033 112.8303298  77.7359767 100.4147613 113.5660284  77.0597487
  99.3677110 111.9812174  78.1493185  99.5989092 111.4673802  79.0823875
  98.1115689 112.8341410  78.3581471  98.2417819 113.4806055  79.2260339
  98.1252692 113.4378724  77.4507217  96.7353229 112.0831638  78.4665453
  96.4998357 111.6468446  77.4958382  96.7887587 110.9770528  79.5233125
  97.0237570 111.4126917  80.4944424  95.8221198 110.4759916  79.5747679
  97.5585056 110.2537096  79.2543056  95.7464875 113.1160934  79.0095324
  95.6861762 113.9590321  78.3211167  94.7620521 112.6592257  79.1108250
  96.0855681 113.4671562  79.9841494  99.2474359 110.8921968  77.0875040
  98.8879060 111.1444395  75.9179354  99.6473697 109.6260707  77.4398287
  99.9545087 109.5282236  78.3970073  99.6245776 108.3960816  76.5667758
 100.0199493 108.6691660  75.5884071 100.4590391 107.2079456  77.1262988
  99.8691219 106.9722619  78.0120472 100.4623860 106.3501378  76.4538001
 101.8802310 107.4916577  77.5541106 102.1684312 107.7838698  78.6923402
 102.7462717 107.5711939  76.6042877 103.7144694 107.7588038  76.8222224
 102.4531676 107.4455826  75.6459493  98.1704422 107.7887298  76.4075642
  97.3521217 107.8258883  77.3459355  97.8099959 107.3234213  75.2238361
  98.4536372 107.5176638  74.4701153  96.6133932 106.5010013  74.9310333
  95.9438649 106.5198133  75.7909619  95.8330944 107.0442885  73.6728498
  95.3160557 107.9781622  73.8934176  96.6960140 107.2482956  73.0389327
  94.8618633 106.0753506  72.9319777  95.4140313 105.1927136  72.6092342
  93.7435950 105.6592399  73.8512568  93.1906469 106.5413605  74.1740733
  93.0713950 104.9827014  73.3234846  94.1583484 105.1521080  74.7224039
  94.0707529 106.8468774  71.8233295  94.7716815 107.2688695  71.1031065
  93.3958597 106.1597246  71.3129949  93.4930483 107.6500518  72.2807866
  97.2524562 105.1133373  74.5824473  97.9694787 104.9689243  73.5799810
  96.7993246 104.0378473  75.2242377  96.2133424 104.3153666  75.9986453
  97.0719443 102.5807885  75.0281429  97.8100403 102.4618093  74.2349485
  97.6136155 101.9125592  76.3104798  96.7684315 101.9375488  76.9983306
  97.8685800 100.8767461  76.0864613  98.7983665 102.5953268  76.9455701
  99.3635467 103.0983388  76.1609357  98.3805159 103.5946955  77.9775797
  97.8156411 103.0923151  78.7628372  99.2648911 104.0629387  78.4097018
  97.7561560 104.3579590  77.5131404  99.7446528 101.5595901  77.5655634
 100.1003878 100.8814534  76.7898814 100.5945070 102.0690855  78.0197259
  99.2124932 100.9911434  78.3283042  95.7577135 101.8835397  74.5238933
  94.6506257 102.0674447  75.0630654  95.9069619 101.0233585  73.4927322
  96.8578546 100.9202354  73.1682819  94.8393882 100.2470379  72.8063455
  93.9255659 100.3069581  73.3974779  94.5806765 100.8604903  71.3741341
  95.5535310 101.1539987  70.9797899  93.8841379  99.9123672  70.3726285
  92.9109540  99.6187753  70.7660973  93.7507602 100.4241764  69.4195479
  94.4985989  99.0243078  70.2246851  93.6371483 102.1024054  71.6383448
  92.6031328 101.9053480  71.3553587  93.6721268 102.4367079  72.6752237
  94.2146808 103.1908316  70.7323991  94.1796089 102.8574169  69.6952373
  93.6280334 104.1031421  70.8402586  95.2486043 103.3887752  71.0151012
  95.2010917  98.7388057  72.6288880  96.2341033  98.3346388  72.1105578
  94.2321091  97.8981667  73.0408768  93.4765794  98.2753696  73.5949456
  94.2491872  96.4570823  72.7794343  95.2428216  96.1627617  72.4415507
  93.9650583  95.7732913  74.1021805  92.9697373  96.0510888  74.4489726
  94.0150249  94.6923550  73.9711066  94.7058198  96.0840551  74.8389284
  93.2521226  96.0063779  71.6985509  92.0940869  96.3327022  71.7337180
  93.7579317  95.1679263  70.7221288  94.7578257  95.0306116  70.6839715
  92.9310127  94.5189786  69.7089585  91.8743301  94.6632876  69.9341161
  93.2370531  95.1526908  68.2929224  94.1798578  94.7402982  67.9335466
  92.4339200  94.8678155  67.6132731  93.3398099  96.7111892  68.3532691
  92.4254356  97.1391034  68.7642555  94.1893841  97.0150348  68.9648275
  93.5331428  97.1997822  66.9552179  94.3164855  96.5995892  66.4923558
  92.5980247  97.0555453  66.4140622  93.9370599  98.7135764  66.9055057
  93.0458788  99.3038831  67.1186599  94.6810979  98.8861044  67.6831565
  94.4824183  99.1081396  65.6177378  93.7929769  98.9487535  64.8970671
  94.7248615 100.0883366  65.6408728  95.3084595  98.5615640  65.4202283
  93.1492482  93.0267454  69.6780035  94.1631870  92.5938825  69.0349025
  92.3788453  92.1259759  70.2836194  91.5031130  92.5050335  70.6145389
  92.7111898  90.7316747  70.6274103  92.1146627  90.4068627  71.4799076
  92.4078628  89.7895674  69.4175604  91.4195394  89.9996511  69.0086829
  93.1552714  89.8920430  68.6308081  92.4298463  88.3228959  69.9362013
  91.8966780  88.0694996  70.9666381  93.0261060  87.3791235  69.2774586
  93.0238461  86.4360174  69.6389078  93.4901544  87.5912997  68.4058273
  94.1470999  90.5286384  71.1608316  94.3647828  90.5142074  72.3306102
  95.1705016  90.3553873  70.2679744  94.9187799  90.4498288  69.2944158
  96.5444936  90.0319938  70.5938451  96.8490263  89.9390561  71.6363045
  96.9701976  88.7993627  69.8595484  98.0601972  88.7993350  69.8585640
  96.4612825  87.4824028  70.4471767  95.3712835  87.4814996  70.4480624
  96.8242984  86.6503849  69.8437988  96.8250166  87.3753190  71.4691020
  96.7545784  88.9709401  68.4205176  97.0303633  88.1758463  67.9585988
  97.5549537  91.1419046  70.2604395  98.7370492  90.9194041  70.3649747
  97.0686326  92.3841350  69.9695984  96.0643119  92.4826947  70.0111333
  97.8388983  93.5172020  69.6281677  98.8809147  93.2175890  69.5162166
  97.3688158  94.1604595  68.3136212  96.3711605  94.5692108  68.4739506
  98.0568355  94.9690454  68.0668060  97.3282584  93.1459231  67.1493803
  96.6084517  92.3791828  67.4358913  96.9534730  93.6894564  66.2820802
  98.6519491  92.4918315  66.8024103  98.9899008  91.9297377  67.6730068
  98.4831863  91.8069019  65.9714530  99.6971766  93.4401538  66.4226864
  99.3320714  94.3685199  66.2647818 101.0126495  93.2519987  66.3386643
 101.4122474  92.0599826  66.4725225 100.7425516  91.3210601  66.6325263
 102.3992297  91.8524254  66.4188061 101.8323327  94.2132073  66.0528804
 101.4762495  95.1433825  65.8853127 102.8237514  94.0280649  65.9989353
  97.7517593  94.6034591  70.7144933  96.6297346  94.7828028  71.2439659
  98.8660378  95.2214178  70.9637151  99.7504797  94.8955000  70.6008934
  98.8770876  96.3389174  71.9830117  97.8645585  96.6783815  72.2012962
  99.4965821  95.8027518  73.2640261  98.7251416  95.2102882  73.7559263
 100.2837540  95.1427110  72.8995997 100.0801434  96.7846160  74.2486894
 100.5659069  97.5722100  73.6726421  99.0241740  97.4167768  75.2048731
  98.5382812  96.6297833  75.7816297  99.5180806  98.1119080  75.8838058
  98.2765832  97.9513892  74.6188713 101.0285311  96.0503672  75.1009039
 101.8159496  95.6200889  74.4820889 101.4698854  96.7335585  75.8265465
 100.5033452  95.2527314  75.6263142  99.5527382  97.6090534  71.2820839
 100.6729554  97.4927177  70.7839119  98.8699763  98.7121752  71.1441114
  98.0085526  98.7582464  71.6693980  99.3202429  99.9303067  70.4204783
 100.2927662  99.7418492  69.9657462  98.3312347 100.3218340  69.3170151
  97.3476663 100.4368044  69.7725084  98.6523738 101.2768530  68.9011926
  98.2556781  99.2621580  68.1822270  99.2268441  99.0643315  67.7285727
  97.9481779  98.3987438  68.7721920  97.2167806  99.5240233  67.0763537
  96.5744212 100.6047917  67.0474040  97.2085245  98.6796338  66.1593852
  99.2611691 101.1608085  71.3681215  98.4750177 101.1378148  72.3349335
 100.1556003 102.1115040  71.1055805 100.6718229 102.0617253  70.2388997
 100.4482216 103.2125575  72.0257159  99.6137330 103.4135507  72.6975266
 101.7356206 103.0524559  72.8438389 102.5530656 102.8132227  72.1636540
 102.0655241 104.3262221  73.6032778 101.2486878 104.5658621  74.2840507
 102.9830248 104.1823525  74.1738870 102.2018906 105.1456395  72.8975453
 101.6680217 101.7828892  73.7683797 100.9519793 102.0213228  74.5548487
 101.2710901 100.9795910  73.1476891 102.9946471 101.3323465  74.4027686
 103.3919815 102.1350120  75.0240200 102.8224159 100.4489826  75.0176702
 103.7110934 101.0932823  73.6168597 100.5536642 104.5262464  71.1738049
 101.3168195 104.6009810  70.1710618  99.8597853 105.5481554  71.5905493
  99.4244699 105.4842367  72.4996776  99.6796019 106.8071656  70.8056312
 100.5089681 106.9081032  70.1055865  98.3693662 106.8174750  70.0160003
  97.7446174 106.6480452  70.8929734  98.1857130 107.8192984  69.6277717
  98.0441581 105.8293611  68.9878799  98.1098932 106.1923548  67.6214614
  98.4190323 107.1965269  67.3313393  97.7722336 105.2451370  66.6325644
  97.8430071 105.5196375  65.5800710  97.3267096 103.9569881  66.9972656
  97.0504065 102.9979239  66.0677070  97.1915882 103.2972401  65.1665537
  97.1729896 103.6211124  68.3667292  96.8505121 102.6179413  68.6455779
  97.4338478 104.5726549  69.3580445  97.1772172 104.3624025  70.3963290
  99.6450144 108.0873997  71.6931070  99.4727154 107.9153413  72.9003248
  99.9951248 109.2565317  71.1732502 100.2560159 109.2674259  70.1975882
  99.8564714 110.5769995  71.8918427  99.2298062 110.6119338  72.7830046
 101.2432002 111.1059822  72.2495503 101.1992256 112.1705299  72.4795583
 101.6982935 110.3719446  73.4277981 101.7429686 109.3072925  73.1984055
 102.6894260 110.7231313  73.7148954 101.0025224 110.5369477  74.2504633
 102.3790052 111.2237396  71.1988147 102.0652482 111.8924337  70.3972495
 103.2748104 111.6228951  71.6745324 102.5959112 110.2387222  70.7855430
  99.3209389 111.5965050  70.8246739  99.5658959 111.4670937  69.5760936
  98.6283339 112.6527469  71.3126969  98.3858959 112.5978997  72.2916325
  98.0204647 113.7555346  70.4875622  97.7539562 113.3448700  69.5136900
  96.7058509 114.2455339  71.2041270  96.9269529 114.8595788  72.0771459
  95.9495289 115.1255103  70.1148296  95.7276642 114.5119841  69.2416385
  95.0193214 115.5061874  70.5366107  96.5828775 115.9618946  69.8191399
  95.7155412 113.1355264  71.6293365  96.2068910 112.4572415  72.3269086
  94.8485334 113.5867340  72.1118391  95.3925080 112.5794572  70.7492584
  99.0981709 114.8155352  70.1344856  99.7758311 115.4058301  71.0163102
  99.2454018 115.1248487  68.8429729  98.6679891 114.6514727  68.1628191
 100.3135005 116.0530450  68.3460446 100.6179378 116.5758135  69.2527586
 101.5689959 115.3201708  67.7423594 102.1866040 116.1135485  67.3213935
 102.4038121 114.4715192  68.6687261 101.7869564 113.6775874  69.0897498
 103.2314157 114.0315493  68.1123109 102.7971743 115.0912980  69.4744810
 101.1587974 114.3510816  66.8384433 101.9281376 113.9076322  66.4736575
  99.8177355 117.0923551  67.3320389  98.6752907 117.0098371  66.8810970
 100.6085796 118.0477876  66.8502781 101.5551844 118.1647376  67.1824849
 100.0462862 119.0856718  65.9279509  99.2761740 119.5972928  66.5052467
 101.1370288 120.1033565  65.5530476 101.9109161 119.6078791  64.9667878
 100.6966027 120.9088713  64.9654499 101.5776075 120.5155125  66.4608566
  99.3093253 118.4641790  64.6679714  98.2156053 118.8891159  64.2255393
  99.8669838 117.4630458  64.0263662 100.8037992 117.2232335  64.3178561
  99.3341323 116.8411493  62.7869095  98.7208780 117.5570241  62.2396055
 100.5123750 116.3991113  61.8768515 101.2684153 115.8870836  62.4721078
 100.1480265 115.7286318  61.0985152 101.1266432 117.6402461  61.2326433
 101.7603946 117.3058606  60.4112748 100.2754174 118.1913917  60.8329530
 101.9250794 118.5417578  62.1512136 102.5609706 118.0932626  63.1548113
 102.0399317 119.7705028  61.9634486  98.2887254 115.8250274  63.1002316
  97.8368563 115.1460924  62.1825985  97.9031477 115.5976701  64.3732236
  98.3360447 116.1728389  65.0816587  96.9329354 114.6087261  64.7909686
  96.1411282 115.1073148  65.3500301  96.5091182 114.1358982  63.9050159
  97.5629682 113.5358780  65.6726401  98.5258886 113.7521325  66.3803513
  96.9990647 112.2879288  65.6670005  96.4183508 112.0093742  64.8890043
  97.2579648 111.3248032  66.7041567  97.3498310 111.7733637  67.6933247
  96.0042483 110.4319976  66.6834456  95.1683265 111.0831543  66.9390409
  95.8743790 110.0563385  65.6685001  96.0498315 109.2834571  67.6369942
  97.0751877 108.9261178  67.7321468  95.5345388 109.7535342  69.0255938
  94.5090095 110.1106082  68.9313245  95.5652920 108.9193865  69.7265593
  96.1673507 110.5608120  69.3943107  95.2328982 108.0760476  67.2201583
  95.5972817 107.7030391  66.2629808  95.3279425 107.2945608  67.9740457
  94.1853533 108.3613188  67.1233641  98.4922992 110.5702108  66.2206985
  98.4327347 109.7246746  65.3026600  99.5748765 110.7743733  66.9073615
  99.5652108 111.4697010  67.6398404 100.8597133 110.1174619  66.5807246
 100.9654978 109.9362110  65.5111186 101.9698657 111.1053690  67.0285318
 101.7196452 112.0878501  66.6282572 101.9588721 111.1438297  68.1177976
 103.3826308 110.6933914  66.5405385 103.6440429 109.7610562  67.0410539
 103.3221805 110.5235153  65.4655549 104.4256414 111.7170489  66.8228559
 104.2487864 112.1159658  67.8216986 105.3989763 111.2272153  66.7948980
 104.4319440 112.8687030  65.8330973 103.6120480 112.8209684  65.2452271
 105.3250362 113.7642646  65.5732865 106.4027094 113.8164972  66.2841003
 106.5396557 113.1576450  67.0372666 107.1030926 114.5159339  66.0832236
 105.0601889 114.7048479  64.6753800 104.1664661 114.7122965  64.2049503
 105.7535603 115.4089287  64.4665616 100.9005610 108.7032824  67.2357427
 100.6729153 108.5836256  68.4407637 101.3280584 107.6492173  66.5268820
 101.5780979 107.6139726  65.0972166 102.4572627 108.2384416  64.9384463
 100.7101522 108.0854314  64.6362438 101.7765239 106.2308698  64.6356339
 102.8141204 106.0405540  64.3612758 101.1283133 105.9890431  63.7933488
 101.3666413 105.4247478  65.9008899 102.1039536 104.6219593  65.9013491
 100.3651251 104.9975659  65.9516895 101.6041908 106.3567494  67.1102874
 100.9793589 106.1821497  67.9861860 103.0945823 106.3758081  67.5352672
 104.0223953 106.6077916  66.7450345 103.2797579 105.9667558  68.8026330
 102.4512652 105.9053139  69.3770232 104.5867342 105.7678650  69.4422424
 105.4951417 106.1691702  68.9929662 104.5053117 106.2531122  70.9144637
 103.6260584 105.7815321  71.3533546 105.7332515 105.9297488  71.7633954
 106.6128897 106.4014050  71.3253568 105.5854815 106.3067366  72.7753957
 105.8789026 104.8500184  71.7961014 104.0069737 107.7492902  70.9510783
 103.0201601 107.8154269  70.4929006 103.9502713 108.0886998  71.9853344
 104.7056451 108.3790829  70.4003331 105.2137299 104.3412563  69.3308730
 106.3178304 104.0833375  68.8899760 104.4723039 103.3030933  69.7605902
 103.6642415 103.5307864  70.3220975 104.9087019 101.8788090  69.6946203
 105.4444330 101.6780082  68.7668431 105.8571973 101.6118195  70.8783023
 106.6786270 102.3124544  70.7284249 105.2827671 101.9085640  71.7558402
 106.4124116 100.2227151  71.0865496 106.8088681 100.1533480  72.0995211
 105.6044614  99.5015710  70.9629791 107.5143804  99.9213414  70.0916101
 107.2058996 100.2219288  69.0903181 108.4230247 100.4565599  70.3673020
 107.7784789  98.4466766  70.1108440 108.2156872  98.1707904  71.0704462
 106.8399143  97.9100767  69.9720772 108.7260256  98.0869880  69.0093625
 109.5959397  98.5837794  69.1380000 108.9005641  97.0923368  69.0268356
 108.3209058  98.3421581  68.1200565 103.7224514 100.9443155  69.4629105
 102.7329652 101.1026451  70.1809618 103.8572365  99.8928272  68.6387336
 104.6527127  99.9474648  68.0187888 102.9063490  98.7174348  68.4884914
 102.1600045  98.6869114  69.2823033 102.2035795  98.9339665  67.1759111
 101.6062077  99.8423147  67.2543306 102.9594410  99.0625714  66.4011632
 101.2856352  97.7433880  66.8080496 101.8185967  96.8120109  66.9993341
 100.5014506  97.8724684  67.5540335 100.6635547  97.6951372  65.4231465
 100.4752882  98.7733361  64.8214821 100.4781484  96.6105211  64.9087583
 103.7009558  97.3850926  68.6033616 104.6954725  97.1195891  67.9365202
 103.1592305  96.4242495  69.4349945 102.3411098  96.7798599  69.9086180
 103.6544893  95.0882269  69.8052531 104.3999643  94.8144408  69.0586559
 104.3045492  95.0367088  71.1853259 104.8835924  94.1139771  71.2223989
 105.2204464  96.2326097  71.5241446 104.6419622  97.1557189  71.4877238
 105.6335856  96.1025642  72.5243969 106.0333108  96.2850218  70.7998476
 103.2632812  95.0515471  72.2551441 102.6102831  94.1865126  72.1393388
 103.7449450  95.0143147  73.2322384 102.6733145  95.9646627  72.1760245
 102.5303552  94.0688026  69.6429860 101.3498695  94.4134734  69.5948141
 102.8340924  92.7714111  69.7621547 103.8077178  92.5080487  69.7093051
 101.8075756  91.6821581  69.9704626 100.8415764  92.1404915  70.1823002
 101.7342751  91.0848895  69.0616191 102.1864827  90.7821036  71.1200748
 103.3609655  90.7205316  71.4555149 101.2688701  89.9495111  71.6087668
 100.4295058  89.9634776  71.0471869 101.3091758  89.0560460  72.7887547
 102.3276389  88.9324078  73.1569199 100.4582794  89.7160709  73.9001757
  99.4722602  89.9049641  73.4756940 100.3723001  88.9896850  74.7083039
 101.0202697  90.9870838  74.4336119 101.9616638  90.7578786  74.9329544
 101.2088811  91.6535346  73.5919641  99.8855210  91.8248860  75.6301920
  99.8223090  90.8349566  77.1372315 100.8225965  90.7561996  77.5630498
  99.1576760  91.3113942  77.8579054  99.4484099  89.8383599  76.9025070
 100.7302828  87.6600835  72.4642369  99.9005443  87.4261620  71.5844808
 101.1316755  86.7455135  73.2969616 101.8763431  86.9032190  73.9608128
 100.5292761  85.4111463  73.2326792 100.2248763  85.1679190  72.2147006
 101.5808801  84.3959610  73.6842242 101.6817581  84.6226709  74.7456032
 101.1411679  83.4057481  73.5649272 102.9369206  84.4233504  73.0351102
 103.0425940  84.6210308  71.6522463 102.1628022  84.8322362  71.0444156
 104.3076285  84.5432483  71.0516995 104.3773842  84.5574790  69.9640260
 105.5094826  84.4018292  71.8546224 106.7467748  84.5002000  71.2423119
 106.6861605  84.6606126  70.2977520 105.3486083  84.2140529  73.2261827
 106.2267493  84.0872848  73.8593484 104.0787523  84.1879439  73.7870266
 103.9564432  83.9776025  74.8495222  99.2797240  85.2142157  74.0338327
  99.1848453  84.3924040  75.0015850  98.3057800  86.1367458  73.7791657
  98.4439555  86.7891127  73.0205984  97.1163114  86.2227597  74.5240214
  96.7230282  85.2084095  74.5912617  97.4015471  86.5679176  75.5178051
  96.0735541  87.1039911  73.9946233  96.3459841  88.2622278  73.6001343
  94.8747590  86.6148351  74.2685112  94.7867561  85.6261527  74.4552248
  93.6604453  87.4078098  74.1666704  93.6449409  88.0788381  73.3078457
  92.5488419  86.2931874  73.9597679  92.7108596  85.8105256  72.9959800
  92.6404789  85.5540764  74.7556434  91.1511736  86.9056129  73.9931199
  90.9649841  87.1488363  75.0391967  91.2229742  87.8261346  73.4138215
  89.9748224  86.0349089  73.4435769  89.9715564  85.1172676  74.0318138
  89.0606838  86.5951088  73.6401123  90.0494077  85.6841309  71.9466919
  91.0734899  85.3760592  71.7358645  89.3755123  84.8446323  71.7757934
  89.6925453  86.7599156  71.0890693  90.3171418  87.5377638  71.2469648
  89.7634263  86.4611433  70.1268786  88.7434954  87.0452513  71.2839715
  93.4029967  88.3888543  75.2856596  93.0428387  88.0494666  76.4196046
  93.8683000  89.6282289  74.9958106  94.1852272  89.8619277  74.0657346
  93.9837506  90.6365637  76.0371185  94.6549524  90.2673198  76.8125192
  94.5235807  91.9612118  75.4821880  93.8983845  92.2839041  74.6496618
  94.5070950  93.0156894  76.5613596  95.1324871  92.6938934  77.3940856
  94.8917231  93.9532299  76.1598877  93.4851496  93.1627579  76.9107844
  95.9783692  91.7747040  74.9683026  96.6080482  91.7351675  75.8571457
  95.9978712  90.8072620  74.4665305  96.5055458  92.8537096  74.0170078
  96.4867802  93.8214293  74.5182726  97.5288583  92.6149501  73.7273101
  95.8766014  92.8935252  73.1276578  92.6191150  90.8595479  76.7197756
  91.7123735  91.3734434  76.0674711  92.5758975  90.5850407  78.0190816
  93.4542615  90.2545211  78.3923547  91.3845983  90.5243536  78.8809009
  90.5896791  90.6925289  78.1543201  91.2831399  89.1006928  79.3885789
  92.0671595  88.9198778  80.1239150  90.3085783  88.9483844  79.8524024
  91.4005762  88.4079892  78.5552304  91.1752799  91.5987027  80.0246840
  90.0795823  91.7079082  80.6117546  92.2218258  92.4302956  80.1863005
  92.9425761  92.3305734  79.4858194  92.4002199  93.4335686  81.2185257
  91.4214554  93.8775939  81.4000770  92.9658864  92.8854688  82.5841281
  93.8912728  92.3517854  82.3674688  93.2420219  93.9908424  83.6097886
  92.3169431  94.5247078  83.8273154  93.6293754  93.5475029  84.5271260
  93.9763664  94.6873864  83.2052317  92.0318842  91.9410040  83.2907787
  91.8343038  91.0795065  82.6529025  92.4890472  91.6058608  84.2217893
  91.0946885  92.4524439  83.5103105  93.3824258  94.3802202  80.6382737
  94.4373000  94.0298466  80.1317041  93.1138606  95.7003196  80.7755154
  92.1583855  96.0224675  80.8337170  94.1783801  96.6997857  80.6813263
  95.1345146  96.2903535  81.0073191  94.2967989  97.1073048  79.2212920
  94.3116707  96.2270592  78.5786056  93.4651401  97.7512749  78.9353789
  95.6067754  97.8710424  79.0666713  95.4231469  98.8875579  79.4146335
  96.3329609  97.3891085  79.7212675  96.2751767  97.9294587  77.3689221
  94.9910529  98.8300633  76.5095000  94.8738352  99.8155750  76.9601947
  95.2644647  98.9411591  75.4602125  94.0511271  98.2831130  76.5835689
  93.9178621  97.8462712  81.6898173  92.8986957  98.4642981  81.5673650
  94.8379847  98.0729939  82.6348106  95.6984031  97.5509490  82.5496722
  94.6870321  98.9234128  83.7273133  93.9548801  99.6903653  83.4746545
  94.2044017  98.1764320  85.0091548  93.2868399  97.6890581  84.6795392
  94.9791248  97.4252736  85.1629897  93.9393232  98.9322322  86.3494307
  93.7103412  98.2513344  87.1692149  94.8869917  99.4329710  86.5476332
  92.8486604  99.9556125  86.2302774  91.7253535  99.6656488  86.7353988
  93.1111330 101.0837603  85.7408330  96.0214903  99.6896926  84.0876374
  97.0980442  99.1910777  83.8751383  95.9998199 100.9076026  84.6019338
  95.1166338 101.3971738  84.6219761  97.2408856 101.6335528  85.1118486
  98.1517752 101.0810737  84.8813144  97.2924871 102.9955131  84.3853091
  96.2625237 103.3326532  84.5019762  97.9610562 103.6880001  84.8967551
  97.6407475 102.9495461  82.9283003  97.0872395 102.1513158  82.4337722
  97.2594969 104.2932772  82.3081223  97.8129887 105.0920084  82.8018571
  97.5032597 104.2859370  81.2457539  96.1899359 104.4616371  82.4337991
  99.0778462 102.5551702  82.5630183  99.2889644 101.5559919  82.9440317
  99.1926535 102.5618972  81.4791016  99.7742888 103.2670579  83.0060564
  97.2498593 101.8263142  86.6983919  96.2283009 102.0808486  87.2736776
  98.4595374 101.7942869  87.2733824  99.2078937 101.4327862  86.6994664
  98.7566823 102.1238794  88.6987282  98.0660920 102.8886520  89.0541253
  98.6005332 100.8705739  89.5818753  98.7941010 101.2972399  90.5660434
  97.6307967 100.3728898  89.5865360  99.6610329  99.7697912  89.3611771
  99.5796894  98.9615079  88.1980123  98.7996018  99.1990412  87.4747274
 100.4378865  97.9118651  87.9643781 100.3928310  97.3673481  87.0212070
 101.3758321  97.5415618  88.9468986 102.0568569  96.7037798  88.7971443
 101.4211682  98.2700759  90.1268367 102.1331821  97.9802242  90.8995737
 100.5610573  99.3746604  90.3354161 100.6017094  99.9274532  91.2739615
 100.0819345 102.7889786  89.0547249 100.9883335 102.5380806  88.2564949
 100.2116226 103.5423277  90.1585515  99.3633125 103.8088968  90.6375193
 101.5132615 104.1145948  90.6435388 102.3622997 103.6488949  90.1431822
 101.5077154 105.6184064  90.3071818 101.2507974 105.7279537  89.2535729
 100.7437836 106.0985293  90.9187292 102.9214940 106.3072166  90.5843632
 103.2141200 106.1809707  91.6267320 103.6900989 105.8836261  89.9378960
 102.7546926 107.8594868  90.2640518 101.9705796 108.2768069  90.8958030
 103.6946944 108.3732579  90.4653861 102.4040449 108.0693572  88.9064946
 101.9762175 107.2834091  88.4381477 102.5617437 109.2045603  88.2279505
 103.3014887 110.1597165  88.6678355 103.7808859 110.0574012  89.5509040
 103.3996873 111.0078239  88.1282332 102.0201663 109.4208670  87.0777805
 101.4444449 108.7085062  86.6521198 102.1742874 110.3016145  86.6080685
 101.7769563 103.8068547  92.1372088 101.3612257 104.6057243  92.9917739
 102.5379732 102.7443241  92.4904451 103.0796056 101.7620865  91.6017344
 103.9753964 102.1661603  91.1301588 102.3394915 101.5302975  90.8358336
 103.3756910 100.5818808  92.4902989 104.1330358  99.9417941  92.0377320
 102.4707493 100.0016069  92.6704767 103.8819382 101.2161834  93.7819026
 104.9495780 101.4308392  93.7353502 103.6694271 100.6238174  94.6718695
 103.1038545 102.5012610  93.8235125 102.2798307 102.4142611  94.5316891
 104.0386175 103.6262075  94.2664444 104.8103374 104.1709071  93.4147826
 104.0392330 103.9064199  95.6077134 103.3533469 103.5447076  96.2548794
 104.9926640 104.9270982  96.0943335 104.8674343 105.8425127  95.5160318
 104.7634246 105.2469282  97.5702102 104.9994026 104.3637108  98.1637932
 105.4217469 106.0657127  97.8605614 103.2720480 105.6616936  97.8210275
 102.9918227 106.3798625  97.0504381 102.6566755 104.7672222  97.7243849
 103.0483947 106.2981391  99.2327135 103.5615552 105.6626950  99.9545003
 103.5174174 107.2819506  99.2174816 101.5828625 106.4399690  99.6320849
 101.4471101 107.0737380 100.5084460 100.9606392 106.8096802  98.8170689
 101.2049468 105.1057546  99.9490780 101.7811059 104.7631335 100.7045588
 100.2351609 105.0884408 100.2307079 101.3302581 104.5184100  99.1370296
 106.4628763 104.6022427  95.8115586 106.8354667 103.4790373  95.8218583
 107.2184821 105.5803960  95.2596620 106.8145579 106.5035815  95.1913010
 108.5912026 105.3776866  94.7545142 109.2273497 106.1686761  95.1516938
 108.9513359 104.4111370  95.1069135 108.6578653 105.4068369  93.1995202
 109.6565543 105.7422366  92.5615231 107.5469492 105.2233720  92.5037730
 106.7589789 104.8143328  92.9853217 107.4058939 105.5309130  91.0501094
 108.3552283 105.4046083  90.5296187 106.3946577 104.5587320  90.4600022
 105.4735812 104.8085519  90.9866019 106.3175827 104.8806601  89.4214832
 106.6157757 103.0447294  90.5094884 106.3765865 102.7573954  91.5333676
 105.8839886 102.6081729  89.8297787 108.0320479 102.5277926  90.1452501
 108.5704656 101.7344972  90.9830357 108.6056929 102.8719840  89.1214378
 106.9760802 106.9799834  90.7279772 106.0106424 107.5496163  91.2529993
 107.6526491 107.6158443  89.7758419 108.5763781 107.2989652  89.5181373
 107.1676313 108.8847278  89.2107567 106.4146185 109.3429457  89.8519331
 108.3777738 109.8359314  89.1143995 108.0675713 110.8126657  88.7430993
 108.8512518 109.9520216  90.0893055 109.2799239 109.2701200  88.2274933
 110.0478715 109.8402421  88.1449277 106.3806763 108.7466471  87.9337423
 105.9913681 109.7728475  87.3972500 106.0660038 107.5506267  87.4251273
 106.5136407 106.7357551  87.8197218 105.2401943 107.3778149  86.1961347
 104.4377430 108.1140700  86.2419555 105.9870216 107.5466146  84.8605746
 105.2945740 107.4067616  84.0304802 106.4230189 108.5440834  84.8052355
 107.1130208 106.4859393  84.7775833 107.8206635 106.7183617  85.5733990
 106.6480643 105.5202782  84.9761187 107.8473917 106.4306251  83.4467980
 107.1238627 106.1205513  82.6928358 108.1903550 107.4415277  83.2264542
 109.0647984 105.4537243  83.4320086 109.4140123 105.3818031  82.4019710
 109.8463536 105.8956333  84.0500597 108.7444341 104.1137519  83.9338170
 108.0205486 103.7039221  83.3609915 109.5708621 103.5342592  83.8976927
 108.4212302 104.1801283  84.8884020 104.4993976 106.0480702  86.3389918
 105.0044226 105.1313070  86.9738769 103.2962911 105.9407297  85.8328231
 102.8729635 106.8170855  85.5628347 102.4319731 104.7134931  85.8673724
 102.3085060 104.3870851  86.8999967 101.0458717 104.9898450  85.2716380
 101.0827929 105.0607268  84.1845723 100.5971272 104.0387267  85.5581731
 100.2010917 106.1427201  85.8307227  99.0600852 106.2367321  85.3851736
 100.5673846 106.8518019  86.8485401 103.0790814 103.4337578  85.3687308
 103.8055676 103.4293281  84.3792687 102.7585898 102.3462996  86.0331356
 102.4345649 102.5190568  86.9740193 102.8639377 100.9695493  85.5831339
 103.5413080 100.9090840  84.7313049 103.4098749 100.0809410  86.7073700
 102.5556304 100.0414334  87.3832434 103.6174048  99.0811071  86.3261043
 104.6509963 100.6098156  87.4734922 104.4885115 101.6364321  87.8017577
 104.8547757  99.7018443  88.7058910 105.0177923  98.6750713  88.3783827
 105.7216876 100.0444285  89.2708695 103.9688861  99.7442392  89.3395334
 105.8948557 100.7473654  86.6911937 105.7323114 101.4440676  85.8688284
 106.6895641 101.1247420  87.3347205 106.1826672  99.7750204  86.2914328
 101.5949681 100.3219736  85.0852105 100.5153936 100.6518972  85.5373679
 101.7750105  99.3686691  84.2342432 102.7378571  99.0799200  84.1360103
 100.8007573  98.7668204  83.3897304  99.8298839  99.2402376  83.5359499
 101.2260743  98.9456966  81.8846191 101.2501787 100.0258699  81.7405914
 102.2332357  98.5428464  81.7776722 100.3088225  98.3114295  80.8349871
 100.3374271  97.2272791  80.9440764  98.8878228  98.7993361  81.0187042
  98.8583400  99.8834292  80.9092891  98.2456868  98.3411590  80.2664836
  98.5346843  98.5252756  82.0128291 100.7984249  98.6316220  79.4014445
 101.8066387  98.2403445  79.2654074 100.1287984  98.1689659  78.6764266
 100.8050041  99.7112891  79.2518628 100.4530245  97.3371451  83.5925515
 101.4118600  96.5483292  83.5190338  99.2721755  96.9989423  84.0721603
  98.6667644  97.7544562  84.3598676  98.8244037  95.6435792  84.2867676
  99.6912274  94.9878911  84.2043727  98.1574279  95.4064184  85.6497595
  98.9319161  95.5802198  86.3967939  97.3439048  96.1164357  85.7986073
  97.5930947  94.0425962  85.9253659  98.5283108  92.9985862  86.1271009
  99.5885576  93.1988130  85.9725503  98.0986778  91.6977281  86.5275366
  98.8005830  90.9096919  86.8003528  96.7353239  91.4536233  86.5623673
  96.3705574  90.4727818  86.8673184  95.8079688  92.4808368  86.2007476
  94.7472574  92.2378884  86.1377588  96.2495572  93.7958838  85.9267822
  95.5237479  94.5832667  85.7234871  97.8920895  95.1709253  83.2273226
  96.8497660  95.8164395  83.0306935  98.1774832  93.9985639  82.7388014
  99.0231622  93.6088871  83.1300539  97.4934390  93.2538027  81.7108796
  96.4650565  93.6104644  81.6532501  98.1568444  93.3944585  80.3458792
  99.1891462  93.0507026  80.4113425  97.4039751  92.5548766  79.3077039
  96.3716445  92.8983730  79.2413386  97.8850346  92.6614791  78.3354290
  97.4191092  91.5068926  79.6070360  98.1518619  94.8817054  79.9152020
  97.1163177  95.2192817  79.9575236  98.7413705  95.4260968  80.6529127
  98.7207527  95.1455948  78.5072777  98.1314317  94.6018637  77.7689302
  98.6772391  96.2131313  78.2914734  99.7564845  94.8086764  78.4643187
  97.4389145  91.7605813  82.1649710  98.4393228  91.1598686  82.4861150
  96.2966674  91.1169691  82.0703734  95.5342983  91.7568031  81.8986025
  96.0005485  89.7006972  82.1483333  96.9201341  89.1275632  82.2665654
  95.1018600  89.4352172  83.3536126  95.7217063  89.6487084  84.2244234
  94.3052410  90.1760115  83.2848957  94.5037314  88.0719727  83.4902602
  95.0668064  87.3522935  82.8960301  94.5652438  87.6754995  84.9590564
  94.0019662  88.3945051  85.5539077  94.1341200  86.6824967  85.0862509
  95.6037441  87.6652679  85.2899838  93.0363184  87.8959039  83.0569234
  92.9352694  88.1513803  82.0021152  92.7335246  86.8600492  83.2099663
  92.4001661  88.5514981  83.6515708  95.2493398  89.3451795  80.8360446
  94.5115441  90.1558161  80.2598191  95.3626032  88.0711737  80.4524500
  95.8566881  87.4452061  81.0722435  94.8209847  87.5244224  79.1893006
  94.2835286  88.3058896  78.6521330  95.9978146  87.0032299  78.2766809
  95.5978472  86.7160085  77.3042456  97.0782290  88.1398415  78.0864061
  97.4790139  88.4272798  79.0584402  97.8867974  87.7712625  77.4551647
  96.6154357  89.0063770  77.6141358  96.6116463  85.8752861  78.9073404
  97.3292257  85.5524438  78.3573831  93.8671926  86.3639960  79.5006400
  93.5782053  86.0829413  80.6303425  93.1776766  85.7456601  78.5463369
  93.4708401  85.9170011  77.5951288  92.0105450  84.8937721  78.7691474
  91.4354469  85.3654011  79.5659708  91.1700355  84.8864181  77.5023046
  91.7290575  84.4089989  76.6975281  90.2476444  84.3337688  77.6808363
  90.9299448  85.9112063  77.2189939  92.2912717  83.4565465  79.1705499
  91.3906187  82.8133276  79.6851075  93.5397711  82.9497649  78.9964962
  94.1445643  83.4912209  78.3955386  94.0658449  81.7126255  79.5784846
  93.2871185  80.9857585  79.8094580  94.9766677  81.1275323  78.4515055
  94.6784727  81.5140879  77.4769524  96.0222435  81.3746341  78.6353854
  94.8000929  79.6015599  78.4726326  95.2737901  79.1884095  79.3631484
  93.7386397  79.3537938  78.4782202  95.4754846  78.9892570  77.1865470
  94.9119262  79.2630497  76.2946173  96.5015267  79.3444226  77.0906589
  95.4754707  77.4860748  77.3402330  96.0813320  77.2428835  78.2130965
  94.4464110  77.1713992  77.5137682  96.0150112  76.7791784  76.1511293
  96.9686969  77.0703012  75.9904097  95.9898235  75.7823748  76.3119033
  95.4534907  77.0040530  75.3422874  94.8532684  81.9042305  80.8495050
  95.5007452  80.9343246  81.3095978  94.7801040  83.0885090  81.4765458
  94.4241777  83.7138263  80.7677482  95.1991256  83.6605368  82.7632980
  94.8211040  84.6768326  82.8743920  94.6283761  82.8019101  83.8893056
  95.1893309  81.8680152  83.9249319  94.8665911  83.4019602  84.7675388
  93.1232304  82.4944824  83.8724614  92.1575593  83.5492310  84.1055851
  92.5608945  84.5240629  84.3796711  90.7996629  83.3734492  83.9980213
  90.1150070  84.1981195  84.1961805  90.3075171  82.1539786  83.5639336
  88.9471855  82.1476001  83.4635530  88.5490326  82.9860144  83.7087781
  91.1215402  81.0349905  83.3312409  90.7444286  80.0658994  83.0045152
  92.5363384  81.2227401  83.5497865  93.2169664  80.3748682  83.4725919
  96.6925910  83.9619104  82.9513962  97.1408904  84.3102622  84.0272031
  97.4658631  83.9231060  81.8291393  97.1218938  83.4981742  80.9798941
  98.7902652  84.5600934  81.8027382  99.4365482  84.1480525  82.5777477
  99.4216566  84.2846560  80.4458952  98.8357467  84.8406276  79.7139769
 100.4466485  84.6554517  80.4473524  99.4365294  82.7650166  80.0295228
  98.7036587  82.3159658  79.2101157 100.2842107  81.9967215  80.6612672
 100.3362631  81.0138827  80.4345113 100.8833104  82.3893909  81.3733002
  98.5964183  86.0861160  81.9382948  97.7422735  86.7535580  81.3647560
  99.4547461  86.6907627  82.7872216 100.2029528  86.1521344  83.1997330
  99.3506277  88.1013682  83.1288890  98.9091280  88.7293154  82.3550288
  98.4459629  88.1813385  84.4206225  98.8801142  87.5647155  85.2076350
  98.3875669  89.2153507  84.7604885  97.4448390  87.8192299  84.1866834
 100.7060306  88.6297444  83.3996522 101.7554481  87.9554824  83.5429968
 100.7713430  89.9957663  83.4160020  99.9344266  90.5568488  83.3463112
 102.0971751  90.7020388  83.5327636 102.7597627  90.1463510  84.1963056
 102.7819277  90.8084750  82.1051028 103.5559291  91.5755936  82.1285575
 103.2292543  89.8496193  81.8431969 101.6836176  91.2439580  80.7284455
 102.6238296  91.2214847  79.7880230 101.8713557  92.1165719  84.1031982
 100.8060430  92.7629259  83.9986928 102.9160170  92.6656479  84.6626483
 103.6451319  91.9947251  84.8584884 103.1505558  94.0605463  85.0081434
 102.3532875  94.7683510  84.7812623 103.5482084  94.1924893  86.4958898
 104.2207626  93.3586808  86.6972221 104.2382919  95.5385232  86.9281333
 103.5661109  96.3728060  86.7275204 104.4666231  95.5046245  87.9934110
 105.1609591  95.6720937  86.3633827 102.3794021  93.8212109  87.4708822
 101.6845102  94.6593570  87.5231991 101.8615616  92.9442949  87.0823479
 102.9193125  93.5157792  88.8759542 103.4369177  94.3924476  89.2653603
 102.0907587  93.2604371  89.5365586 103.6139713  92.6773864  88.8245085
 104.2876103  94.5952526  84.1525207 105.3809349  93.9535093  84.1041893
 103.9561898  95.5384391  83.2628136 102.9906589  95.8256624  83.3359725
 104.7725693  96.1239914  82.2090366 105.6575323  95.5253011  81.9933759
 103.8602981  96.1477492  80.9331205 103.0166838  96.7445800  81.2798294
 104.3669322  96.6719812  80.1228103 103.3665168  94.8283780  80.4396596
 103.0644529  94.2139959  81.2878299 102.1763730  95.0410244  79.5194313
 102.4777966  95.6549787  78.6707247 101.8173099  94.0765914  79.1602053
 101.3789844  95.5442748  80.0662502 104.5087487  94.0318754  79.7811309
 105.3007758  93.8611863  80.5102795 104.1277286  93.0735278  79.4282926
 104.9071551  94.5964913  78.9381718 105.2759160  97.4831541  82.6067838
 104.6106836  98.1748270  83.3019352 106.3136321  97.9147691  81.9391135
 106.7896533  97.2282157  81.3715331 106.9079918  99.2300447  82.0691900
 106.1335501  99.9735811  82.2575854 107.8905213  99.2438337  83.2349244
 107.3069983  99.1322666  84.1487915 108.5447182  98.3803404  83.1144844
 108.7465074 100.5310730  83.3234494 109.3600184 100.6521885  82.4306805
 107.9587475 101.2844114  83.3272681 109.6548221 100.7070434  84.6189620
 109.8642098  99.7160409  85.3190626 110.1952983 101.7958149  84.7540915
 107.5354561  99.7917239  80.7736195 108.1515553  99.0498575  80.0985566
 107.3282454 101.0576245  80.4156581 106.4536976 101.4888019  80.6790051
 108.1568106 101.7274349  79.4237042 108.2795230 101.0864203  78.5506972
 107.5026450 103.0418152  78.9787315 106.5775716 102.6438677  78.5616269
 107.2696084 103.6999950  79.8157460 108.2405924 103.8228120  77.9138257
 109.0539804 104.9055460  78.3707295 109.2241714 105.0075791  79.4425148
 109.6084984 105.7933944  77.5085658 110.3262036 106.5316243  77.8663614
 109.4190156 105.6025345  76.1037417 109.9051051 106.5051970  75.1826622
 110.3655588 107.2436072  75.5880414 108.5387966 104.6032462  75.6461815
 108.2746920 104.5900325  74.5887438 107.9977508 103.6274220  76.5257739
 107.4318290 102.7864511  76.1250240 109.6461870 101.8303892  79.6850151
 110.1288753 102.1123221  80.7568313 110.4112996 101.5014096  78.6182718
 110.0040660 101.0269719  77.8250701 111.8391936 101.7667653  78.6032393
 112.0399283 102.5098501  79.3750097 112.7412593 100.5394442  78.8536681
 112.4289777 100.0981977  79.8001780 112.5550742  99.8327344  78.0449676
 114.1737912 100.8522956  78.9092658 114.4220503 101.2483994  77.9245983
 114.2687014 101.6434092  79.6530624 115.1412926  99.6976960  79.2589658
 116.0531788 100.1268804  79.6741323 114.6648768  99.0644902  80.0074160
 115.4867418  98.8610158  78.0309038 114.5611053  98.4410338  77.6373143
 115.9308045  99.5217163  77.2863353 116.4318730  97.7648009  78.3439867
 116.0204107  97.1522240  79.0335866 116.6299637  97.2407930  77.5035846
 117.2898161  98.1537757  78.7083096 112.3134415 102.4056970  77.2512969
 111.8656049 102.0116249  76.1966900 113.0957549 103.4689794  77.3602337
 113.0995114 103.9033743  78.2720376 113.7776179 104.1624129  76.2532781
 113.7847569 103.5074384  75.3820395 113.0973729 105.4718828  75.8725296
 113.5463272 105.8598440  74.9581854 112.0349952 105.2925568  75.7073151
 113.2733498 106.4949347  77.0022738 112.5549246 106.1379052  77.7401735
 114.2696327 106.5111163  77.4441567 112.8959826 107.9121461  76.6031197
 111.8541601 108.1693427  76.0135590 113.8202441 108.8240057  76.7789061
 113.6305009 109.7850017  76.5327645 114.7181613 108.5616829  77.1597379
 115.2351358 104.2431618  76.5940935 115.5544591 104.4613441  77.7697257
 116.1615412 103.9535205  75.6313074 115.8152564 103.9896990  74.6832161
 117.5936088 103.6226388  75.8457997 117.9649684 104.2693997  76.6407157
 117.8743611 102.1371329  76.2388345 117.6245244 101.4863448  75.4008872
 118.9292865 102.0202985  76.4869921 117.0731645 101.7814015  77.3762166
 117.2465638 100.8683524  77.6167865 118.5602373 103.8112419  74.6183377
 118.4244278 103.0036782  73.6792330 119.3670828 104.9008066  74.5012514
 119.4389627 105.5090953  75.3043189 120.1273082 105.2437259  73.3029824
 120.4368572 106.2827860  73.4153783 121.0079645 104.6014624  73.2965496
 119.4085751 105.0907161  72.0136032 119.9035235 104.4335084  71.1207437
 118.2276974 105.6635816  71.9228509 117.8417999 105.8221635  72.8426521
 117.3574027 105.7683942  70.7967650 116.5896822 106.5020731  71.0425691
 118.0463237 106.1958259  69.4728802 118.8835586 105.5118627  69.3338433
 117.3112407 106.0345026  68.6843830 118.5376724 107.5996382  69.4130331
 118.7744316 107.8333099  68.3750334 117.7087701 108.2244648  69.7456167
 119.7626312 107.8699194  70.2883303 119.8380455 108.7362963  71.2258737
 120.7634755 107.1416806  70.0569908 116.2998711 104.7067922  70.5710458
 115.2989397 104.9159476  69.8815153 116.4889073 103.5386188  71.2116715
 117.3690333 103.5155457  71.7065909 115.7320799 102.3744217  71.1588836
 115.2375327 102.2833853  70.1918083 116.6874106 101.1294793  71.3572229
 117.1226094 101.1357636  72.3565536 116.1406302 100.1988347  71.2054603
 117.7048387 101.2316473  70.4061110 118.3053275 100.4883975  70.4988070
 114.5186532 102.4274144  72.1393674 114.6670523 102.7582401  73.3053387
 113.3781526 101.8817425  71.6653879 113.4011102 101.7045504  70.6713179
 112.1064193 101.6952591  72.3769153 112.1741460 102.2134307  73.3334771
 110.8907162 102.2872240  71.5384014 110.8360145 101.7709377  70.5799878
 109.6007053 102.1002607  72.2810849 109.6544795 102.6166912  73.2394734
 108.7796725 102.5107742  71.6933056 109.4293601 101.0372837  72.4508493
 111.2790350 103.8445761  71.4021190 112.1875712 103.8499494  70.7999281
 110.4616456 104.2828921  70.8295343 111.5076210 104.6682635  72.6826480
 112.3252294 104.2307942  73.2555676 111.7603890 105.6942279  72.4150576
 110.5993038 104.6637348  73.2851752 111.8671861 100.2124186  72.8592186
 112.1168460  99.2753038  72.1367398 111.4751447  99.9934458  74.1331697
 111.3125756 100.8008078  74.7178383 111.2910245  98.6766411  74.7125333
 110.9835758  97.9850780  73.9281131 112.5261502  98.1631967  75.3364725
 112.8900386  99.0626090  75.8332038 112.3168949  97.3962887  76.0822367
 113.6027537  97.6460028  74.3536268 113.3183643  96.6489780  73.6263393
 114.7352868  98.1750663  74.4582858 110.1627710  98.7188015  75.8101546
 109.8070862  99.7024110  76.4313516 109.5565804  97.5911282  76.0080330
 109.8065937  96.8676843  75.3490780 108.4608885  97.3196201  76.9664069
 108.2971505  97.9956870  77.8055866 107.0414053  97.0193523  76.2267234
 107.1658702  96.1645402  75.5619639 105.9131917  96.7040344  77.2821748
 105.7878206  97.5586271  77.9470463 104.9748254  96.5069094  76.7638011
 106.1959102  95.8282855  77.8663266 106.7081780  98.0217287  75.0732924
 107.6032428  98.1207380  74.4591613 105.9077172  97.5804454  74.4794649
 106.2621210  99.4406144  75.5811295 107.0623070  99.8827527  76.1746915
 106.0474767 100.0820784  74.7264067 105.3667821  99.3424596  76.1949974
 108.9135475  96.2250728  77.9309078 108.8280472  95.0633508  77.5262578
 109.3855408  96.6022693  79.1415168 109.2839780  97.5598361  79.4462301
 110.0921713  95.6422363  80.0442486 110.4445858  94.7066820  79.6099200
 111.2902815  96.4047203  80.6720027 110.9428588  97.3858858  80.9955953
 111.8652455  95.6605144  81.8524027 112.2133278  94.6793625  81.5294782
 112.7015985  96.2242766  82.2656660 111.0966539  95.5396546  82.6157892
 112.3176252  96.7785950  79.6280566 111.7340797  97.3846429  78.9350333
 112.9956996  97.4211709  80.1896712 113.1233963  95.7506008  78.8477298
 112.4459782  95.1079076  78.2854576 113.7946891  96.2619556  78.1578157
 113.7075967  95.1444337  79.5400963 109.1735273  95.1212455  81.1008133
 108.3143955  95.8883888  81.5539973 109.1664816  93.8312782  81.3669271
 109.8421617  93.2645536  80.8746070 108.1929762  93.1566293  82.2366110
 107.3211353  93.7856350  82.4164563 107.7405892  91.8920039  81.4976721
 108.6183672  91.2737192  81.3097093 106.6850276  91.0667175  82.3336201
 105.8067122  91.6842358  82.5215901 106.3912563  90.1789290  81.7735941
 107.1275409  90.7665753  83.2834607 107.1482693  92.1395245  80.3061149
 106.8906695  91.3095147  79.8982837 108.7931218  92.9255880  83.5380645
 109.6800433  92.0681292  83.6612864 108.3876791  93.6859229  84.5798654
 107.7430705  94.4422320  84.3993780 108.9040583  93.5125592  85.9698936
 109.9745157  93.7180060  85.9733360 108.2150808  94.4585451  86.9853372
 107.1353613  94.3397938  86.8947652 108.5279198  94.1773878  87.9909128
 108.5932401  95.9274804  86.7225587 109.6527049  95.9285279  86.4663670
 108.0103517  96.2423194  85.8569841 108.3527821  96.8776610  87.8598985
 107.2815345  96.8803348  88.0611955 108.8841091  96.4876753  88.7280587
 108.7871154  98.2492232  87.6237273 109.0097374  98.4797801  86.6659266
 108.8065212  99.2102201  88.5212697 108.3140886  99.0559209  89.7220777
 107.9004365  98.1729153  89.9853134 108.3495070  99.8204113  90.3811678
 109.4517550 100.2362479  88.1311602 109.8786169 100.2426879  87.2158201
 109.5336143 101.0387544  88.7389274 108.7458073  92.0617914  86.4037488
 109.7312182  91.4035140  86.8403198 107.4869348  91.5619792  86.3315354
 106.7942706  92.1694015  85.9175863 107.0509211  90.2811428  86.8632129
 107.7980947  89.4926616  86.7730558 106.7903804  90.5506919  88.3789777
 106.0375572  91.3317235  88.4854995 106.4350398  89.6368906  88.8552134
 107.7164075  90.8718958  88.8558435 105.8360021  89.7761737  86.0813760
 105.1051370  90.5473122  85.4394401 105.7077186  88.4457912  86.1996756
 106.2920309  87.9372927  86.8478328 104.8041774  87.6757976  85.3175050
 103.8487214  88.1868042  85.1988658 105.4587929  87.5518368  83.9575865
 104.7265179  87.4213787  83.1608098 105.9661214  88.5082420  83.8310678
 106.5403405  86.4420990  83.7568331 107.9031747  86.5620972  84.0808705
 108.4334361  85.3489048  83.6914939 109.4824064  85.1998965  83.9475347
 107.5580241  84.5494094  83.0565931 107.6945840  83.6545172  82.6086878
 106.3417453  85.2278967  83.1343039 105.4369383  84.7724681  82.7317988
 104.4818308  86.3716675  85.9722199 105.2732549  85.7664514  86.6800980
 103.3318512  85.9157846  85.6201054 102.7000782  86.5396076  85.1386418
 102.8850459  84.5290657  85.8817859 103.5600713  83.8474731  85.3642228
 102.9391709  84.3477607  86.9552375 101.4611612  84.2719120  85.4069698
 100.6605160  85.2131321  85.3821271 101.0991673  82.9818201  85.1599065
 101.7935561  82.2660584  84.9998792  99.6708991  82.6025533  85.0859834
  99.0633264  83.2775710  84.4832348  99.7488353  81.2351747  84.3693401
 100.4163206  81.1296063  83.5141103 100.1346388  80.6512060  85.2049453
  98.3781526  80.6913115  83.9871153  97.4099698  80.7889500  84.7140973
  98.1539990  80.3325677  82.7527786  97.2477296  79.9710796  82.4918150
  98.8878101  80.4180485  82.0640733  99.0751337  82.5500400  86.5616713
  99.7766148  82.2234108  87.5633532  97.7903511  82.8270798  86.7385998
  97.3126741  83.1121937  85.8956087  97.0556572  82.8695992  87.9976483
  97.5528979  82.2668703  88.7576277  96.9876154  84.3478840  88.4985419
  96.4274448  84.3542354  89.4335648  98.3577720  84.9655749  88.7249969
  98.9184004  84.9599973  87.7902426  98.2411902  85.9922595  89.0720241
  98.8977253  84.3880693  89.4753565  96.2394477  85.2939504  87.4838610
  95.2182313  84.9402992  87.3419106  96.2200438  86.3093481  87.8797026
  96.7619418  85.2873764  86.5272746  95.6631271  82.1819420  87.7816402
  94.6838604  82.3405428  88.5859962  95.5276628  81.2261449  86.9072792
  96.2246610  81.1576541  86.1795417  94.3592758  80.3061269  86.8539435
  93.4439952  80.8295749  86.5776055  94.6735668  79.2750332  85.7787952
  93.7282949  78.7749405  85.5679220  94.9833959  79.8485548  84.9051941
  95.7610264  78.2100339  86.1129778  96.6176900  78.6050796  86.6590248
  95.1677307  77.5798029  86.7754814  96.2648819  77.3678335  84.9716280
  95.6738291  77.2629323  83.8885891  97.5172487  76.8358695  84.9989344
  97.8404605  76.2729266  84.2251574  98.1178404  77.0064129  85.7928525
  93.9001442  79.5990957  88.1680315  94.7589335  79.5056757  89.0878074
  92.7372729  78.9484836  88.2885981  92.0274060  79.2024097  87.6165044
  92.3869264  77.9422909  89.3498537  93.2676100  77.7696551  89.9684752
  91.2180267  78.4085865  90.2672107  90.5074652  78.8563124  89.5724135
  90.7241627  77.6177999  90.8318831  91.7337475  79.4846816  91.2366690
  92.7616399  79.2821698  91.9757875  91.1020326  80.5615681  91.4510003
  92.0127519  76.5371161  88.6943034  91.5897225  76.4694613  87.5349045
  92.0644236  75.4892619  89.5395783  92.3680140  75.6914680  90.4814089
  91.8252806  74.1051436  89.1762062  92.5757245  73.8004158  88.4467721
  91.8983141  73.1560677  90.3810203  91.1868838  73.5281055  91.1182816
  91.5770034  72.1756889  90.0292863  93.3402276  73.0340969  91.0490424
  93.6155573  74.0289740  91.3990623  93.2413438  72.3636143  91.9027269
  94.4403563  72.4988702  90.0966989  95.2242360  72.0581430  90.7126462
  93.9903002  71.7256035  89.4741175  95.0278368  73.4886198  89.2456529
  94.5393552  73.6978281  88.3867484  96.1748291  74.1624889  89.5195491
  96.9217250  74.0432260  90.5680146  96.6669565  73.3888986  91.2939958
  97.7564690  74.6049447  90.6561853  96.6192418  75.0524833  88.6170591
  96.1009648  75.2031232  87.7633631  97.4696764  75.5670307  88.7962255
  90.4922572  73.8826039  88.4241518  90.3435525  72.8774894  87.7029655
  89.5158105  74.7681853  88.6403240  89.6881666  75.5310970  89.2793534
  88.1917748  74.6191997  88.0971716  88.2235040  74.5860758  87.0081375
  87.4059488  73.4510335  88.6092831  88.0357598  72.5621900  88.5719244
  86.9461458  73.6881583  90.0446601  86.3158624  74.5766363  90.0827433
  86.3780761  72.8251738  90.3920148  87.8155490  73.8323086  90.6861100
  86.1104304  72.8698470  87.8160604  85.7624996  71.9895577  88.3565563
  85.3385625  73.6390864  87.8403513  86.4032693  72.4971268  86.3845427
  87.1747707  71.7275448  86.3594612  85.4961794  72.1169648  85.9146874
  86.7508360  73.3770737  85.8432565  87.4666242  75.9531967  88.3285024
  87.9645717  76.7941671  89.0993896  86.3868121  76.2139641  87.5726617
  86.0634725  75.5158723  86.9182774  85.6432037  77.4945791  87.6593664
  85.0326654  77.4735513  88.5620846  86.3682270  78.3053670  87.7305254
  84.7582654  77.7356221  86.4791896  85.1864075  77.4152822  85.3941894
  83.6366725  78.3977748  86.6163037  83.3579742  78.6630692  87.5501375
  82.7213089  78.7414123  85.4748398  82.7333833  77.9866652  84.6885128
  81.2536813  78.7843691  86.1217788  81.1880487  77.9733414  86.8470551
  81.1463880  79.7398457  86.6352499  80.1691874  78.6382275  85.1162319
  80.1744213  79.5598978  84.5343408  80.4629549  77.8046946  84.4782464
  78.7257755  78.3829764  85.6785799  78.0845616  78.0635339  84.8570568
  78.7793047  77.5913849  86.4259866  78.1166883  79.6164706  86.3194964
  77.9999072  79.6077400  87.3226840  77.6952582  80.7119897  85.6247098
  77.5670527  80.7456592  84.3642799  77.7831083  79.9256194  83.8156864
  77.2494480  81.5923684  83.9144906  77.4419564  81.7498592  86.2175767
  77.5457342  81.7927211  87.2213163  77.1300544  82.5597504  85.7009607
  83.1100426  80.0832740  84.8000486  83.5037291  80.9592912  85.5440775
  82.9489422  80.3143567  83.5147606  82.5576451  79.3138735  82.5820667
  81.6910302  78.8020076  83.0004831  83.3862475  78.6112488  82.4935483
  82.2373399  80.0292588  81.2324443  81.1578429  80.0740177  81.0882849
  82.6908467  79.4780944  80.4086417  82.8414642  81.4242457  81.3518563
  82.2070761  82.2048755  80.9320134  83.8210392  81.4572091  80.8749435
  82.9932692  81.6358711  82.9103039  83.9746609  82.0495418  83.1423495
  81.9145959  82.6009916  83.3749580  80.7383070  82.2216857  83.1238474
  82.1102197  83.8197163  83.8024008  83.0660030  84.1136121  83.6602640
  81.1535688  84.7968165  84.3413584  80.6123435  84.3738149  85.1876704
  81.9179589  86.0371391  84.8190953  82.4028464  86.4960874  83.9574980
  81.2026566  86.7382891  85.2490155  82.9003054  85.7039098  85.7944689
  83.3591674  86.5003280  86.0715311  80.2687797  85.2641733  83.2189664
  80.7767892  85.7603354  82.2207442  78.9417010  85.3357353  83.3265124
  78.4966179  84.6614622  83.9326115  78.0875781  86.1913658  82.4894852
  78.0784361  85.7797833  81.4802204  76.6209224  86.2969992  82.9964789
  76.6788039  86.4756598  84.0701778  76.1881706  87.1691311  82.5063648
  75.7193488  85.0433171  82.7233958  74.6577716  85.2257066  82.8903950
  75.9054190  84.9365640  81.6547140  76.1418811  83.7392782  83.4551594
  76.5533264  82.7777108  82.7178293  76.2392103  83.7454981  84.7020064
  78.6395123  87.6309705  82.1580552  78.5074119  87.9388921  80.9699207
  79.2774248  88.3816656  83.0963855  79.0492191  88.1849327  84.0603968
  79.9327701  89.6690005  82.7796880  79.6259910  89.9502396  81.7722704
  79.5306790  90.7954095  83.7488215  79.7635599  91.7468424  83.2706561
  78.0431591  90.7583092  84.1139216  77.8096037  89.8072924  84.5925849
  77.8162734  91.5748700  84.7993778  77.4438240  90.8663312  83.2099143
  80.2135687  90.6772168  84.9373122  79.9512929  91.3862925  85.5289400
  81.4208670  89.5044900  82.3824202  82.1802973  90.4674242  82.4345011
  81.9659609  88.3412246  82.0965245  81.2837928  87.5986260  82.0391366
  83.3803897  88.0089942  81.8619866  83.3948921  86.9267928  81.7326456
  83.6268144  88.4908074  80.9158206  84.4391883  88.4039983  82.9189456
  84.1890962  88.6235205  84.1302746  85.7226509  88.3872607  82.5459661
  85.9006532  88.2028085  81.5690363  86.9000126  88.5338319  83.4698467
  86.8325870  88.0765124  84.4569697  88.1764432  87.9968017  82.7308957
  88.1662467  88.4382243  81.7343303  89.5416076  88.3198030  83.4312644
  89.5527364  87.8782813  84.4277760  90.3598011  87.9059164  82.8418935
  89.6626543  89.4000707  83.5116920  88.0593358  86.4604154  82.3555329
  88.2269909  85.8853091  83.2661620  87.0448087  86.2853742  81.9974901
  89.0698269  86.0183388  81.2745264  90.0846589  86.1926570  81.6320584
  88.9365502  84.9571827  81.0640885  88.9024780  86.5927242  80.3633867
  87.0535715  89.9715934  83.9291705  86.7545356  90.8735653  83.1727960
  87.4160402  90.2568778  85.1686681  87.5416528  89.4536042  85.7678945
  87.6452968  91.6002281  85.7404657  87.8064227  92.4938121  85.1374356
  86.4812169  91.8509935  86.7352600  86.2782384  90.9002389  87.2281756
  86.7605928  92.9290311  87.7965188  86.9632179  93.8802442  87.3043427
  85.8913993  93.0343598  88.4457562  87.6253972  92.6374284  88.3924890
  85.0802900  91.9484856  86.1299666  85.0505368  92.8779767  85.5614055
  84.9753835  91.1034428  85.4495280  83.9342479  91.9332724  87.1411309
  84.0382241  92.7783491  87.8216705  82.9829862  92.0067871  86.6140674
  83.9630723  91.0038155  87.7097949  89.0190411  91.5488879  86.4399404
  89.2894776  90.5739849  87.1636173  89.8492475  92.5985565  86.2201723
  89.7547652  93.1700361  85.3927767  90.9026812  92.9310640  87.1742605
  90.7122460  92.4180175  88.1169253  91.8657429  92.6120791  86.7756879
  90.9434043  94.4293783  87.4260718  90.8090943  95.3048094  86.5104680
  91.1401644  94.7311131  88.6780600  91.3708651  93.8908967  89.1888563
  90.9651370  95.9845664  89.4360351  91.1274796  96.9177120  88.8966064
  89.5920666  96.0490122  90.1893281  89.6532529  96.8095647  90.9677345
  88.4520982  96.4002511  89.2183104  88.3899884  95.6398510  88.4398280
  87.5089633  96.4393678  89.7633491  88.6483391  97.3707978  88.7626486
  89.3169084  94.8927044  91.0854862  88.7820296  94.1527697  90.4900855
  90.2840271  94.4880068  91.3838164  88.4768662  95.2396408  92.3671181
  87.5093615  95.6439889  92.0695661  88.3262750  94.3367360  92.9588818
  89.0113584  95.9792283  92.9632961  92.1545738  96.1979181  90.3485777
  92.8077324  95.1520213  90.7251355  92.5667785  97.4417868  90.5655199
  92.1050750  98.2273578  90.1298509  93.7694054  97.7080872  91.4168705
  94.0497663  96.8928671  92.0838887  94.9949610  98.0754944  90.4911582
  94.8266671  98.9990584  89.9372566  96.1724246  98.2727416  91.4773438
  96.3416306  97.3493882  92.0313189  97.0731953  98.5324630  90.9212345
  95.9324461  99.0754126  92.1746448  95.1938654  97.0275986  89.3754066
  95.1497786  96.0624866  89.8801005  94.3263686  97.1366115  88.7245111
  96.4596328  97.1063637  88.5467034  97.3276079  96.9969594  89.1968955
  96.4590929  96.3077998  87.8048175  96.5041989  98.0710859  88.0413077
  93.4905308  98.8303631  92.4277967  93.2271478 100.0285769  92.0452759
  93.6865515  98.5114527  93.7121573  93.9569488  97.5499026  93.8618437
  93.4818785  99.3437948  94.8560929  92.4291583  99.5335682  95.0655332
  94.0825861  98.5010588  96.0328734  93.4284337  97.6669483  96.2867305
  95.0503792  98.1177698  95.7095067  94.2765613  99.4127381  97.2899604
  93.3843883 100.2058069  97.6754381  95.3055281  99.3034693  97.9009945
  94.1395256 100.7398366  94.6190666  95.3064786 100.7436254  94.2511055
  93.5500632 101.9020947  94.9859278  92.1192644 102.1257791  95.3656924
  92.0129002 101.8953887  96.4257429  91.5052373 101.4399720  94.7819644
  91.8188767 103.5842561  95.0515872  90.9946570 103.9955942  95.6343067
  91.6448647 103.7744847  93.9925149  93.1476506 104.1584211  95.4922453
  93.3152173 104.2689791  96.5635984  93.2527745 105.1285538  95.0065592
  94.1704017 103.1573957  94.8999647  94.2871134 103.3171491  93.8280713
  95.5126720 103.4111479  95.6041309  96.2537344 104.1891623  95.1211172
  95.8201254 102.7334398  96.7296300  95.0284883 102.2882555  97.1714683
  97.0757165 102.7042535  97.4046501  97.5900274 103.6478370  97.2223492
  96.9362659 102.5083943  98.9099141  96.5687242 101.4927097  99.0561917
  97.9397838 102.5946247  99.3265867  96.0091525 103.4893180  99.6134528
  95.0763179 103.3136692  99.0776656  95.8876777 103.2009774 100.6575805
  96.3661796 104.9534884  99.5345376  97.3697517 105.3892719  98.9548093
  95.6652734 105.7239495 100.1773651  98.1021552 101.6830657  96.8216364
  99.2149600 101.5432358  97.3181403  97.7997773 100.9268677  95.8081710
  96.8662379 101.0114686  95.4320776  98.6725585  99.8565281  95.2824154
  98.0855816  99.2001678  94.6399604  99.8216906 100.4133055  94.4810145
 100.5390007 100.9655540  95.0881282 100.3460748  99.6542901  93.9004830
  99.1691685 101.5869588  93.2911961 100.3423637 101.9038482  92.7507404
  99.1598444  98.8766939  96.3355328 100.2269365  98.2499140  96.2944783
  98.3355337  98.4909887  97.3320806  97.5692788  99.1131730  97.5461821
  98.5512649  97.3134641  98.2082756  99.6092404  97.2678912  98.4665586
  97.7355653  97.3586876  99.4983202  96.7094160  97.2095576  99.1623482
  98.0690380  96.4782886 100.0476777  97.7999186  98.5893704 100.4160181
  98.7232784  98.5383406 100.9929960  97.8115184  99.4823109  99.7910184
  96.6262462  98.6495369 101.3535585  96.2382559  97.6501892 101.5507048
  96.9080580  99.1215309 102.2947828  95.5481197  99.4643559 100.7128393
  95.3097723  99.1426012  99.7856048  94.8615026 100.5245044 101.2310432
  95.0188035 101.1232153 102.3755831  95.7333150 100.8049237 103.0145384
  94.4256487 101.9034098 102.6196395  93.9239110 101.0515128 100.4720319
  93.7453031 100.6671784  99.5552515  93.3875123 101.8377446 100.8099885
  98.3238220  96.0434572  97.4475376  98.8257272  95.0252533  97.8930631
  97.4873973  96.0735713  96.3811255  97.0134019  96.9262154  96.1195423
  97.0978653  94.7918493  95.6782830  97.9980610  94.3147819  95.2907864
  96.3755957  93.7940360  96.6256352  95.9941546  92.9853791  96.0021964
  97.1304906  93.4016775  97.3070223  95.2350672  94.3960346  97.4268253
  95.6463037  95.1719641  98.0725179  94.5279641  94.8427642  96.7278690
  94.3438316  93.1286711  98.4783418  95.8330156  92.5665229  99.3916033
  96.2687799  93.4080473  99.9301618  95.5524694  91.7878991 100.1009266
  96.5635748  92.1692522  98.6869329  96.2826829  95.0522735  94.3296085
  95.4588448  95.9085841  94.2265897  96.5701798  94.2264736  93.3071241
  97.5059884  93.8466098  93.3151902  95.6658191  93.8375793  92.2053479
  95.1069916  94.6693298  91.7763931  96.4896315  93.1467201  91.0985866
  96.9649168  92.2372634  91.4661363  95.4551808  92.7781305  89.9654209
  94.9797922  93.6871913  89.5970261  95.9749598  92.2826138  89.1454248
  94.6952173  92.1096192  90.3699543  97.6808112  93.9462283  90.5740824
  97.2835618  94.7716724  89.9833746  98.2128160  94.3421986  91.4391130
  98.6357232  93.1299558  89.7237064  98.1045105  92.7340118  88.8581769
  99.4559963  93.7639727  89.3871446  99.0337631  92.3045361  90.3139151
  94.6137126  92.8634173  92.8052490  95.0635216  91.9106219  93.4956126
  93.3353836  93.0969250  92.6670247  93.1203359  94.0448431  92.3926068
  92.2330535  92.1681405  92.8602263  92.6354306  91.2685790  93.3260383
  91.5183967  92.6379971  93.5359480  91.5270329  91.7869595  91.5899071
  91.4842182  92.5598178  90.5996813  91.0679440  90.5615057  91.4079472
  90.9487830  90.0988198  92.2977909  90.6589708  89.8308290  90.1682648
  90.4451746  90.5122408  89.3448158  91.8781138  88.9368475  89.7729254
  92.0126157  88.1506331  90.5158085  91.3941353  88.5217282  88.8888774
  93.2280500  89.5042796  89.3891729  93.6590123  90.0446749  90.2319927
  94.1566168  88.3334881  88.9998079  93.7265164  87.7928621  88.1566970
  95.1353898  88.7229809  88.7198089  94.2643152  87.6570284  89.8476898
  93.2263755  90.2497657  88.0751521  92.5292848  91.0857864  88.1320139
  94.2283455  90.6262031  87.8691127  92.9202857  89.5759335  87.2749282
  89.4468307  88.8487164  90.3701760  89.4591747  88.0985491  91.3205689
  88.4727714  88.9848398  89.5357654  88.3935974  89.8379655  89.0009689
  87.4614329  87.9189917  89.3154467  87.5645983  87.1755392  90.1058481
  86.0391853  88.4394237  89.3232049  85.9246561  89.0149795  90.2417460
  85.9477312  89.1045346  88.4645060  84.9315318  87.3476573  89.2538088
  85.1648317  86.7265067  88.3890291  85.0264944  86.7540924  90.1630749
  83.4725633  87.8802734  89.1317589  82.7637293  87.1769778  89.5688271
  83.3699846  88.8493917  89.6200074  83.1697742  88.0324794  87.7448353
  83.7185939  87.4545462  87.1244406  82.2844690  88.8890432  87.2076694
  81.3595092  89.4929601  87.8830084  81.2749010  89.3290423  88.8760202
  80.7269400  90.1251287  87.4136273  82.2689323  89.1242964  85.9556505
  82.9315755  88.6618033  85.3497592  81.5940486  89.7721620  85.5749921
  87.6252126  87.2217024  87.9727186  87.3871198  87.8306772  86.9052095
  88.2362360  86.0836928  87.9478677  88.4749616  85.7772471  88.8801769
  88.6315771  85.2123201  86.7879544  88.7877589  85.7901519  85.8770116
  89.9976469  84.5398876  87.1986134  89.8497058  83.9507081  88.1036438
  90.2530764  83.8770370  86.3718819  91.1261444  85.5310656  87.4193022
  90.9926958  86.0936824  88.3432907  92.4382451  84.6443865  87.5250371
  92.5726236  84.0817887  86.6011730  93.3016981  85.2899752  87.6855512
  92.3428107  83.9515803  88.3611067  91.3447893  86.5484317  86.2454906
  90.4370623  87.1333396  86.0971197  92.1704348  87.2160994  86.4917235
  91.5790147  86.0037922  85.3308293  87.5810265  84.1440068  86.4729872
  87.3783822  83.7083785  85.3008608  86.8674604  83.5569380  87.4571932
  87.1977271  83.7802782  88.3851708  85.6592485  82.6976584  87.3259999
  85.3730190  82.5271018  86.2881741  86.0742590  81.3716944  87.9391350
  86.1931435  81.5612173  89.0059277  85.2643189  80.6586356  87.7853681
  87.3704970  80.7969425  87.3777389  87.3682013  80.1652765  86.1385558
  86.4504023  80.1753029  85.5506409  88.4644811  79.5517615  85.6621725
  88.3897670  78.9794301  84.7375340  89.6573408  79.6165890  86.3332947
  90.7793385  79.0308559  85.8957927  90.6593356  78.5631244  85.0660782
  89.7489009  80.3703174  87.5678275  90.7084043  80.5433212  88.0551912
  88.5388814  80.8953883  88.1509531  88.5619380  81.3410065  89.1454343
  84.4243412  83.2041131  88.1084820  84.6099025  84.0146843  89.0521374
  83.2409873  82.8191761  87.7526462  83.1358952  82.2195003  86.9467653
  82.0315891  83.2367484  88.4716603  81.8682785  84.3074365  88.3489585
  80.8125462  82.4840976  87.9025503  80.7824512  82.7780883  86.8533778
  80.9464549  81.4046620  87.9731713  79.4678660  82.8897562  88.5970321
  78.6066534  81.9847191  88.7635428  79.2240981  84.0784004  88.8963652
  82.0537491  82.9788635  90.0266115  82.4423150  81.9333397  90.5633335
  81.7321518  84.0388642  90.7977533  81.5931619  84.8450462  90.2054259
  81.5680501  84.1979690  92.2065295  80.9475493  85.0877578  92.3130845
  81.0012807  83.3208711  92.5188931  82.7889913  84.3385610  93.0947718
  82.5690371  84.2526829  94.3190761  83.9790010  84.3963221  92.4614800
  84.0390225  84.6034875  91.4747788  85.1904931  84.1248396  93.1724702
  85.0047691  83.9412323  94.2307207  85.7794990  82.8689447  92.5586819
  85.6712408  83.0619273  91.4913783  86.8380036  82.7986570  92.8091370
  85.0734371  81.5333373  92.9170040  84.0103098  81.6640494  92.7150742
  85.6044062  80.3123817  92.1206836  86.6674443  80.1807454  92.3224778
  85.0636276  79.4163053  92.4251606  85.4557367  80.4810322  91.0541215
  85.0204642  81.0470900  94.3521442  84.5029161  81.7834777  94.9669422
  84.4857844  80.0982198  94.3953186  86.0345557  80.9095122  94.7273638
  86.2151850  85.2966889  93.1108201  86.3609190  85.8623613  92.0266400
  86.8418604  85.7477807  94.1548700  86.7081629  85.2729218  95.0361948
  87.6561140  86.9430303  94.1365806  87.7728718  87.2613563  93.1006582
  87.0328619  88.1517289  94.9748966  86.0451655  88.4441419  94.6184564
  86.9554752  87.7859856  95.9987829  87.8482123  89.3884475  95.0268648
  88.1430322  90.1392466  93.8336778  87.7537532  89.7871577  92.8783794
  88.9151004  91.3025591  93.8874331  89.2162658  91.7931793  92.9618566
  89.3175619  91.8600819  95.1716613  89.8668140  92.7977755  95.2562359
  88.9599749  91.1169106  96.3683286  89.2346969  91.5114153  97.3465894
  88.2616999  89.8920261  96.2710250  88.0353000  89.3207435  97.1712911
  89.1007911  86.5868172  94.6595617  89.2886209  86.2863915  95.8355699
  90.1071090  86.8183375  93.8446355  89.9153982  86.9320340  92.8595368
  91.4996024  86.7724742  94.2774953  91.5841113  86.5043381  95.3306147
  92.2130911  85.6496846  93.4088974  92.9710196  85.2772348  94.0980453
  91.4219746  84.9072530  93.3038742  92.8449263  85.9092176  92.0555811
  92.0479423  86.1104655  91.3397482  93.4860875  86.7865682  92.1408476
  93.6743201  84.7164975  91.5732599  94.1076532  84.9777963  90.6078355
  94.4728798  84.5490881  92.2960156  92.8309705  83.4253535  91.4278309
  92.1767971  83.3542065  92.2967934  92.2267487  83.5210686  90.5256925
  93.6870538  82.1708633  91.3337856  94.2467011  82.0817546  92.1698205
  93.0896536  81.3618204  91.2407126  94.2929970  82.2363994  90.5284056
  92.2050582  88.0936847  94.2515320  91.7438198  89.0000770  93.5561559
  93.3276618  88.1594830  95.0297716  93.3911995  87.4954947  95.7881790
  94.3487679  89.2461076  94.9528935  94.3120679  89.8572875  94.0511112
  94.1157190  90.1726258  96.1958325  94.9606616  90.8612235  96.1979411
  92.7967876  90.9757134  96.2670461  91.9513453  90.2877266  96.2654449
  92.7805711  91.5683355  97.1817245  92.7271149  91.6381586  95.4042520
  94.2281473  89.4221656  97.5146328  95.2244100  88.9888399  97.6029021
  94.0579075  90.1118158  98.3413738  93.4827816  88.6274558  97.5457314
  95.7737128  88.8444653  94.7641858  96.2616090  87.9456557  95.4217484
  96.5163456  89.5565954  93.9418834  96.0151251  90.2445731  93.3982253
  97.9672130  89.5091687  93.8267989  98.3940693  88.5843858  94.2149606
  98.3377375  89.6575450  92.2649378  97.9290071  90.5646176  91.8196749
  99.8892420  89.7446936  92.2855243 100.2987430  88.8377086  92.7302577
 100.2613638  89.8489790  91.2663331 100.1973578  90.6086029  92.8744424
  97.7901870  88.4981661  91.4044872  98.3123039  87.5793079  91.6713097
  96.7247175  88.3804986  91.6020436  98.0095085  88.8006568  89.8764995
  99.0748526  88.9179988  89.6780741  97.6185989  87.9746893  89.2823053
  97.4872676  89.7191914  89.6088086  98.4462922  90.7779295  94.5645454
  98.3500929  91.9007803  94.0376396  98.9128694  90.6214813  95.7974253
  98.7323033  89.3902694  96.6492246  98.8825075  88.5145094  96.0178900
  97.7126596  89.3892245  97.0344837  99.7804592  89.4985661  97.7667773
 100.6877701  88.9472733  97.5198719  99.3876976  89.1429011  98.7193224
 100.0413717  91.0301533  97.8113893 101.1071920  91.1279307  98.0177036
  99.4722236  91.5116350  98.6065908  99.7070440  91.6858313  96.4523641
  99.0774407  92.5570414  96.6331703 100.8749404  92.0800533  95.5281926
 101.4963219  91.2537983  94.8715864 101.0919872  93.4162079  95.5249310
 100.5340516  94.0218826  96.1097091 102.0361280  94.0392799  94.5662608
 102.1693862  93.4403973  93.6653274 101.3726633  95.4026997  94.1679106
 100.9434425  95.7990192  95.0881277 102.1719534  96.0609790  93.8274641
 100.2897299  95.3213252  93.0956870  99.5950212  94.5133916  93.3253038
  99.5406788  96.6419654  93.0752453 100.2346921  97.4503794  92.8452210
  98.7605995  96.6060831  92.3147918  99.0882714  96.8188091  94.0510292
 100.9720913  95.0299170  91.7006471 101.5128291  94.0848128  91.7504484
 100.2068306  94.9697393  90.9267893 101.6680017  95.8338887  91.4609866
 103.5176263  94.1370054  95.1371257 104.1962253  95.0888679  94.6714366
 103.9481492  93.3460885  96.0788105 103.2678039  92.7434930  96.5193876
 105.3505181  93.3297901  96.5971010 105.5597258  94.2325297  97.1710283
 105.5223017  92.0967690  97.5298535 105.6552075  91.2722063  96.8294739
 106.4261591  92.2143268  98.1276176 104.3742786  91.8066657  98.4221921
 103.6450907  92.7208424  98.8129363 104.2448850  90.6087807  98.8124866
 106.4543334  93.3258012  95.5276171 106.4174362  92.4881508  94.6235433
 107.3574489  94.2930847  95.6654689 107.3370666  95.0589156  96.3236383
 108.4088814  94.2779331  94.6543754 107.9628102  94.2959170  93.6599930
 109.2910542  95.4592093  94.7989011 109.8633889  95.3627651  95.7215227
 109.9742252  95.4966865  93.9503889 108.4643300  96.7447523  94.8443690
 107.9063887  96.8841744  93.9184296 107.7727485  96.7356861  95.6868266
 109.4639950  97.8947774  95.0164802 108.9869656  98.8331998  95.2991554
 110.2588445  97.6637811  95.7256730 110.0494908  98.0494975  93.6947381
 110.0434284  97.2326378  93.1007660 110.5362019  99.1203867  93.2402155
 110.3956031 100.2835564  93.7412246 109.8501108 100.4051397  94.5825068
 110.8303269 101.0783412  93.2946466 111.2704672  99.0934410  92.1841013
 111.4542929  98.2139078  91.7228752 111.6595800  99.9519477  91.8212568
 109.3182597  93.0605871  94.5051218 109.9197162  92.9356147  93.4411613
 109.2985996  92.0706065  95.4303493 108.9509118  92.4182411  96.3125979
 109.8339596  90.6847351  95.3806269 110.5648946  90.5736613  94.5796925
 110.5251357  90.4051492  96.7148350 111.1041354  89.4892338  96.5966933
 111.1959430  91.2299669  96.9552377 109.4954339  90.2223080  97.8661947
 108.2348898  90.3640232  97.7473568 109.9521700  89.9444085  98.9590648
 108.7583425  89.6302305  94.9491007 109.0776469  88.4731003  95.0939096
 107.5274437  90.0258973  94.5178597 107.1881922  90.9425997  94.7721519
 106.5739656  89.0643651  93.9392681 106.8427546  88.0417988  94.2042395
 105.2556062  89.3526455  94.4787159 105.4495784  89.3396462  95.5512387
 104.8267510  90.3149665  94.1992139 104.2718698  88.2835922  94.1606943
 104.5568274  87.2557206  93.5186039 103.0179615  88.4666220  94.3999599
 102.3537660  87.7375608  94.1822127 102.7060425  89.3381643  94.8039665
 106.8104516  89.0028278  92.4437620 106.0646209  89.5443672  91.6374689
 107.8429192  88.2901337  92.0550684 108.4064261  87.9805518  92.8339897
 108.3313635  88.0410743  90.7095538 108.3693038  88.9793929  90.1561842
 109.7386517  87.4319180  90.7385138 109.6501990  86.3947175  91.0617634
 110.1402377  87.4632970  89.7256742 110.7023268  88.1996322  91.7059646
 110.5879725  89.2569775  91.4671239 110.3287859  88.0126323  92.7127418
 112.2008081  87.8127704  91.6313004 112.2145110  86.7240103  91.6814251
 112.5268956  88.1345678  90.6422540 113.1643659  88.3947444  92.7109188
 113.1838715  89.4805567  92.6174755 112.7928006  88.1222140  93.6987273
 114.5168904  87.8663649  92.5363178 114.8615415  88.1191560  91.6212156
 115.1240034  88.2547946  93.2438744 114.4991057  86.8602744  92.6232927
 107.3439630  87.2552910  89.9215761 107.2882731  87.4184448  88.6956033
 106.5689135  86.3350290  90.5484629 106.5885824  86.3608229  91.5579416
 105.7804734  85.2347866  89.8747665 105.9482134  85.2237647  88.7978073
 106.2790022  83.8994943  90.4650177 106.0145915  83.8706950  91.5220687
 105.7776185  83.0843301  89.9432689 107.7624392  83.7489974  90.3173174
 108.0262815  83.7232452  89.2600450 108.2165287  84.6234611  90.7833809
 108.2783467  82.4788659  91.0034699 109.2837656  82.4855407  91.7100633
 107.5884977  81.4457185  90.8246745 104.2659581  85.3928554  89.9887207
 103.5630170  84.4215492  89.8546161 103.7697101  86.5699792  90.4315496
 104.4626372  87.2264386  90.7617200 102.3288041  86.9117995  90.6123474
 102.2483589  87.8970491  91.0715979 101.5788944  86.9324758  89.2710533
 101.6997807  85.9701830  88.7735815 100.5257773  87.0911656  89.5031352
 102.0796430  88.0680669  88.3319912 103.0873345  87.8343115  87.9884552
 101.1140459  88.1968862  87.0846654 100.1061915  88.4311071  87.4274031
 101.4690126  88.9931872  86.4304451 101.1009640  87.2552094  86.5358721
 102.1481023  89.5399926  88.8783604 102.8216683  89.5793741  89.7344313
 102.5176177  90.2019840  88.0952084 101.1525706  89.8609735  89.1849332
 101.6383684  86.0059924  91.6663882 100.4989526  85.4794735  91.4357644
 102.3409546  85.6817328  92.7882498 103.2270309  86.1359459  92.9575380
 101.8447713  84.6698577  93.8057178 101.4199300  83.7998427  93.3050353
 103.0483706  84.2022433  94.6829546 103.4819894  85.0838369  95.1550422
 102.6631542  83.5317573  95.4511713 104.1345153  83.4721243  93.8595702
 103.6585903  82.6757411  93.2874076 104.5901918  84.1879283  93.1754024
 105.1933111  82.8856415  94.7479543 105.9960856  82.5418370  94.0956886
 105.5596749  83.6962233  95.3779020 104.7353387  81.7601669  95.6053534
 105.5758660  81.4009636  96.1991442 103.9481102  82.1169227  96.2695038
 104.2252291  80.6805165  94.7902741 104.9546641  80.3495068  94.1750855
 103.9185851  79.9248038  95.3860658 103.4460983  81.0130419  94.2402912
 100.7863495  85.4812913  94.6284839 101.0056017  86.6300112  94.9680231
  99.6767231  84.7778201  94.7973816  99.7171323  83.7865039  94.6082818
  98.3588459  85.3833308  95.0858699  98.4417566  86.4396309  95.3417118
  97.5538257  85.2556906  93.7928980  97.4544465  84.2029015  93.5285896
  96.5638919  85.6887544  93.9363803  98.0682251  85.7842592  92.9903348
  97.7879786  84.7499204  96.3462634  98.4343685  83.9245442  96.9587340
  96.5188753  85.1548872  96.5781724  96.1257626  85.9287358  96.0617229
  95.6709439  84.4716524  97.5580129  95.9338484  83.4156753  97.6204047
  95.8817045  85.1085724  98.9289753  95.6518884  86.1709593  99.0103258
  95.1848316  84.5385312  99.5434029  97.2231105  84.9189502  99.5235770
  97.5114469  83.7022651 100.1742063  96.7438855  82.9284603 100.1874528
  98.7616528  83.4713023 100.8012655  98.9075620  82.6204188 101.4667041
  99.8219729  84.3596027 100.5537482 100.8419042  84.1596782 100.8821841
  99.5248241  85.5559266  99.8465702 100.3191488  86.2940395  99.7354946
  98.2607766  85.8015879  99.3011342  98.0916289  86.6931948  98.6973743
  94.2141333  84.6841705  97.0886092  93.8510597  85.7859462  96.5645311
  93.3398728  83.6905844  97.3084005  93.7332269  82.9207117  97.8305766
  91.9221595  83.5977751  96.8783487  91.7538438  84.3572802  96.1148560
  91.5275413  82.2443866  96.3120970  91.7002736  81.4075536  96.9888342
  90.4566516  82.3617775  96.1462218  92.1963825  81.9374474  94.9773480
  93.2534268  82.4753863  94.6792134  91.6782184  80.9599286  94.2212877
  92.1013046  80.7353080  93.3321064  90.8669461  80.4522329  94.5440618
  91.1071089  83.8957693  98.1504894  91.2504808  83.2070408  99.1725968
  90.2523360  84.9387423  98.1214587  90.1637211  85.3496179  97.2030754
  89.5319983  85.5539551  99.2241421  89.7016974  85.2321753 100.2516435
  89.7465738  87.0719570  99.1211284  89.3241923  87.4261220  98.1807767
  89.0683543  87.7898409 100.2857288  89.4905656  87.4365123 101.2264717
  89.2312359  88.8638291 100.1956200  87.9984375  87.5823587 100.2676093
  91.2588719  87.4958641  98.8206237  91.5693182  87.0914160  97.8572205
  91.3387369  88.5827489  98.8005623  92.1595821  86.9405109  99.9187430
  92.0805996  85.8535672  99.9391117  93.1928385  87.2255552  99.7206773
  91.8500165  87.3448986 100.8824544  88.0575349  85.1768349  99.2163280
  87.3585481  85.4637018  98.2516696  87.6036922  84.3872070 100.2382109
  88.1724363  84.3583623 101.0723556  86.4374780  83.5668938 100.1859847
  86.3985231  83.0225166  99.2424620  86.4778174  82.5496308 101.3390822
  86.8129636  83.0518430 102.2465838  85.4768596  82.1474939 101.4955089
  87.4546778  81.3892596 100.9984937  87.1052912  80.9272106 100.0751624
  88.4393363  81.8272435 100.8350316  87.5449257  80.3274179 102.0977591
  86.5772909  79.8310176 102.1710294  88.3041532  79.6012532 101.8073151
  87.8878619  80.8614310 103.3886231  87.1019536  81.1817546 103.9361997
  89.1210480  81.0189172 103.8874689  90.1766266  80.7249108 103.1577306
  90.0556475  80.3787373 102.2166525  91.1025223  80.8468916 103.5423570
  89.2728301  81.3967496 105.0875713  88.4628131  81.5776255 105.6631202
  90.2030802  81.5151753 105.4626830  85.0967263  84.4244925 100.2404230
  84.8284632  85.0743426 101.2207677  84.1749939  84.2056523  99.2959548
  84.5599055  83.8790239  98.4211655  82.7323240  84.5485128  99.3452619
  82.6285560  85.4597283  99.9343440  82.0771575  84.7747193  97.9686397
  82.4261047  83.9236354  97.3838395  80.9924762  84.7280736  98.0655456
  82.4676563  86.0649138  97.2673838  82.4393021  86.8090687  98.0633300
  83.8213830  86.1752487  96.5010705  83.8502863  85.4316602  95.7046161
  83.9154595  87.1721031  96.0703365  84.6459369  85.9992101  97.1918828
  81.4018470  86.4815808  96.2804734  80.4601941  86.6385329  96.8065488
  81.7021307  87.4075134  95.7899841  81.2733451  85.6996688  95.5320085
  81.9430995  83.5468205 100.2026919  82.2132863  82.3705189 100.1476060
  80.9190304  83.8978291 100.9884472  80.7186336  84.8612412 101.2159942
  80.0596497  82.8898285 101.5064478  80.6002048  81.9623885 101.6955364
  79.5021815  83.4158092 102.8425688  80.3466053  83.7470448 103.4469947
  78.8583066  84.2670322 102.6213345  78.6912217  82.3419044 103.6280411
  78.4668604  82.7465068 104.6149857  77.7607755  82.1627291 103.0892784
  79.4444380  81.0422425 103.7767464  80.5895067  81.1675252 104.2812727
  79.0585159  79.8994243 103.4603657  78.8267389  82.5597640 100.5653197
  78.2552310  81.4499356 100.5959268  78.4502447  83.4975804  99.7399207
  79.0039889  84.3406572  99.7917694  77.3703770  83.4553388  98.8133446
  76.9423950  82.4543993  98.7581123  76.2904350  84.4222537  99.2985941
  75.9552904  84.0594952 100.2702852  76.7682159  85.3944890  99.4193574
  75.1060352  84.5561069  98.3770874  74.4778554  85.3823868  98.7098822
  75.5142249  84.7843691  97.3925181  74.2728890  83.2862165  98.2981203
  73.7629930  82.7617086  99.3218563  74.0631508  82.7752939  97.1337677
  78.0419713  83.8934211  97.4630902  78.6064972  84.9468266  97.3782178
  78.2417158  82.9113258  96.5524328  77.7454314  82.0342812  96.6202110
  79.2066829  83.0736303  95.4842335  80.0698980  83.6307289  95.8483766
  79.6843343  81.7046683  94.9770520  78.7835626  81.3372897  94.4853788
  80.4659686  81.8599199  94.2333822  80.1552431  80.6827922  96.0016515
  79.2842191  80.2721477  96.5123266  80.9010178  79.5957741  95.3559078
  81.7725039  80.0056147  94.8453772  81.2260995  78.8793122  96.1102983
  80.2590124  79.0940819  94.6318675  80.9331748  81.2494563  97.0828707
  80.3323726  81.9861687  97.6161540  81.2311254  80.4579103  97.7704618
  81.8226503  81.7316019  96.6773242  78.4514900  83.8906822  94.4250565
  77.9248288  83.3882533  93.4299011  78.4866032  85.2163955  94.6663601
  78.9608327  85.5233757  95.5035990  77.7913079  86.2311973  93.8408351
  77.8755809  85.9715636  92.7855685  76.3100436  86.2934409  94.2116490
  75.8172170  85.5277393  94.8107501  76.3764451  87.2170637  94.7866375
  75.3729835  86.5864328  93.0059645  75.3269478  87.8522592  92.4138544
  74.2031598  87.7336623  91.6742272  73.9093163  88.6294157  91.1270703
  73.6415208  86.5274383  91.7423907  72.8487376  86.1852976  91.2184305
  74.3437029  85.8004069  92.6760163  73.9952909  84.8104191  92.9703535
  78.3997529  87.5884635  93.9093700  78.5532543  88.1260367  95.0268593
  78.7842192  88.0464430  92.7303685  78.7193864  87.4159295  91.9440170
  79.4444280  89.3788142  92.5219165  78.8500323  90.1991213  92.9242710
  80.8544476  89.4090460  93.1917074  80.6995361  89.3700285  94.2699371
  81.7751361  88.2545129  92.7645589  81.9308969  88.2931466  91.6864369
  82.7346723  88.3470150  93.2733163  81.3135980  87.3035665  93.0306138
  81.5196879  90.7292722  92.8877086  80.9103886  91.5428729  93.2812951
  82.5049729  90.7559253  93.3531145  81.6248156  90.8438363  91.8088555
  79.4404562  89.7128781  91.0084979  80.2214111  89.4958765  90.1966742
  78.4109072  90.5026459  90.6680680  77.8144047  90.8531082  91.4039079
  78.1162983  90.8918425  89.2965912  78.1614878  90.1070450  88.5415084
  76.7315271  91.5835845  89.2395851  76.7111012  92.3767402  89.9869720
  76.4599431  92.1727770  87.8711841  76.4797496  91.3800969  87.1232760
  75.4798712  92.6498011  87.8684167  77.2244572  92.9131090  87.6355446
  75.6270763  90.5990117  89.7914791  75.6688956  89.6835176  89.2013752
  75.8684496  90.3725909  90.8300223  74.2055561  91.1975618  89.7124097
  73.9632768  91.4238255  88.6740430  73.4858725  90.4789998  90.1046127
  74.1628316  92.1129006  90.3026887  79.1959274  91.8904020  88.7919122
  79.6959760  91.7194347  87.6885195  79.6440011  92.7569009  89.6989424
  79.2277494  92.7721716  90.6190515  80.6530726  93.7431782  89.3870504
  81.3755143  93.2846871  88.7118000  80.0960359  95.0258746  88.7194590
  79.5273975  94.6349395  87.8757059  79.4276698  95.5708176  89.3861102
  81.1546430  95.9434954  88.2207796  81.0191937  97.1515850  88.0594045
  82.2372283  95.4284328  87.8413581  81.4219417  94.0853442  90.6911024
  80.9420966  93.8385311  91.8033457  82.6329500  94.6118889  90.5980512
  83.0394759  94.7646549  89.6861858  83.4686177  94.9281771  91.8173844
  82.8326489  95.4134154  92.5577807  84.0397105  93.6230037  92.4331761
  83.1831267  93.0177237  92.7298235  84.9818157  92.7727552  91.4650902
  85.8389220  93.3772596  91.1683679  85.3298045  91.8812443  91.9868301
  84.4209954  92.4783047  90.5780270  84.9322022  93.8196865  93.6568163
  84.3644245  94.3128794  94.4457975  85.2808173  92.8501289  94.0125204
  85.7892398  94.4366265  93.3866825  84.6498881  95.9200763  91.5814985
  85.2927686  95.9403447  90.5362771  84.8959347  96.7529041  92.5859829
  84.4106199  96.5139273  93.4388950  85.7685577  97.8994001  92.5948615
  86.5768127  97.7397379  91.8811871  85.0054254  99.2141434  92.2026727
  84.1661697  99.2918868  92.8938348  85.7026018 100.0319315  92.3850669
  84.4839713  99.2958378  90.7467583  83.9082391  98.3785382  90.6234917
  83.8071068 100.1501233  90.7591203  85.4436064  99.4376133  89.6104405
  86.1812499 100.2057679  89.8426465  85.9508099  98.4891087  89.4338532
  84.6679222  99.8394858  88.3601035  84.1547674 100.7822161  88.5499250
  85.3686086  99.9675270  87.5350319  83.6841505  98.8095924  88.0102150
  83.0345245  98.6910970  88.7744431  83.1809879  99.0924041  87.1813936
  84.1594846  97.9360608  87.8338655  86.3942193  98.2107335  93.9550737
  85.7459119  97.9903272  94.9637934  87.5614265  98.8376664  94.0071179
  88.0696759  99.0032229  93.1501623  88.1995334  99.2377420  95.2978754
  87.8863085  98.5533659  96.0863034  89.7491014  99.1968226  95.1915570
  90.0158446  99.5930585  94.2117895  90.2341414  99.7896991  95.9670142
  90.3510379  97.7903546  95.2742633  90.3096355  97.0957126  96.4947252
  89.8120821  97.5655965  97.3431058  90.8816028  95.8438457  96.6348020
  90.7835115  95.3201722  97.5857199  91.5656148  95.2599297  95.5965387
  92.0494132  94.2891847  95.7046742  91.6336515  95.9553177  94.3551231
  92.1841614  95.5152715  93.5236195  91.0024649  97.1907363  94.1985079
  91.0175432  97.6916268  93.2305300  87.7235291 100.6033748  95.7305773
  87.3735091 101.4143467  94.8641591  87.6768114 100.9194282  97.0171564
  87.8504463 100.1487341  97.6464265  87.3516055 102.2633001  97.6085035
  86.9050418 102.8917387  96.8379550  86.3366972 102.1504324  98.8212949
  86.8786683 101.3774545  99.3661544  86.2967922 103.0583187  99.4231670
  84.8851846 101.6579594  98.5262858  84.9495242 100.8129819  97.8407390
  84.1422948 101.2295774  99.7960923  84.0771478 102.0742171 100.4819775
  83.1380010 100.8959041  99.5350233  84.6825152 100.4134394 100.2758641
  84.0640064 102.6454703  97.6102194  84.5717387 102.7605891  96.6525895
  83.0647942 102.2425206  97.4449687  83.9872939 103.6165841  98.0992513
  88.5602202 103.0654863  98.1142929  89.5330018 102.5533825  98.6736431
  88.5114494 104.3737352  97.8387295  87.6619708 104.7196371  97.4158379
  89.6028795 105.3411740  98.1193138  90.5687562 104.9037740  97.8666032
  89.3956112 106.6362685  97.2524303  88.4925383 107.2076193  97.4671787
  90.2609819 107.1585635  97.6604029  89.5574973 106.4876297  95.7330668
  88.5067513 106.2068863  94.8366869  87.5074241 106.1206886  95.2633187
  88.6986932 106.0384392  93.4459286  87.8910376 105.6495148  92.8258220
  89.9964697 106.2624033  92.8762671  90.2794686 106.0654608  91.5506521
  89.5208092 105.7631691  91.0460183  90.9951896 106.8430340  93.7562788
  91.9378992 107.2225806  93.3621425  90.7324731 106.9112266  95.1304850
  91.4810191 107.3206981  95.8088006  89.6032747 105.7484123  99.6060420
  88.6053829 105.6305974 100.3053434  90.6522560 106.3995223 100.1648801
  91.4610109 106.6400806  99.6097706  90.6463580 106.7756831 101.5941577
  91.6447258 107.1716315 101.7801302  89.9170396 107.5826525 101.6648279
  90.3252947 105.7224018 102.6502978  89.7743212 106.0776659 103.6990522
  90.7472422 104.4374353 102.4597215  91.1265840 104.2206986 101.5491040
  90.6715572 103.3386811 103.4786641  90.1232349 103.6774203 104.3576963
  89.9430733 102.1333524 102.8827825  90.3842859 101.7786892 101.9513080
  89.8454860 101.2999152 103.5784542  88.2082339 102.6617545 102.4638008
  87.8154297 101.4838714 101.9871514  92.0798167 102.9572948 103.8907936
  93.0781558 103.0822833 103.1651608  92.2381397 102.5361616 105.1391071
  91.3857620 102.4459718 105.6733518  93.5135255 102.2128259 105.7997999
  94.3094596 102.9159817 105.5545245  93.1889177 102.3367906 107.3296916
  92.8758859 103.3618315 107.5281894  92.3689239 101.6561981 107.5588290
  94.4128846 101.9889465 108.2178012  93.9327745 102.1786387 109.1778075
  94.7141835 100.9428371 108.1632480  95.6169134 102.8312164 108.1191965
  96.2457419 103.1226634 107.1422224  96.2159019 103.1521316 109.2023549
  97.0442432 103.7288699 109.1659546  95.8578274 102.8273466 110.0891462
  93.8801707 100.7941414 105.3482808  95.0233105 100.4297058 105.3196436
  92.8426537  99.9727073 104.8428121  91.8993814 100.3319902 104.8782025
  93.0438640  98.5622829 104.4209255  94.1061123  98.4614398 104.1983085
  92.6723052  97.5529007 105.5850105  91.6096331  97.6356809 105.8129918
  92.8972994  96.5342779 105.2689638  93.2540873  97.7935760 106.4747881
  92.2979855  98.2779043 103.0721294  91.3942673  99.0451624 102.7640867
  92.7088609  97.3012643 102.1707977  93.5422385  96.1467020 102.5734111
  92.9339804  95.4491980 103.1492673  94.3701449  96.4994513 103.1884216
  94.0193834  95.5488206 101.2286042  94.0223722  94.4606791 101.2921517
  95.0265896  95.9021199 101.0076595  93.0231267  96.0447919 100.1766764
  92.4270703  95.1358639 100.0950329  93.3677349  96.3428442  99.1864695
  92.2056738  97.1336339 100.7790507  92.1962455  98.0618667 100.2077423
  90.7745791  96.6779077 101.0291615  90.4671342  95.7556360 101.8096188
  89.7604139  97.2817170 100.3755643  90.0868861  97.7847664  99.5628795
  88.3105785  97.2561771 100.6464718  88.1064060  96.3064218 101.1408175
  87.9531797  98.4126965 101.6243777  88.1434968  99.3705572 101.1402470
  86.4785082  98.3194945 102.0045281  86.2875063  97.3620254 102.4891628
  86.2274610  99.1293354 102.6895333  85.8655362  98.4004414 101.1068570
  88.6321411  98.2972002 102.8441461  88.3857825  99.0264702 103.4177950
  87.5836987  97.5181720  99.2973705  87.8572504  98.4927024  98.5197890
  86.7092613  96.5799085  98.9812901  86.6274063  95.7834177  99.5969212
  85.9397529  96.5930233  97.7981723  86.1967036  97.3490202  97.0561856
  85.9164351  95.2020949  97.1284228  85.1444940  95.1726233  96.3594373
  87.2404233  94.9537883  96.5089287  88.0128782  94.9826475  97.2774216
  87.2405388  93.9741548  96.0309968  87.4425690  95.7217607  95.7622998
  85.3778846  94.0571611  98.0518409  86.1271234  93.8477475  98.8153119
  84.4600490  94.4008670  98.5288561  85.0879586  92.7651947  97.2444484
  86.0054920  92.4206043  96.7674895  84.7159030  91.9919149  97.9165438
  84.3384187  92.9737247  96.4810317  84.4993696  97.0766863  98.0280658
  83.9843640  96.9581566  99.1654703  83.9250650  97.7290598  97.0303579
  84.5685748  98.2209910  96.4270354  82.5035801  97.9243023  96.8238680
  81.9327362  97.5140154  97.6568752  82.2259794  99.4217697  96.7332567
  81.1550499  99.6247483  96.7362462  82.6996658  99.9605646  97.5538792
  82.8668564 100.1514670  95.2228583  82.4595886 101.3904871  95.4833583
  82.0795355  97.0496117  95.6144978  82.8953469  96.7513860  94.7519329
  80.8023982  96.7179969  95.4752316  80.1014587  97.1719891  96.0432757
  80.3826790  95.6738643  94.5793064  80.7134599  95.8980997  93.5652049
  81.0085052  94.2962492  95.0201282  80.4836187  93.6655123  94.3026574
  82.0840065  94.1862329  94.8812276  80.6976774  93.7580706  96.3642796
  81.6176670  93.9819996  97.4307972  82.4537586  94.6731088  97.3239379
  81.4251994  93.2768152  98.6605944  82.0867725  93.4867559  99.5010387
  80.4012805  92.3254161  98.7937855  80.2310673  91.7693065  99.7156692
  79.5486085  92.0942964  97.6359517  78.7978859  91.3088238  97.7228345
  79.6613141  92.8389687  96.4315462  78.9531182  92.6728523  95.6197803
  78.8406389  95.5869442  94.5214590  78.1091856  96.1868165  95.2642283
  78.3717440  94.8479802  93.4967201  79.0134276  94.6958041  92.7317469
  76.9954663  94.4108583  93.3384953  76.4177916  94.7769007  94.1872616
  76.3017168  94.8469371  92.0524985  76.7092867  94.2741553  91.2194877
  74.7570637  94.6022373  92.1479279  74.3486755  95.1750961  92.9804860
  74.2803828  94.9198420  91.2205644  74.5660263  93.5412981  92.3092177
  76.5807378  96.3009041  91.7904524  77.6553437  96.4526414  91.6889634
  76.0826261  96.6069392  90.8704921  76.2068157  96.8987162  92.6216587
  76.8508596  92.9335821  93.5455464  77.5776953  92.1699119  92.9221752
  75.8229998  92.4456673  94.2411125  75.3250319  93.1611748  94.7511874
  75.3898283  91.0063226  94.4166439  75.6232800  90.4112593  93.5337515
  76.1855611  90.4236247  95.6395913  76.2311270  89.4131838  95.2333499
  77.1941440  90.7694702  95.8659792  75.3407614  90.4207757  96.9316917
  75.2054781  91.6143607  97.6227999  75.6361747  92.5152437  97.1857534
  74.5363609  91.6828882  98.8524499  74.2449711  92.6433926  99.2774500
  74.2466102  90.4934142  99.5408917  73.7779889  90.5380970 100.8100239
  73.6810013  91.4333485 101.1427667  74.4415670  89.2361320  98.8996006
  74.1738810  88.2915215  99.3730516  74.9968860  89.2422250  97.6196836
  75.1847906  88.3012387  97.1026373  73.8827361  90.8991551  94.5794608
  73.1652057  91.8763553  94.4978522  73.3713874  89.6756496  94.8060485
  73.9736837  88.8750891  94.6778249  71.9531501  89.4434383  95.0197069
  71.4985597  90.3077134  95.5039334  71.2578068  89.2154647  93.6685268
  71.6093852  90.0077221  93.0076031  71.6132868  88.2525557  93.3017296
  69.7264364  89.2168259  93.6969670  69.4611233  88.2704747  94.1682729
  69.3279041  90.0410482  94.2885173  69.1058932  89.2629237  92.3306921
  69.6162769  89.7031333  91.3131652  67.8540777  88.8865626  92.1485239
  67.4485983  88.9224404  91.2241860  67.3073797  88.5644086  92.9342971
  71.7006624  88.3550546  96.1045907  72.5033460  87.3844942  96.2276220
  70.6265767  88.4907782  96.9026227  70.1568140  89.3783413  97.0105765
  70.2256062  87.3745154  97.7831719  70.5693989  86.4243834  97.3743261
  70.8734425  87.5754517  99.1965136  70.3806606  86.7158060  99.6506881
  71.9483733  87.3989744  99.1580500  70.5819474  88.8686079 100.0621826
  71.5255130  89.3479587 100.7375253  69.3807014  89.2734998 100.2328266
  68.7055919  87.3157207  97.6810660  68.1161744  88.1690681  97.0328636
  68.0034485  86.3421633  98.3831213  68.5730404  85.1753887  99.0477957
  68.7676249  85.4574040 100.0825442  69.5159608  84.9493219  98.5499061
  67.5898785  84.0631951  98.9335155  67.7125882  83.3472456  99.7462009
  67.6912864  83.5484304  97.9780915  66.2523812  84.7819365  99.0237039
  65.9630986  85.0784563 100.0319154  65.4325465  84.2361095  98.5567527
  66.5991831  86.0439098  98.1798046  66.4360267  85.6827260  97.1644108
  65.8156428  87.3029833  98.3931877  64.7498370  87.4564824  97.8489110
  66.1850190  88.1987694  99.3677381  66.8976916  87.9278557 100.0301601
  65.5185373  89.4847587  99.5550093  64.4416643  89.3525098  99.6596707
  66.0649839  90.1313093 100.8488475  66.1600474  89.3034762 101.5515243
  67.0568934  90.4932132 100.5782166  65.2544355  91.2854612 101.5127681
  65.7503874  91.7192066 102.3810984  65.2009175  92.0282689 100.7168569
  63.8184001  90.8872372 101.9129392  63.4193700  89.7121208 101.9803006
  63.0846644  91.8870089 102.3150764  62.1287328  91.7259585 102.5985531
  63.4755951  92.8179165 102.3412607  65.5676359  90.5302105  98.4110346
  64.7735819  91.4134207  98.4164147  66.6013360  90.5422190  97.5987120
  67.2606383  89.7920207  97.7491194  66.8747809  91.4930635  96.5478835
  66.3292123  91.1502872  95.6687029  66.4665252  92.4480407  96.8787087
  68.3699723  91.6854567  96.1718626  69.1538000  91.0804152  96.8176419
  68.6272102  92.4292512  95.0733517  67.7530410  92.6337975  94.6106548
  69.8796314  92.8883053  94.4387546  70.6290599  92.1174687  94.6183851
  69.8065518  93.1689373  92.8870848  69.2726854  92.3394751  92.4233194
  69.2425232  94.0902082  92.7413737  71.2007755  93.3109817  92.2374227
  71.5646736  94.2664910  92.6151542  71.7769078  92.5009112  92.6845909
  71.3622251  93.2697259  90.6949357  70.7311560  94.0255205  90.2273618
  72.4020309  93.4432531  90.4178226  70.9623608  91.9622716  90.2057848
  70.7223924  91.2547158  90.8854019  70.9235257  91.6467836  88.9340851
  71.4118644  92.3787641  88.0282575  71.8571855  93.2514223  88.2737302
  71.3547405  92.0879862  87.0627086  70.3480636  90.5730008  88.5885552
  69.9303370  89.9790296  89.2905543  70.3095864  90.3157155  87.6126338
  70.3701951  94.1520326  95.1863384  69.6603015  95.1416285  95.2448798
  71.5939394  94.1437554  95.6193180  72.2319475  93.4899825  95.1884748
  72.1039830  95.0295443  96.6210299  71.4589492  95.8991436  96.7468379
  72.1426783  94.2525104  97.9431872  72.9229973  93.5175534  98.1407716
  72.3040022  95.1301539  98.5691397  70.7963091  93.6116188  98.4103242
  69.4571696  94.1096946  98.2905080  68.6188318  93.3479398  99.0215582
  67.5435842  93.5265432  99.0280679  69.3909859  92.3946148  99.6816676
  69.0624303  91.6790072 100.3141681  70.7382637  92.5943112  99.3157578
  71.5197125  91.9731770  99.7535149  73.5166595  95.4541610  96.2977209
  74.3458563  94.5929803  95.9779530  73.8766970  96.7481068  96.4447427
  73.1444698  97.3541721  96.1032350  75.2546915  97.3473766  96.6879975
  75.9876430  96.8188616  96.0784458  75.4148580  98.8486557  96.4520891
  75.0746328  99.0738119  95.4413217  74.6268674  99.6551123  97.4340664
  74.9668638  99.4308247  98.4451047  74.7690644 100.7164598  97.2305429
  73.5694038  99.4067995  97.3434394  76.9371598  99.1068634  96.5195797
  77.4396904  98.5236687  95.7479262  77.1338803 100.1668793  96.3590588
  77.3130640  98.8124024  97.4994214  75.9008220  96.7509391  97.9956169
  75.2279749  96.9452932  99.0103885  77.1547532  96.2872525  98.0121185
  77.6786000  96.1960100  97.1534226  77.7494068  95.7468330  99.2598788
  77.3711152  96.3155564 100.1093189  77.3972866  94.2390319  99.4717612
  76.3191284  94.1358730  99.3491551  77.9069172  93.6727553  98.6922053
  77.8158515  93.6905546 100.8700434  78.8769621  93.4414987 100.8592538
  77.6292979  94.4507383 101.6286081  76.9915851  92.4216405 101.1978909
  75.9396139  92.7064451 101.2163853  77.1587354  91.7025536 100.3959718
  77.3723335  91.7873670 102.5397999  78.2097481  91.1079382 102.3810110
  77.6717561  92.5775650 103.2283000  76.2299877  91.0373064 103.1154431
  75.9526578  90.3047683 102.4778100  76.5052271  90.6295207 103.9975168
  75.4540580  91.6667845 103.2630561  79.3232429  96.0668453  99.2469865
  79.8826714  96.2695051  98.1864632  79.9163372  96.0619842 100.4890193
  79.3466174  95.9359623 101.3134204  81.3710470  96.3296720 100.6697506
  81.8734369  96.1691378  99.7158469  81.6725465  97.7444670 101.1465977
  82.7534524  97.7859840 101.2808328  81.2447321  98.8467786 100.2712230
  80.1638036  98.8061921 100.1368873  81.5184058  99.7991692 100.7252647
  81.7345684  98.7528345  99.3020298  81.0126252  97.8991540 102.3794070
  81.1749334  98.7816292 102.7207190  82.0162693  95.3368969 101.6148144
  81.4067420  94.7675602 102.5070667  83.3001573  95.1131340 101.4676142
  83.7123810  95.5732848 100.6685948  84.1612278  94.3433840 102.3336631
  83.8264052  94.4008098 103.3693732  84.1058073  92.9404963 101.8992929
  84.2647476  93.0976578 100.8324577  84.9924515  92.4790871 102.3341074
  82.8882284  92.0123267 102.1069969  82.0894918  92.1411799 103.2734440
  82.3716863  92.8649675 104.0380336  80.9584787  91.3560213 103.4451308
  80.2533731  91.5793904 104.2457769  80.6318189  90.4232491 102.4749775
  79.5975365  89.5675083 102.6811075  79.1660425  89.6978786 103.5287018
  81.4566426  90.1866820 101.3562291  81.2376953  89.4228642 100.6100757
  82.6247899  91.0021888 101.2237091  83.3243823  90.8235866 100.4071481
  85.6155942  94.7405897 102.2640067  86.1468742  95.0526687 101.2229028
  86.2961251  94.5110061 103.4167555  85.7125198  94.3209303 104.2188624
  87.7567358  94.5950981 103.6178274  88.2255516  95.2487752 102.8822887
  87.9865384  95.2052430 105.0529887  87.6215091  96.2312813 105.0071820
  87.3591949  94.6269053 105.7312701  89.4114309  95.1998140 105.5571533
  89.6435254  94.1368480 105.4913031  90.0906318  95.7599689 104.9144933
  89.5789118  95.6770050 107.0297744  89.1684215  96.8262570 107.3902456
  90.2934045  94.8940510 107.7741326  88.3700330  93.1905952 103.4106577
  87.8895674  92.2144364 103.9267932  89.4835006  93.0900054 102.7220637
  89.7726915  93.9153260 102.2167778  90.2177554  91.8689417 102.5125780
  89.4493592  91.1033914 102.4048785  91.1085718  91.8649786 101.2314803
  91.8784296  92.6313839 101.3211526  91.7768451  90.4797472 101.0730674
  91.0075637  89.7128244 100.9828657  92.3993209  90.4762545 100.1782981
  92.3954419  90.2722091 101.9462041  90.1552652  92.0535054 100.0663309
  89.6269808  93.0003696 100.1779818  90.7182251  92.0599908  99.1329854
  89.4347305  91.2357915 100.0497615  91.0446645  91.4454826 103.7755257
  92.0451240  92.0709127 104.1025898  90.6164324  90.3679338 104.4769548
  89.7040871  90.0750589 104.1576591  91.1785083  89.7095784 105.5936319
  91.7011053  90.4454253 106.2047953  90.1149118  89.0001576 106.4729343
  89.3244078  89.7222790 106.6772461  89.7087542  88.1723505 105.8916672
  90.6199376  88.5203949 107.6665782  89.9173484  88.0944871 108.1631372
  92.2819609  88.7522195 105.1436660  92.0611657  87.5340751 105.1712288
  93.4283506  89.1935475 104.6386263  93.6015162  90.1443925 104.9318957
  94.2956763  88.6201697 103.7166344  93.7114594  88.2161916 102.8898385
  95.2689126  89.5881453 103.1772827  94.6187900  90.3713073 102.7872864
  95.8509858  89.9814126 104.0107284  96.2334250  89.1061182 102.0522544
  96.6833424  88.1713268 102.3866797  95.5330748  88.8829176 100.6902507
  95.0832828  89.8174484 100.3549327  96.2651049  88.5483310  99.9552102
  94.7568963  88.1255555 100.8000230  97.4245883  89.9883488 101.7866209
  98.0279028  90.0671412 102.6910007  98.0255156  89.5570108 100.9860365
  97.0837552  90.9803747 101.4902829  95.0338098  87.3525599 104.1663948
  95.1350743  86.3826037 103.3752921  95.4964216  87.3770174 105.3852599
  95.4864986  88.2712762 105.8546235  96.0605178  86.2354914 106.0882789
  96.9249924  85.8487953 105.5486040  96.5062078  86.6636689 107.4756337
  96.9936022  87.6344680 107.3856605  95.6164548  86.7606682 108.0977517
  97.4890588  85.6484201 108.1306167  97.0063490  84.6769766 108.2373391
  98.3828151  85.5438291 107.5155049  97.8821710  86.1805820 109.5193170
  98.7375257  85.6134034 109.8864352  98.1550352  87.2321735 109.4309998
  96.7783212  86.0579655 110.4952912  95.9758418  85.5946646 110.0934475
  96.7102706  86.4534693 111.7140578  97.7350846  87.0693269 112.2461713
  98.5669627  87.2273564 111.6956210  97.6893363  87.3837163 113.2049027
  95.6235330  86.2142198 112.3851092  94.8576702  85.7263817 111.9428784
  95.5498314  86.5172258 113.3457622  95.1283024  85.0425850 106.2315543
  95.4639544  83.8741086 106.0102184  93.9460244  85.2867549 106.7172423
  93.7029058  86.2151904 107.0318853  92.9363778  84.2336749 106.8189485
  93.3884537  83.2976329 107.1468996  91.8842479  84.6579344 107.8512133
  91.7255271  85.7303221 107.7376720  90.9610855  84.1277477 107.6171760
  92.3028280  84.3478746 109.3194243  91.5888250  84.9660091 109.8636764
  92.1610485  83.3025912 109.5939792  93.7494578  84.7867895 109.6816770
  94.6210343  83.9086455 109.7217565  93.8653481  85.9891193 110.0612578
  92.2108743  83.9616377 105.4901910  91.3778170  83.0114021 105.4064431
  92.4610703  84.7215521 104.4232959  92.9593995  85.5793995 104.6126766
  91.8205485  84.5625356 103.1077459  91.9579981  85.4563301 102.4991918
  92.4911646  83.3474565 102.3733143  92.1382181  82.4667761 102.9099055
  92.0643170  83.3565084 101.3704089  94.0362756  83.3074366 102.2760140
  94.2605919  83.0223259 101.2481546  94.3701484  84.3303744 102.4498796
  94.7727202  82.3510371 103.2498930  95.6387333  82.8507401 103.6839635
  94.0993894  82.0345764 104.0464968  95.2418316  81.1088647 102.4452986
  95.7366649  81.4094180 101.5217682  95.9213182  80.4967882 103.0383917
  94.0951293  80.3694047 102.1399419  93.4655578  80.9362459 101.5900051
  94.3548604  79.5474025 101.6136795  93.6366887  80.0904432 102.9955773
  90.2876791  84.6315590 102.9766695  89.6727777  83.8847780 102.2634462
  89.6509061  85.5743232 103.7548762  90.2327161  86.0760173 104.4105435
  88.1820853  85.7551041 103.8374748  87.7388223  85.4859183 102.8787485
  87.5594402  84.8998465 104.9137682  86.4894741  84.9439516 104.7104793
  87.9267080  83.8944342 104.7079515  87.8139222  85.2448004 106.3833623
  88.9024487  85.2951334 106.3573321  87.4139804  86.2052453 106.7084641
  87.3922195  84.1900923 107.3294721  86.6899454  84.5437561 108.2640223
  87.9346694  83.0476713 107.2386803  87.8602596  87.2589882 103.9129870
  88.7693880  88.1038497 103.7759375  86.5376894  87.6759583 103.9893093
  85.7840761  87.0045695 104.0267717  86.2005476  89.0980789 104.0111823
  87.0189058  89.7089400 103.6300817  85.0112238  89.2795481 103.1177553
  84.3682506  88.4257259 103.3314663  84.4550662  90.2025526 103.2816195
  85.3373660  89.2211163 101.6029329  86.1588056  90.2581797 101.0693810
  86.6519067  91.0183167 101.6753042  86.3070976  90.2624707  99.7417275
  86.8303715  91.1074534  99.2941904  85.8126871  89.2204390  98.9204534
  86.1197922  89.1140313  97.8800382  84.8868152  88.2935972  99.4903110
  84.3294158  87.6278566  98.8313759  84.6943969  88.2343398 100.8488767
  84.0706010  87.4498233 101.2772602  85.8740020  89.5406449 105.4411419
  85.5894448  88.8425824 106.3978388  85.9260595  90.8589276 105.6040702
  86.2898675  91.3905990 104.8262087  85.5349063  91.5961513 106.8461876
  84.9948982  90.9248973 107.5139513  86.7575261  92.1232043 107.5734076
  87.5377221  92.1512283 106.8127447  86.6080858  93.1246741 107.9769244
  87.2081882  91.2117332 108.6954176  86.4279341  90.7935490 109.5356767
  88.4465830  90.9233618 108.8606276  88.7233597  90.3130289 109.6162651
  89.1393871  91.3079183 108.2343373  84.5805791  92.7674655 106.4954545
  84.4301169  93.1034894 105.3090814  83.9890079  93.5099279 107.4348506
  84.0160948  93.1316473 108.3709432  83.2106337  94.7565375 107.1998288
  82.3345312  94.5516244 106.5845611  82.7308285  95.3234094 108.5830067
  82.2957067  94.4910780 109.1361727  83.6169899  95.6828996 109.1060602
  81.7327372  96.4273099 108.4797289  82.0708863  97.1411139 107.7285699
  80.7727201  96.0093156 108.1768261  81.5802837  97.1241274 109.7976076
  80.6336772  97.6645296 109.7983398  81.5707114  96.3744854 110.5888375
  82.7542218  98.1287358 110.0455137  82.8260745  98.2222034 111.1291195
  83.6441571  97.6275852 109.6647744  82.6525606  99.4398420 109.4563257
  81.8282226  99.9045552 109.8093246  83.4718073  99.9804002 109.6945097
  82.5864005  99.3534766 108.4522027  84.0171782  95.7516715 106.3777824
  85.1631487  95.8670995 106.7701880  83.4657341  96.5034574 105.4147241
  82.5612472  96.2030335 105.0804364  84.0565665  97.6921382 104.8271494
  85.1436181  97.6253935 104.8714556  83.7409468  97.7871170 103.7881775
  83.5957175  98.9481378 105.6113835  83.5041488  98.9570332 106.8254828
  83.3503552 100.0625973 104.9283174  83.5601239 100.3372217 103.5284594
  82.7383907  99.8616768 102.9930045  84.4986129  99.8549103 103.2551224
  83.5990538 101.8196062 103.3225622  82.6943849 102.1444355 102.8085980
  84.4711312 102.0861352 102.7254486  83.6902110 102.4105754 104.6947731
  83.2049496 103.3678438 104.8851872  84.7476444 102.4828913 104.9491442
  83.0406853 101.3397030 105.5126005  83.5401595 101.3309405 106.4813868
  81.5668137 101.7224728 105.7012981  81.2462743 102.4739573 106.6430084
  80.6814856 101.2924876 104.7262431  80.9912279 100.9100390 103.8442612
  79.2361331 101.5305833 104.9174062  79.0069887 101.7169631 105.9666225
  78.8440676 102.7720028 104.1011585  77.7716592 102.8018591 103.9084202
  79.1192441 103.6030098 104.7506239  79.5339486 103.0161076 102.7650948
  80.4594193 103.9636748 102.5399404  80.6631176 104.6480467 103.3634948
  80.9512203 103.8560225 101.2987464  81.7584385 104.3769237 100.9870409
  80.2758838 102.9266016 100.5633360  80.2597005 102.4742165  99.2241154
  80.8620530 103.0884795  98.5548241  79.5360597 101.3463104  98.8139655
  79.5497042 100.9470641  97.7998077  78.7521493 100.7072528  99.7858894
  78.1242208  99.8531276  99.5323634  78.7542873 101.1510159 101.1162561
  78.1414287 100.5440354 101.7826492  79.4661165 102.3085751 101.5535386
  78.2877051 100.3656848 104.6304972  78.6645316  99.4375740 103.8313594
  77.1362885 100.3887810 105.2424190  76.9576088 101.1872974 105.8344869
  76.1011324  99.2893186 105.1908806  76.5087374  98.3480081 105.5595158
  74.8942004  99.7178159 106.1229288  75.3214681 100.2335924 106.9828801
  74.2796942 100.4132795 105.5512536  74.0424980  98.5697045 106.5985972
  73.7808166  97.9739364 105.7241351  74.6512952  97.9712832 107.2763582
  72.7341591  99.0212252 107.3330789  72.1671352  99.5809916 106.5892749
  72.2067662  98.0976497 107.5717511  72.8878896  99.8875788 108.6348978
  73.3668404  99.2914273 109.4116281  73.5022939 100.7612655 108.4174628
  71.5621372 100.3241949 109.0997878  70.9928023  99.5147658 109.3017337
  71.6651647 100.8805715 109.9364063  71.1183362 100.8769766 108.3803629
  75.6471906  99.0034840 103.7401192  75.4722259  99.9194081 102.9128246
  75.2593250  97.7516043 103.4590488  75.6130927  97.0469728 104.0902715
  74.5728318  97.3144669 102.2506453  75.1315450  97.6483849 101.3763242
  74.4421895  95.6802120 102.1964921  73.9984789  95.4225729 101.2348049
  75.4516805  95.2727267 102.2511147  73.5719587  95.0758887 103.3517170
  74.1378540  95.2208510 104.2719612  72.6052855  95.5720277 103.4382675
  73.3434572  93.6226549 103.1596219  74.0861678  92.7663783 103.5257097
  72.2863799  93.2216596 102.4835700  72.1223688  92.2343878 102.3475691
  71.6448052  93.9033375 102.1043622  73.2701845  98.0295846 101.9745246
  72.4134327  98.2924376 102.8026415  73.0004540  98.3287581 100.6766611
  73.7402334  98.1247654 100.0199931  71.8045394  99.0780572 100.1860788
  71.0264350  99.0064250 100.9460272  72.0719185 100.5579279  99.8975098
  72.5328001 100.9784708 100.7912832  72.7808785 100.5981130  99.0705509
  70.8314603 101.3622812  99.5408749  71.0389948 102.3312860  99.0869366
  70.3935525 100.6986614  98.7952578  69.8578140 101.5413613 100.6930455
  68.9193530 100.7277986 100.6778583  70.1317175 102.3133470 101.6278791
  71.1010018  98.3545825  98.9616604  71.7908310  97.9596910  98.0231865
  69.8243933  98.1912354  98.9699873  69.3509338  98.4790793  99.8144287
  69.0459917  97.5748482  97.9272050  69.4968343  96.6284175  97.6286935
  67.6206304  97.3003273  98.4418470  67.6349705  96.7316482  99.3716307
  67.2013546  98.2891366  98.6277611  66.7546272  96.5940938  97.4679673
  65.8818563  97.1664885  96.8053270  66.9885362  95.3080934  97.2401155
  66.4137011  94.8023755  96.5813941  67.7403521  94.8408006  97.7264394
  69.0304967  98.4229971  96.6808329  68.8140186  99.6581768  96.7385160
  69.3111406  97.8261738  95.5518413  69.6281133  96.8689749  95.6101342
  69.3171554  98.4888892  94.2260351  68.9374838  99.5097200  94.2690818
  70.8050695  98.5242706  93.6784470  70.7583320  98.9835399  92.6910329
  71.8003901  99.2765539  94.5384388  71.8480236  98.8175507  95.5259346
  72.7852256  99.2386937  94.0728573  71.4848952 100.3153238  94.6360180
  71.4344545  97.1552697  93.4580562  70.8447787  96.5964385  92.7313567
  72.4506107  97.2780482  93.0832876  71.4591235  96.6100001  94.4015463
  68.3386946  97.8513923  93.2467169  67.7994501  96.7347861  93.5122839
  68.0916692  98.5434609  92.0661519  68.5573070  99.4250706  91.9047672
  67.1745286  98.0522173  91.0504355  66.1373075  98.1808096  91.3598473
  67.4127110  98.8777802  89.7686848  67.3020640  99.9243707  90.0524184
  68.4439152  98.6900272  89.4695749  66.4466811  98.5549797  88.5597567
  66.6348786  97.5513526  88.1784235  65.4198686  98.6197073  88.9197090
  66.6591172  99.5751145  87.4377118  66.7132026  99.0757785  86.3026821
  66.7369030 100.8009521  87.6865583  67.4666578  96.5431707  90.8147220
  68.6435527  96.0459419  90.8471714  66.4087701  95.7285252  90.5619784
  65.4816191  96.1210945  90.4821048  66.5607278  94.2881519  90.4348786
  66.9777540  93.8324650  91.3329532  65.0691939  93.7874077  90.2594140
  64.6409645  94.2281002  89.3591308  65.0580158  92.7009611  90.1721831
  64.4801856  94.0878982  91.1259438  67.4742656  93.8438903  89.2398621
  67.8181840  92.7135666  89.1681726  67.7981450  94.7543601  88.3251044
  67.4831796  95.6979317  88.4999439  68.5779709  94.5021250  87.1360017
  68.7882479  93.4370779  87.0382396  67.8132001  94.9449259  85.9465233
  67.7146192  96.0250287  86.0549625  68.4552160  94.7229660  85.0940859
  66.4247850  94.3241806  85.7175588  65.9943928  94.6915268  86.6491811
  65.8599870  94.7229591  84.8748975  66.3612540  92.7658638  85.6947661
  67.3609615  92.1767558  85.2529383  65.2168916  92.2749454  85.8744203
  69.9064212  95.1994153  86.9975821  70.5839904  94.9615461  86.0030127
  70.2282493  96.0236825  87.9839316  69.5047923  96.2005068  88.6661650
  71.5299457  96.7820849  88.1068518  71.5927921  97.5275748  87.3141386
  71.5280400  97.5033746  89.4579945  71.4746683  96.7694868  90.2621464
  72.4426884  98.0874340  89.5599415  70.6654051  98.1672499  89.5148271
  72.7204408  95.8722354  87.9209342  72.8371357  94.7109809  88.3482505
  73.7316746  96.3917628  87.2102279  73.7407944  97.3679107  86.9510920
  74.8788925  95.5077351  86.7363218  74.8904019  94.5997543  87.3392627
  74.7559347  95.1119184  85.2527503  74.8042838  96.0240638  84.6579793
  75.6033301  94.4723808  85.0057429  73.5406773  94.4220003  84.9666761
  73.5118820  94.1980505  84.0336074  76.2718670  96.1477398  86.9110619
  77.2615303  95.4919083  86.5354617  76.4358101  97.3586267  87.3342742
  75.6352779  97.8971385  87.6330261  77.7767856  97.9967393  87.3951260
  78.5097262  97.2191750  87.6102797  78.1887811  98.7150031  86.1030840
  77.4191631  99.4650288  85.9207413  79.1333063  99.2111749  86.3262114
  78.3517530  97.8520432  84.8738397  79.2345167  97.2345262  85.0396759
  77.4687100  97.2153879  84.8190021  78.5381519  98.7525567  83.3042003
  76.7812948  99.0049606  83.0872688  76.3887129  99.5741938  83.9298554
  76.6041568  99.5555801  82.1633960  76.2785377  98.0391857  83.0361289
  77.8818566  99.0801013  88.5238421  76.8808837  99.7005079  88.7909334
  79.0714793  99.3162188  89.0666122  79.7870758  98.7904080  88.5854219
  79.4416154 100.0445971  90.2617144  78.8161769 100.9332973  90.3462001
  79.2421266  99.1722950  91.5371995  78.1833528  98.9254509  91.6157190
  80.0502665  97.9045159  91.4937489  81.1092584  98.1505732  91.4156916
  79.8771506  97.3312806  92.4045358  79.7508820  97.3116285  90.6294833
  79.7174582 100.0694058  92.7043679  79.1133482 100.9761426  92.7356964
  79.6104743  99.5294748  93.6451807  80.7639561 100.3356213  92.5558008
  80.8191764 100.6298863  90.1154908  81.6946698 100.1300338  89.4669789
  81.0107370 101.8887164  90.5340424  80.2037090 102.2090557  91.0499764
  82.0653773 102.8446997  90.2414833  83.0405706 102.3860763  90.0778931
  81.6761204 103.6976687  88.9937598  80.6830348 104.1242664  89.1348126
  82.6745532 104.8020035  88.8271752  83.6678828 104.3761472  88.6856003
  82.4102455 105.4033220  87.9573142  82.6730360 105.4312086  89.7172301
  81.5061240 102.9062862  87.6859609  81.9173785 103.5116401  86.8781755
  82.0829926 101.9862149  87.7797216  80.0700694 102.5692139  87.3794330
  79.4926282 103.4888637  87.2850629  80.0188947 102.0111248  86.4445443
  79.6582415 101.9634401  88.1866107  82.3628106 103.6125872  91.5823399
  81.4113252 104.1433855  92.1332117  83.5866964 103.5472058  92.0921641
  84.2617366 103.0626643  91.5180216  84.0211090 104.0436492  93.4218944
  83.2049283 104.0816884  94.1433520  85.0592988 103.1302367  93.9328393
  85.8875255 103.0886684  93.2254408  85.4216077 103.4928956  94.8947701
  84.6374839 102.1328166  94.0566315  84.4923197 105.4750864  93.2569696
  85.3985731 105.7875856  92.4965093  83.7516040 106.3990478  93.8806695
  82.9335258 106.0817672  94.3808499  83.9988158 107.8361915  93.7984126
  84.3746584 108.0609301  92.8002473  82.7142297 108.6348278  94.0284267
  82.3820740 108.4429943  95.0487070  82.8979267 110.0917726  93.8350717
  83.2296565 110.2844420  92.8148096  81.9524027 110.6043738  94.0120602
  83.6471010 110.4602128  94.5358508  81.6439117 108.2372082  93.0668327
  81.4183919 107.1780433  93.1909796  80.7458372 108.8243143  93.2588438
  81.9848611 108.4185137  92.0475277  85.1052801 108.3948202  94.7429617
  85.0171841 108.1461404  95.9759286  86.0771895 109.2200516  94.2893791
  86.3665179 109.6985792  92.9120533  85.7868141 110.6064941  92.7455171
  86.0401926 108.9267781  92.2149638  87.8421797 109.9389452  92.8472738
  88.0828415 110.6507331  92.0576290  88.3772349 109.0059648  92.6701726
  88.1694763 110.4973565  94.2114735  88.0863254 111.5785337  94.3221114
  89.1797535 110.1825292  94.4728609  87.1055177 109.7684881  95.1645029
  87.6427692 108.9172451  95.5826468  86.5936333 110.6541323  96.2994366
  85.6344033 111.4037256  96.1282823  87.3112227 110.6635604  97.4610779
  88.0793487 110.0087284  97.4968116  87.1684790 111.6638809  98.5871530
  86.1900323 111.6142950  99.0649421  88.2885003 111.2469313  99.6645343
  89.2407273 111.4140199  99.1611017  88.1778743 111.9632931 100.4785906
  88.2526891 109.8229799 100.2293031  88.1209236 109.1554841  99.3777233
  89.1825977 109.5774851 100.7422373  87.0687809 109.6534710 101.2028774
  86.2612564 108.6784228 101.2213812  86.8198225 110.5706398 102.0345884
  87.6158812 113.1391201  98.1468366  88.5216172 113.2054436  97.3151988
  86.9981627 114.2029715  98.7768988  87.4575341 115.5340528  98.3376922
  87.5490105 115.5384589  97.2515462  88.4301088 115.7402648  98.7845412
  86.3699769 116.4881136  98.8401981  85.5931238 116.6148039  98.0861769
  86.7975285 117.4597982  99.0874432  85.8187929 115.7868734 100.1088790
  84.7651450 116.0159079 100.2684671  86.3946446 116.1033546 100.9785537
  85.9930933 114.3089742  99.8880049  86.4540614 113.9186410 100.7953343
  84.7454781 113.5554793  99.6039228  84.1786972 113.0143297 100.5545208
  84.1799957 113.4674255  98.4187354  84.6302278 113.8426868  97.5961970
  82.8523258 112.8526225  98.2677690  82.1659282 113.3958312  98.9172933
  82.2791880 112.8594784  96.8227171  83.2357397 112.5367070  96.4117102
  81.5056890 112.1423534  96.5478881  81.9240380 114.1764390  96.1245193
  81.5415512 115.2796013  96.8513941  81.6021887 115.2413279  97.9390329
  81.0786852 116.4423472  96.2144749  80.8069097 117.3321446  96.7823651
  80.9650180 116.4423517  94.7593341  80.7300028 117.3443568  94.1943079
  81.1644009 115.2587517  94.1053413  80.9704926 115.2586894  93.0327278
  81.5956221 114.0809195  94.7422082  81.6657980 113.1507814  94.1782769
  82.6736700 111.2931341  98.7190163  81.9498174 111.0373223  99.6657653
  83.5145074 110.3897247  98.1451889  84.1806090 110.6355642  97.4268777
  83.4540066 109.0078588  98.5833353  84.2850469 108.4615326  98.1372423
  83.5426712 108.9798216  99.6693610  82.1165737 108.3258347  98.1660101
  81.2864319 108.7725710  97.3836129  82.0897742 107.0720907  98.6162398
  82.7837972 106.7230781  99.2617021  81.0254692 106.1546460  98.1710901
  81.0250858 105.3286497  98.8823067  80.0927977 106.7115039  98.2612705
  81.1356195 105.5789604  96.7238610  82.2595835 105.5096745  96.1993398
  80.0209629 105.1771939  96.1190062  79.1484323 105.3029198  96.6119391
  79.9824611 104.6034058  94.7950572  80.8511237 104.9369065  94.2273409
  79.9949051 103.0708384  94.8548161  79.1260076 102.7213892  95.4124920
  79.9629940 102.6669838  93.8428955  80.9045688 102.7334563  95.3515902
  78.6662144 105.0042265  94.0209471  77.5713104 104.9581633  94.5569196
  78.8702531 105.3189591  92.7594094  79.8366485 105.4796054  92.5137021
  77.8882825 105.3565371  91.7155729  77.0344341 105.9529672  92.0369967
  78.5410663 106.0170262  90.4598085  79.4428516 105.4695367  90.1856936
  77.5165100 105.9778347  89.2589819  76.6145895 106.5255519  89.5321959
  77.9681956 106.4379726  88.3801452  77.2584742 104.9428872  89.0344815
  78.8644172 107.4594803  90.8264899  77.9215819 108.0023741  90.8930386
  79.3480491 107.4512159  91.8032864  79.7700620 108.1417900  89.8203756
  79.2868725 108.1508520  88.8433670  79.9620929 109.1661270  90.1396827
  80.7133395 107.5996919  89.7536132  77.5942331 103.9105402  91.3719321
  78.4430705 103.0546104  91.3440010  76.3219077 103.6372784  91.1636894
  75.6881434 104.3463509  91.5037752  75.7497209 102.3617348  90.6689119
  76.3929270 101.7406828  90.0454702  75.1127298 101.4905028  91.7829546
  74.1806405 101.9502244  92.1115366  74.8302587 100.1039262  91.2512655
  75.7620043  99.6433569  90.9228957  74.3829561  99.4966368  92.0381714
  74.1418465 100.1705456  90.4087991  75.8034226 101.5127109  93.2187806
  76.0211176 100.4842930  93.5069928  76.7354891 102.0721329  93.1387907
  74.9147499 102.1567264  94.2718779  73.9826185 101.5975421  94.3527712
  75.4268918 102.1494293  95.2340404  74.6969881 103.1853821  93.9845677
  74.7896978 102.6027796  89.4508498  74.2289312 103.6555129  89.3254135
  74.6142286 101.6704386  88.5397407  74.9871574 100.7568387  88.7550513
  73.9852610 101.8858343  87.1829111  73.4511404 102.8347066  87.1333563
  75.0046993 101.8227523  86.0676397  75.7145262 101.0394953  86.3336373
  74.4129930 101.5291773  84.6611169  73.7033709 102.3123111  84.3942113
  75.2175386 101.5027442  83.9261963  73.9024188 100.5662532  84.6749187
  75.8476882 103.2109813  86.0552829  75.1117306 103.9667563  85.7809263
  76.1426795 103.3524193  87.0950304  77.0952495 103.3475889  85.1404009
  76.8009464 103.2067243  84.1003803  77.5297265 104.3396656  85.2633351
  77.8318947 102.5923853  85.4144833  72.8723423 100.7957509  87.0987691
  73.1773485  99.6117035  87.1010297  71.6253151 101.2310960  86.8927890
  71.5314984 102.2366814  86.8830025  70.4222723 100.4187019  86.6868425
  70.4987624  99.5186434  87.2968779  69.5520924 100.9959502  86.9993657
  70.2550996 100.0235080  85.2564279  71.1561515  99.7061448  84.4568616
  68.9572067  99.8461300  84.8863778  68.1924388  99.7692206  85.5415985
  68.6376716  99.7900710  83.3826542  69.4635074 100.1655560  82.7784146
  68.4173364  98.3212012  83.0465666  69.3677000  97.8063333  83.1873477
  67.6845457  97.9295946  83.7520892  67.9109485  98.0887295  81.5880711
  67.5698112  97.0763789  81.3715704  67.0700469  98.7783882  81.5148768
  68.9652385  98.4864290  80.5414271  69.9211940  97.7845994  80.1968907
  68.7825495  99.5971199  79.8309410  69.4673883  99.8695790  79.1403881
  67.9599287 100.1623282  79.9856532  67.3529445 100.5951679  83.1152869
  67.2431606 101.0484033  81.9947678  66.6020587 100.9246369  84.1516433
  66.6832231 100.4317640  85.0294747  65.7019996 102.0917631  84.0854088
  65.5051813 102.4073262  83.0608203  64.3785686 101.6142329  84.7168044
  64.6230579 101.3578873  85.7476348  63.7199373 102.4826644  84.7053372
  63.6993641 100.4745221  84.0754164  63.4737602 100.7709576  83.0510485
  64.3439639  99.5956106  84.0651689  62.4069792 100.1458345  84.8034506
  62.1938228  98.9623117  85.2126795  61.5517019 100.9961872  84.9639278
  66.1713855 103.2708221  84.9383102  65.4142008 104.2478114  85.0677715
  67.3312137 103.2926639  85.5478276  67.9295629 102.5010212  85.3597335
  67.7477217 104.2666528  86.6317942  67.5929479 105.2870577  86.2811977
  66.8949997 104.0500131  87.9628142  66.9334897 104.9457300  88.5827408
  65.8580638 103.8268853  87.7116608  67.4565905 102.9533379  88.6780856
  66.9560113 102.8069908  89.4840651  69.2727352 104.3233726  86.8889379
  70.0518108 103.4958336  86.4075343  69.6910602 105.3846061  87.6343221
  69.0442791 106.1558513  87.7177161  71.0597955 105.5655108  88.1381665
  71.5696310 104.6197414  88.3217068  72.0134577 106.5296324  87.2462158
  71.4448951 107.4358328  87.0373188  73.3916884 106.9171045  87.9443944
  73.9610519 106.0113846  88.1531941  73.9670514 107.5623979  87.2805761
  73.1914513 107.4430606  88.8778688  72.2769536 106.0424484  85.8032957
  72.7025263 105.0452565  85.9155313  71.2901736 105.9664953  85.3465727
  73.1869705 106.8870004  84.9117907  74.1741382 106.9630216  85.3676641
  73.2748776 106.4168588  83.9323325  72.7617862 107.8842618  84.7987073
  71.0531443 105.9534472  89.6283273  70.1563227 106.6989134  90.0952075
  72.0364912 105.4293348  90.3565478  72.7701930 104.8784655  89.9342634
  72.0273973 105.5732038  91.8160631  71.3054547 106.3797881  91.9438119
  71.4856472 104.3128017  92.5147773  72.1050746 103.4891621  92.1597734
  71.4770427 104.3217621  94.0851278  70.8573985 105.1449079  94.4408969
  71.0727904 103.3783808  94.4521576  72.4949593 104.4482279  94.4538454
  70.0931466 104.3932745  92.1984429  69.6330904 103.6454338  92.5866218
  73.3946960 105.9074076  92.3338477  74.3440525 105.3918152  91.8014758
  73.4933198 106.6504421  93.3925233  72.6890106 107.1862233  93.6859933
  74.7020479 106.7640531  94.1569962  75.4621119 106.0816016  93.7766520
  75.2350271 108.2143744  94.0389013  75.7274013 108.1256095  93.0705070
  74.4025877 108.9135947  93.9599354  76.2155533 108.7184283  95.0528421
  77.5783757 108.5937837  94.8442831  77.9338534 108.0832327  93.9492564
  78.5348048 109.1351165  95.8036747  79.5862584 109.2240850  95.5304863
  78.0875119 109.6170327  97.0497195  78.9623402 110.0278232  98.0217214
  79.8816409 109.9488002  97.7566909  76.6243713 109.5896871  97.3259855
  76.2406159 109.8875811  98.3017372  75.7230029 109.1697849  96.3027431
  74.6477529 109.1948419  96.4796880  74.4303771 106.4098290  95.6478598
  73.4347309 106.8370870  96.1702672  75.4804223 105.8261766  96.3107480
  76.3040471 105.6239793  95.7622430  75.4679277 105.4113201  97.7657594
  74.8063421 106.0489402  98.3521417  74.9416457 103.9578642  97.8333635
  73.9283086 103.9344891  97.4324882  75.5729111 103.2756978  97.2639313
  74.8642793 103.4069126  99.2318525  74.0949268 104.0387324 100.3063266
  74.3956316 103.2422274 101.3509630  73.9453615 103.5188985 102.3042777
  75.2059515 102.2379091 101.0271598  75.5942129 101.5484695 101.6548746
  75.4403899 102.2902432  99.6442553  76.0015045 101.4934245  99.1560631
  76.8170698 105.5167484  98.4741433  77.8442768 105.3523398  97.8715916
  76.7865044 105.8519980  99.8039381  75.8550383 105.9267085 100.1871987
  77.9121890 106.2740673 100.6329964  78.7754890 105.6156278 100.5367167
  78.3003695 107.6995359 100.0764489  78.3804255 107.6498616  98.9905287
  77.5349025 108.4253359 100.3509937  79.6479235 108.1675059 100.6472029
  80.4644956 107.4189359 101.1616948  79.8578725 109.4404587 100.5501535
  80.7191334 109.8352535 100.9001057  79.1595165 110.0333806 100.1248966
  77.5419535 106.1114158 102.1224618  77.9542846 106.9283492 102.9497942
  76.6414989 105.2108878 102.4761561  76.2359471 104.6582727 101.7343721
  76.1955395 104.9613397 103.8552501  76.0378488 103.8846792 103.9187715
  77.0375011 105.2426496 104.4877567  74.9707093 105.6604013 104.3387422
  73.8325033 105.4199933 103.8275776  75.1557694 106.6882958 105.1912806
  76.0399227 106.7420585 105.6765453  74.0891288 107.6014849 105.5925442
  73.1265055 107.1285500 105.3981523  74.1662640 107.9662927 107.0926004
  74.7669872 108.8491824 107.3110877  73.1125445 108.1962961 107.2503142
  74.5758940 106.8433337 108.0050698  73.6869324 106.0502293 108.3906560
  75.7920118 106.6035871 108.1966686  74.0007670 108.8106288 104.6664767
  73.6108268 109.8849548 105.0853841  74.1742955 108.5476638 103.3450172
  74.5943400 107.6448271 103.1760561  74.0093731 109.4404614 102.2329133
  72.9843664 109.8061460 102.2940297  74.9320962 110.6168914 102.1269531
  74.7835453 111.0686567 101.1461677  74.6511807 111.3305734 102.9014494
  76.4091130 110.2345723 102.2953828  76.4901617 109.2637009 101.8065673
  76.9457560 110.9813391 101.7101856  77.0404856 110.1487478 103.7503679
  76.7127303 111.0408574 104.2840494  76.6117520 109.2651252 104.2231237
  78.6248066 110.0570724 103.7964702  78.9454770 109.7730579 104.7987709
  78.9687272 109.3107180 103.0803886  79.1915784 111.3538318 103.4552389
  78.8733606 112.0454807 104.1189097  80.1996675 111.2986508 103.4837243
  78.8949065 111.6169960 102.5263528  73.9573175 108.6732212 100.9166809
  74.7249073 107.7185802 100.7026425  73.0332777 109.0274346 100.0621750
  72.6694074 109.9615723 100.1849936  72.5486858 108.2529515  98.9721215
  73.3749892 107.9281379  98.3398099  71.8028649 106.9676944  99.5325378
  72.6432420 106.3280331  99.8021654  71.2106591 107.1828244 100.4219823
  70.9279248 106.2519163  98.4974206  69.7365830 106.8354287  98.0147664
  69.4455823 107.7879440  98.4576350  68.9337940 106.2483862  97.0108959
  68.1491939 106.8351515  96.5331815  69.2221763 104.9218613  96.5452155
  68.4181174 104.3352191  95.6971405  67.6671934 104.8812281  95.4530362
  70.3105240 104.2602642  97.1091716  70.4938201 103.2305327  96.8023230
  71.1831301 104.8936973  98.0706217  72.0353855 104.3479984  98.4755583
  71.5346417 109.1656566  98.2620498  70.8495954 109.9511644  98.8114158
  71.5502317 109.1118985  96.9552166  72.2302099 108.4372657  96.6349046
  70.8169330 109.9244703  95.9294847  69.8533063 110.2133241  96.3491111
  71.5715402 111.2048439  95.4959856  72.4429527 110.8974688  94.9178333
  70.8395971 111.6649632  94.8321711  71.9972440 112.2129712  96.5603561
  71.2421093 112.1777791  97.3456166  73.3974478 111.9583330  97.1780823
  74.1532133 111.9938339  96.3934442  73.6114213 112.7248782  97.9228806
  73.4128477 110.9771304  97.6525342  72.1349301 113.5477618  95.9247576
  71.1790302 113.8460980  95.4942341  72.4389133 114.2781788  96.6745485
  72.8880667 113.5002845  95.1382271  70.4919857 109.0566844  94.7374646
  71.2881400 108.2252307  94.3824335  69.3501097 109.2597186  94.0962056
  68.6158397 109.8333467  94.4859462  69.1214107 108.6297339  92.8022894
  70.0762194 108.6566945  92.2772058  68.7371003 107.1305387  93.0681507
  67.7786284 107.0868434  93.5853764  68.6615375 106.6004290  92.1187435
  69.5039978 106.6622456  93.6851345  68.0142898 109.2224562  91.8777562
  67.2051045 110.0543215  92.3123550  68.1183820 108.8824593  90.5647029
  68.8037366 108.1592351  90.3993692  67.4548856 109.5089050  89.3875554
  66.4627773 109.9215702  89.5706612  68.3987857 110.6451293  88.7540508
  67.7922253 111.2665066  88.0952071  69.0404049 111.5239552  89.8390055
  69.6475374 110.9033054  90.4980082  69.6706536 112.2793686  89.3697104
  68.2588104 112.0134808  90.4200166  69.4060838 110.0359946  87.7752861
  69.8875562 109.1913309  88.2680623  68.8574315 109.6822117  86.9024070
  70.4209328 110.9965426  87.3550445  70.9703475 111.3504490  88.2273940
  71.1113987 110.5164003  86.6616329  69.9402221 111.8413314  86.8617404
  67.0527944 108.3893435  88.3981972  67.7996502 107.4948464  88.1223379
  65.9193822 108.6586318  87.8071849  65.2974298 109.3071073  88.2684378
  65.4066541 107.9066463  86.6206991  66.2580294 107.5500443  86.0409627
  64.6700260 106.7047438  87.1920933  63.8094373 107.0454058  87.7677985
  64.3312308 106.0646416  86.3774847  65.3407931 106.1416803  87.8410387
  64.6725354 108.8128241  85.6479886  63.5072429 108.6376236  85.2975701
  65.2312899 109.9041418  85.1552898  66.6930780 110.2219862  85.2465827
  67.1968761 109.2674360  85.0945247  66.8442975 110.5523920  86.2742323
  67.1071010 111.2541355  84.2499148  67.4552682 110.8362518  83.3053239
  67.8482879 111.9566505  84.6309870  65.7296673 111.9374008  84.0912608
  65.7225473 112.4028411  83.1056576  65.5164061 112.6906100  84.8497430
  64.6248767 110.7685176  84.1522825  63.6335139 111.0484366  84.5085737
  64.5021084 110.0906852  82.7758842  65.4589912 109.4867840  82.3791254
  63.4249400 110.1842639  82.0126317  62.2363714 110.9834728  82.2789543
  62.5691799 111.9390109  82.6842761  61.6489244 110.4555601  83.0301621
  61.4824357 111.1372468  80.9460148  61.8950878 111.9563317  80.3570181
  60.4204002 111.3127415  81.1174312  61.7087724 109.7920110  80.2643570
  61.6430436 109.7719964  79.1765252  61.0170294 109.0611132  80.6831407
  63.1703754 109.4628532  80.7149397  63.0914755 108.3973293  80.9306519
  64.3075039 109.6990460  79.6710097  64.5292011 108.7997927  78.8086253
  65.1472277 110.7155333  79.8033402  65.0466241 111.4021127  80.5372251
  66.2241620 110.8853991  78.8449461  65.8231827 110.8797925  77.8313962
  67.0494458 112.1914902  79.0705512  66.3616413 113.0368762  79.0892045
  67.8447427 112.1382449  80.4133516  68.5331368 111.2933267  80.3952598
  68.4082596 113.0627263  80.5393813  67.1487584 112.0214609  81.2440540
  68.0378667 112.4549900  77.8711176  68.6616884 113.3146076  78.1160761
  68.6678835 111.5753608  77.7390917  67.2855057 112.7284806  76.5969866
  66.6555756 113.6083084  76.7281015  67.9934027 112.9064627  75.7874784
  66.6617686 111.8690618  76.3511183  67.2187414 109.6838764  78.8698431
  67.7931859 109.4459486  77.8418329  67.3155939 108.9726980  79.9644552
  66.8228822 109.2208715  80.8104720  68.1360653 107.7206687  79.9623432
  68.8097349 107.5711140  79.1186005  68.9061912 107.5549314  81.2597896
  69.3220483 106.5489251  81.3155976  70.0919785 108.6235677  81.2989183
  69.6768439 109.6299003  81.2436136  70.6514428 108.5124243  82.2277603
  70.7582629 108.4589094  80.4521291  68.0973743 107.4831606  82.5732210
  67.7240239 108.4852235  82.7843611  67.2562882 106.8106169  82.4048205
  68.8837301 107.0051983  83.7130028  69.7247925 107.6775422  83.8823178
  68.2552874 106.9789666  84.6032111  69.2570589 106.0029357  83.5027760
  67.2216994 106.4671618  79.8454822  67.7153225 105.3967470  79.6552919
  65.8745978 106.5412164  79.9151617  65.4489789 107.3902452  80.2588156
  64.9965807 105.3880900  79.6140847  65.4521253 104.4748659  79.9969687
  63.6122393 105.5583229  80.2664271  63.2927479 106.5956306  80.1663402
  62.8958467 104.9079971  79.7644728  63.6861681 105.1809287  81.7782677
  63.6855125 104.0950075  81.8724781  64.6090258 105.5809846  82.1982571
  62.5183851 105.7447296  82.5170149  62.3871038 106.8086101  82.3194741
  61.5947224 105.2155267  82.2827264  62.8627012 105.5394479  83.9919640
  63.3160944 104.5579291  84.1303690  63.5608814 106.3107321  84.3171781
  61.6229047 105.6270937  84.7941733  60.9759882 104.9122115  84.4932709
  61.8434436 105.4922378  85.7705321  61.2028498 106.5366688  84.6663996
  64.8954076 105.1641914  78.0923083  63.9951532 105.5985074  77.3880516
  65.7763910 104.3310727  77.5405152  66.2920775 103.7372398  78.1741785
  66.0222487 104.1806937  76.0590561  65.2498919 103.5447117  75.6265158
  65.9922411 105.5552533  75.3407153  66.2453916 105.3023647  74.3111225
  64.9418478 105.8410473  75.3963549  66.8913861 106.7602779  75.8225939
  66.7859643 107.0890838  76.8564574  67.9068910 106.3999511  75.6582270
  66.6439148 107.9459795  74.9091604  65.7059050 107.9937794  74.1837654
  67.4706404 108.9788355  75.1444333  67.3920072 109.8206540  74.5919300
  68.1669110 108.9086547  75.8727075  67.4571458 103.5753363  75.8394757
  68.4371674 104.0858076  76.4165153  67.5866698 102.5921588  74.9373567
  66.7534779 102.4752328  74.3785912  68.7270969 101.6051984  74.7461391
  68.3968810 100.6544399  74.3276718  69.6826281 102.3103229  73.7047427
  69.1305753 102.4417290  72.7741142  69.9572763 103.2864308  74.1045950
  70.8410299 101.5647773  73.4583001  71.3907301 102.0284633  72.8223562
  69.2780503 101.2931694  76.1717422  68.4829016 100.9371148  77.0315990
  70.5847346 101.3412045  76.3336022  71.1217673 101.5371633  75.5009586
  71.2877968 100.9994582  77.5270808  70.7564719 101.4756395  78.3511223
  71.2383701  99.5006841  77.7221062  70.2257306  99.1366387  77.5485190
  72.1983396  98.8431669  76.7170138  73.2113237  99.2063974  76.8902951
  72.1740573  97.7609981  76.8451546  71.8911452  99.0953193  75.7020500
  71.7248883  99.2215741  78.9835068  71.7037893  98.2733666  79.1320255
  72.6850259 101.6010341  77.5128152  73.3777694 101.7153124  76.4833047
  73.1599542 101.8977131  78.7203750  72.4751300 101.8625121  79.4619113
  74.5799957 102.2656230  79.0747947  74.9593264 102.9503584  78.3162798
  74.7482793 102.8931725  80.4561926  74.3414033 102.1896593  81.1825682
  76.2312140 103.2232337  80.8250672  76.6386556 103.9271013  80.0993521
  76.2686763 103.6659361  81.8204124  76.8217064 102.3071159  80.8129868
  73.8911079 104.1926402  80.4906574  74.4544745 105.0123837  80.0448554
  72.9707008 104.0367389  79.9279453  73.5413010 104.5468004  81.9747125
  74.4612647 104.7033110  82.5379807  72.9412137 105.4563918  81.9999711
  72.9774926 103.7276645  82.4210714  75.4259419 100.9645766  79.0410384
  75.1161096 100.0284103  79.8246956  76.4981731 100.8417694  78.2395819
  76.6947728 101.6393034  77.6518852  77.3593927  99.6546257  78.1158538
  77.0604836  98.8160210  78.7447375  77.4371307  99.1767429  76.6722365
  78.3242154  98.5505911  76.5767692  76.1964935  98.3773137  76.2382800
  75.3090045  99.0030012  76.3330393  76.3102983  98.0638414  75.2005497
  76.0898822  97.4978620  76.8733394  77.7189266 100.3459309  75.6925797
  78.6689943 100.8146163  75.9491091  77.7668382  99.9629703  74.6731949
  76.9192456 101.0829600  75.7660585  78.8364681  99.9266652  78.6521773
  79.5779032  98.9774283  78.8996069  79.2741726 101.1713779  78.9136846
  78.6616830 101.9286334  78.6462525  80.6576894 101.5098664  79.3959219
  80.9310569 100.8804283  80.2427850  81.6978285 101.2562336  78.2165186
  82.7430168 101.3546014  78.5097838  81.5566400 100.3138397  77.6873119
  81.3943165 102.5531983  77.0131300  82.3310371 102.1658832  76.1520610
  80.7351786 102.9295556  80.0437790  79.7328907 103.6591057  79.9672253
  81.8032156 103.3272309  80.7632806  82.5923841 102.6978187  80.7293302
  81.9002474 104.5229314  81.6168976  81.4120793 105.3749165  81.1437037
  81.1949185 104.2320817  82.9540916  81.2814850 105.0431951  83.6770718
  80.1415617 104.0158825  82.7757738  81.7715042 103.0289075  83.5962457
  82.8703515 102.9847477  84.4249414  82.9448594 101.6965106  84.8084775
  83.6987518 101.4340273  85.5506688  82.0223157 100.9332622  84.1667386
  81.9245457  99.9326054  84.2627955  81.2607791 101.7065760  83.3866741
  80.4669913 101.2616062  82.7866707  83.3773277 104.9358123  81.8291337
  84.3506275 104.2030719  81.8570818  83.5039297 106.2514841  82.0960298
  82.6568085 106.7774136  82.2569122  84.7734430 106.9578725  82.1450258
  85.5623496 106.3335036  82.5644170  85.1260986 107.2942644  80.7740308
  85.3705889 106.3366193  80.3144227  84.2686072 107.7331222  80.2639207
  86.2956280 108.2114863  80.6176336  86.3553944 109.2019876  79.9789723
  87.3562472 107.8121981  81.2039319  88.1977617 108.3683793  81.1527878
  87.3491930 106.9418702  81.7163577  84.7831480 108.2285967  82.9720637
  83.8916925 109.0133038  82.7348742  85.6980617 108.4121721  83.9317600
  86.3417891 107.6492428  84.0855563  85.8270342 109.5889886  84.7497092
  84.8534549 109.9470136  85.0844637  86.6630007 109.2023606  85.9883992
  86.3080137 108.2426269  86.3638918  87.7075776 109.1115232  85.6905608
  86.5356361 110.2667281  87.0971688  87.1190974 111.1462098  86.8247987
  85.4886941 110.5473192  87.2124219  87.0563664 109.6994526  88.4109829
  86.8708205 110.3957996  89.2287681  86.5786153 108.7449355  88.6317779
  88.5236506 109.4822451  88.2934451  88.9568501 109.8591276  87.4625437
  89.3136811 109.0190041  89.2730090  88.8593711 108.2292671  90.1884411
  87.8890081 107.9494856  90.1736779  89.4766094 107.8952076  90.9147473
  90.5892475 109.2402967  89.1076910  90.9113109 109.7295324  88.2848764
  91.2483313 108.9212751  89.8033435  86.5264560 110.6917962  83.9368344
  87.5185627 110.4218698  83.3080539  86.0391162 111.9194165  84.0983721
  85.1778609 112.0238572  84.6155093  86.6332254 113.1210270  83.4771956
  87.4684647 112.9734931  82.7925729  85.5759876 113.9827685  82.7807991
  84.9130825 114.3695382  83.5547922  86.1621246 115.1576708  81.9723872
  86.8248225 114.7716360  81.1978488  85.3518538 115.7206456  81.5091151
  86.7246397 115.8124711  82.6379057  84.5151619 113.3356357  81.9697609
  83.9348829 112.6621278  82.6004474  83.8581342 114.0995102  81.5539366
  84.9721222 112.7692318  81.1582963  87.4060794 113.9320427  84.4493664
  88.4072407 114.4511370  83.9352087  87.0071193 114.0349896  85.7297065
  86.1808491 113.5107303  85.9797647  87.5662544 114.9205895  86.7000337
  88.4620489 115.3584430  86.2596524  86.6191350 116.0872897  87.1815456
  85.6605723 115.6560601  86.8929321  86.6411502 116.2325658  88.2615967
  86.8014210 117.4262380  86.4869593  85.8734457 118.2585757  86.6340400
  87.6876852 117.7370771  85.6615631  88.1180425 114.0972078  87.8971688
  87.3232576 113.4290699  88.5600132  89.4216363 114.1648144  88.2413976
  90.4910189 115.0331104  87.6115811  90.4749969 116.0215933  88.0706510
  90.3015501 115.1265807  86.5422524  91.7406156 114.2914175  87.9011699
  92.6068737 114.9530005  87.8992061  91.8992461 113.4838268  87.1865126
  91.4808777 113.7690613  89.2177630  91.7490084 114.4784161  90.0007193
  92.1030363 112.8784720  89.3064702  89.9939851 113.3862587  89.3447570
  89.8384919 112.3462421  89.0579023  89.4573624 113.6101729  90.7657737
  89.7464192 112.8027390  91.6283226  88.6067054 114.6108368  91.0436144
  88.5897267 115.4424441  90.4706917  87.7432356 114.5696961  92.2495801
  88.2021770 114.0485815  93.0897656  87.5754328 116.1183019  92.6363830
  87.1606159 116.3492462  93.6175511  88.6395547 116.3542447  92.6276775
  86.8855518 116.9727717  91.6099667  86.0051588 116.5206159  90.9276490
  87.0602945 118.2934158  91.6584234  86.6055488 118.8852091  90.9779186
  87.6466356 118.6961796  92.3754216  86.3900780 113.8404284  92.1257099
  85.8016569 113.6095640  93.1665117  86.0130344 113.2520195  90.9679015
  86.5720587 113.2946807  90.1277996  84.7735679 112.5382063  90.9225200
  84.9004421 111.7207757  90.2127247  84.6020881 112.1303778  91.9186977
  83.5464630 113.3802480  90.5057413  82.4653313 112.8425713  90.4651582
  83.6978401 114.6644249  90.2015365  84.6161993 115.0774379  90.2798701
  82.5792907 115.5280995  89.8309286  81.7378009 115.3493718  90.5002943
  82.9774606 116.9871404  89.9323158  82.1580410 117.6049732  89.5649830
  83.1746498 117.2294519  90.9765867  84.1489023 117.2400484  89.1559474
  84.3880923 118.1668009  89.2302286  81.9515125 115.3271243  88.4530082
  80.8466108 115.7606624  88.1842741  82.7451057 114.7174707  87.5409967
  83.6753329 114.4876424  87.8603017  82.3964710 114.4364775  86.1195095
  81.3160803 114.4999683  85.9898018  83.0609445 115.4443941  85.1822832
  84.1292661 115.4261659  85.3978195  82.8902918 115.0955157  84.1638228
  82.5270042 116.9001323  85.3283103  81.4411434 116.8369868  85.3991617
  82.9290090 117.2962779  86.2608139  82.9212434 117.8571948  84.1374065
  82.7419488 117.3277495  83.2016501  82.2821620 118.7389792  84.1835668
  84.3337428 118.2934712  84.1717916  84.7812321 118.2809919  85.0771627
  85.0519608 118.6240332  83.1216566  84.6333223 118.6432100  81.9063113
  83.6776847 118.3892152  81.7005362  85.2620495 118.9121777  81.1630360
  86.2483975 119.0271367  83.2848767  86.6344483 119.0894221  84.2161046
  86.8058381 119.2827342  82.4823628  82.7277733 113.0234509  85.6118133
  83.8664886 112.6023469  85.6775695  81.7786288 112.3333354  84.9980915
  80.8646481 112.7630774  85.0058765  81.9342522 111.0039826  84.3182685
  82.9850705 110.7867432  84.1267298  81.3486762 109.8773514  85.2798261
  80.3148749 110.0771430  85.5616723  81.3871537 108.9916489  84.6456726
  82.1805355 109.6396054  86.5353471  81.9776821 110.3733504  87.7537763
  81.3479535 111.2626919  87.7785370  82.6305592 109.9099020  88.9691873
  82.2960838 110.2788774  89.9387672  83.5805441 108.8762856  88.9001866
  84.3810786 108.7173589  89.9676962  84.2012417 109.3481781  90.6686424
  83.7415347 108.1962180  87.6998475  84.4200937 107.3435956  87.7261766
  83.0875361 108.5475378  86.4864163  83.2923176 107.9863934  85.5746699
  81.1927924 110.9267258  82.9589824  79.9368059 111.1064161  82.9715642
  81.8693780 110.7404894  81.8338064  82.8636459 110.9175171  81.8199520
  81.2338021 110.3357219  80.6136292  80.4547962 111.0586304  80.3714468
  82.2005915 110.2513665  79.4410818  82.9896934 109.6624210  79.9085864
  81.8090618 109.7130788  78.5779184  82.7652743 111.5862929  78.9908876
  82.7203987 112.2856275  79.8257637  84.2304447 111.4361117  78.5234198
  84.2760669 110.7372328  77.6882038  84.6123248 112.4063887  78.2058809
  84.8379243 111.0586260  79.3459607  81.7503103 112.1954826  77.9950457
  80.7900081 112.3322466  78.4922527  82.1181875 113.1599307  77.6448921
  81.6265481 111.5241314  77.1452990  80.6078498 108.9920600  80.9233038
  81.2058429 108.0937857  81.5028256  79.4871092 108.7494051  80.3013471
  78.9956959 109.5617656  79.9568435  78.8820132 107.4016679  80.0657434
  79.5358940 106.5979667  80.4042747  77.5410053 107.3607885  80.9215674
  76.9324849 108.0500263  80.3361159  77.1410552 106.3514707  80.8245234
  77.5145207 107.7716094  82.3616090  77.8145471 108.8159039  82.4484081
  76.0997967 107.6013243  82.9114753  75.7992264 106.5571244  82.8254350
  76.0784202 107.8998457  83.9595825  75.4106817 108.2253049  82.3423804
  78.5093473 107.0398822  83.1450408  79.5043682 107.2397658  82.7474487
  78.4626353 107.3626985  84.1850931  78.3035432 105.9710462  83.0873065
  78.5593705 107.1513625  78.5584561  78.1311701 108.1122514  77.8699809
  78.5266254 105.8629169  78.1991715  78.4438198 105.1852629  78.9435018
  78.6027960 105.3659728  76.7969330  78.4514004 106.2012532  76.1132041
  79.5871353 104.9304172  76.6252736  77.5174337 104.2864154  76.5249856
  77.2807167 103.3726931  77.3215820  76.8656341 104.3406318  75.3619006
  77.2491904 104.9731422  74.6742129  75.5384793 103.7045873  75.0800200
  75.3229557 102.9774827  75.8629425  74.3197450 104.7988328  75.0317739
  74.2431582 105.3037204  75.9947496  74.7358149 105.4852291  74.2943147
  72.8863967 104.3340717  74.5668880  71.9394093 105.1120132  74.8914104
  72.6319984 103.3647502  73.8203893  75.5703992 102.7674511  73.8349876
  76.1095572 103.1985198  72.7857987  74.8955471 101.6344277  73.8702807
  74.5155542 101.3738295  74.7690539  74.8230463 100.6359703  72.7495263
  75.8173198 100.2717891  72.4908926  73.9645274  99.4390906  73.2146029
  74.3806831  99.1135690  74.1679913  72.9572392  99.8250080  73.3712500
  73.9111151  98.2447691  72.2435745  73.2333077  97.5465713  72.7346934
  73.4279074  98.6572696  71.3578794  75.4011623  97.3730168  71.7509222
  74.7628758  96.4102526  70.3764778  74.3708509  97.0819256  69.6127561
  75.5648344  95.8065117  69.9516720  73.9648782  95.7569829  70.7293798
  74.4196549 101.1918685  71.4063503  75.0170010 100.8741473  70.4180205
  73.5300899 102.1592996  71.3705419  73.0514598 102.3630952  72.2362670
  73.1103948 102.8993600  70.1342278  72.8529497 102.2003398  69.3384942
  71.8569954 103.7630187  70.4626567  71.1329382 103.0678120  70.8875425
  72.1839450 104.4618967  71.2325746  71.1637229 104.5887663  69.2380522
  70.2770141 105.1409615  69.5493862  71.9431732 105.2909703  68.9423059
  70.8119040 103.6854635  68.0492677  70.3592510 102.5075247  68.2021839
  70.8271527 104.0435547  66.8473396  74.1647101 103.7422909  69.4942827
  74.1040840 104.1967342  68.2816167  75.2623135 104.0834002  70.2089778
  75.3122994 103.7900857  71.1741552  76.4018078 104.8690877  69.6477774
  77.3387856 104.5672070  70.1157944  76.4707246 104.7220036  68.5699481
  76.1484593 106.4096600  69.9443119  75.9992256 107.1787107  69.0125370
  76.2076562 106.7872873  71.2197664  76.3356493 106.0499662  71.8980544
  76.0120239 108.1417814  71.7042123  76.6297037 108.8041828  71.0977511
  74.5425962 108.6417625  71.6457829  74.5686608 109.6826771  71.9681442
  74.2528505 108.5941784  70.5960767  73.5348067 107.8789293  72.4829226
  73.8894394 106.8489101  72.5202984  73.5785956 108.3141743  73.4812945
  72.0671026 107.9029941  71.9714869  71.6488398 108.9086258  72.0146162
  71.9964477 107.5240819  70.9519120  71.2788210 107.0243680  72.8583590
  71.7976786 106.4958536  73.5450603  69.9952771 106.8702926  72.8014560
  69.3148437 107.6301461  72.0131394  69.7877421 108.3278594  71.4566653
  68.3120623 107.5241657  71.9557180  69.3653888 105.9846119  73.5371103
  69.8868742 105.3976940  74.1724688  68.3620840 105.8940448  73.4644748
  76.5840460 108.2260836  73.1695607  76.6949360 107.2095754  73.9219937
  77.0503435 109.4125715  73.5186483  76.9818588 110.2157109  72.9100629
  77.6212773 109.6094753  74.9014818  77.7460372 108.6487806  75.4010816
  79.0336524 110.3069549  74.7889968  78.8780866 111.2231708  74.2193943
  79.4139681 110.5558190  75.7797171  80.0603278 109.4089605  74.0523201
  79.7448446 109.2476057  73.0215263  81.4264865 110.1246646  74.0654293
  81.7428674 110.2859624  75.0959559  82.1646802 109.5090867  73.5513918
  81.3387784 111.0854689  73.5582184  80.2745502 108.0194646  74.5579197
  79.3358344 107.4672689  74.5132901  81.0199404 107.5184189  73.9403050
  80.6243847 108.0575509  75.5895516  76.7204809 110.5832713  75.6955833
  76.0638016 111.4867129  75.1956557  76.6892741 110.3346339  77.0071162
  77.1665192 109.4759129  77.2414975  76.1332999 111.1015353  78.0582512
  75.6185329 111.9719685  77.6514831  75.1087030 110.2483945  78.8626031
  75.7046647 109.3372982  78.8093830  74.8582522 110.4578812  79.9025501
  73.8367264 109.9618231  78.1715014  72.6198312 110.3865163  78.7339617
  72.6743686 111.0613289  79.5882178  71.3334834 109.9657967  78.2262250
  70.4375913 110.4406697  78.6261920  71.2250143 109.0079839  77.2782488
  70.2753623 108.5951304  76.9379356  72.4237097 108.5479130  76.7282859
  72.3420121 107.8266071  75.9151787  73.7103999 108.9743462  77.1779602
  74.6108804 108.5334418  76.7503646  77.2640847 111.5558974  79.0866513
  78.3905651 111.0295502  79.0359894  76.9734318 112.6204300  79.9036832
  76.1468561 113.1493722  79.6647435  77.7929110 113.0704263  81.0868210
  78.7266649 112.5109936  81.1437244  78.1210845 114.5512139  80.9194675
  78.4156489 114.7291733  79.8852231  77.2293792 115.1348237  81.1482934
  79.2323624 114.9615220  81.8313999  79.2877214 116.0364309  81.6593328
  78.8047638 114.7732790  82.8161974  80.8705670 114.2737319  81.7643217
  81.2553000 114.8895441  80.1155131  81.1963417 115.9779372  80.1106872
  82.2625314 114.5795188  79.8371788  80.5401244 114.4842792  79.3997020
  76.9562144 112.7984562  82.3339201  75.8848289 113.3536588  82.4650427
  77.4679730 111.9233477  83.2078292  78.2107258 111.2913149  82.9452417
  76.9212316 111.8321250  84.5807590  75.8473475 112.0183664  84.5671067
  77.1742386 110.3996335  85.1689186  76.8037206 109.6699081  84.4489766
  78.2357865 110.2273625  85.3465102  76.3908768 110.2495087  86.5120600
  76.7072453 111.0741803  87.1507528  74.8744774 110.2623748  86.3813069
  74.5572986 109.4376515  85.7430845  74.4233008 110.1522936  87.3674218
  74.5553562 111.2064068  85.9396445  76.9916082 108.8999714  86.9438886
  78.0721116 108.9992052  87.0476403  76.5614868 108.5992606  87.8992262
  76.7672936 108.1442934  86.1910721  77.6395179 112.9378942  85.3620562
  78.7559858 113.1670740  85.2285415  76.9841176 113.5858514  86.3512982
  76.0866434 113.2110094  86.6235716  77.4859563 114.7479906  87.0568139
  78.5554936 114.8703745  86.8859006  76.7734366 115.9697915  86.5410044
  75.7696676 115.8968528  86.9596055  77.2919524 116.8182686  86.9874659
  76.6799551 116.1705184  85.0102857  76.6218389 115.1629743  84.5984870
  75.5294405 117.0143122  84.4573128  75.5871620 118.0221967  84.8683311
  75.6019347 117.0608979  83.3707240  74.5785068 116.5617606  84.7384223
  77.9510231 116.8274983  84.6040166  78.7922262 116.1857249  84.8659398
  77.9452051 116.9966258  83.5272328  78.0484446 117.7822857  85.1207265
  77.2472434 114.6995364  88.5302538  76.1873301 114.3104473  88.9466318
  78.1718977 115.1640541  89.3245854  79.0807851 115.3134132  88.9102003
  78.0347667 115.3129123  90.8118064  76.9938468 115.1975720  91.1139347
  78.8757514 114.2148268  91.5059562  79.8572332 114.2544501  91.0334917
  78.9511977 114.5796550  92.5303137  78.3722447 112.7690151  91.5153035
  77.2978517 112.7626482  91.6989882  78.6629860 112.1080362  90.1633947
  79.7372967 112.1136137  89.9792094  78.3024113 111.0794830  90.1762316
  78.1563128 112.6602717  89.3719285  79.1216585 111.9606787  92.6011384
  78.9432500 112.4106851  93.5777468  78.7598629 110.9324775  92.6038819
  80.1905481 111.9686207  92.3878057  78.3211345 116.7550660  91.2905332
  79.4001372 117.3034252  90.9909012  77.3777315 117.3924620  91.9190427
  76.4910215 116.9307581  92.0628276  77.5320079 118.7944904  92.4046844
  78.3977830 119.2316629  91.9072783  76.3117008 119.6826795  92.1349201
  76.1247050 119.5677274  91.0672508  75.5053474 119.2118441  92.6972440
  76.3764838 121.2067859  92.4923007  75.3475522 121.5338215  92.6421285
  76.9441303 121.3632468  93.4095775  77.0237146 122.0354952  91.3300090
  76.6862315 123.1931908  91.1609676  77.8021774 121.4331072  90.6320144
  77.8151497 118.8953471  93.9242099  76.9297516 118.6547380  94.7701972
  78.9640919 119.5018305  94.3300962  79.6814595 119.6209580  93.6291741
  79.2980312 119.7860264  95.7079624  78.9504653 118.9546799  96.3212814
  80.8248403 119.9817981  95.9533447  80.9331081 120.1448414  97.0256293
  81.2914558 119.0350103  95.6813835  81.4768055 121.0747523  95.2247835
  81.5520009 120.8024762  94.1720194  80.8719864 121.9761009  95.3241139
  82.9306728 121.3459989  95.8066016  82.8332652 121.5069099  96.8802488
  83.5313949 120.4545115  95.6263724  83.6386229 122.6027972  95.1459211
  84.7003676 122.5521744  95.3872428  83.5080453 122.5293861  94.0662640
  83.0742576 123.9159554  95.6326670  83.1955413 123.9843674  96.6330218
  83.5592165 124.6785944  95.1817827  82.0905233 123.9632469  95.4087709
  78.3904131 120.9513240  96.2687945  78.0908471 121.9333320  95.5567364
  78.1498565 120.7962479  97.5869561  78.1491811 119.8425930  97.9195836
  77.6368937 121.8823344  98.5148518  77.7539959 122.8301300  97.9894283
  76.2357242 121.7553390  98.9496691  75.7574416 121.6354381  97.9775741
  76.2907955 120.7878625  99.4487246  75.4005406 122.7426992  99.8213074
  74.3522267 122.4448369  99.8008892  75.7988767 122.5996030 100.8257729
  75.5205886 124.2367445  99.4262413  74.5424881 124.9788796  99.5548840
  76.6079364 124.7273241  99.0425742  78.6791246 122.0834577  99.6338572
  79.2223400 121.0750737 100.1290922  79.0662707 123.3013468  99.9830534
  78.7472210 124.0857959  99.4326479  80.0002529 123.5562280 101.0734702
  80.5136105 122.6256659 101.3155806  81.0453449 124.6140901 100.7267767
  80.5535667 125.4154987 100.1754168  81.4543037 125.0108622 101.6559832
  82.1670100 124.0383366  99.8870332  82.7479566 123.3713535 100.5240068
  81.6488623 123.4538738  99.1267533  83.1067328 125.0428272  99.2071628
  83.1753473 126.2368731  99.6251932  83.8145358 124.5862373  98.2691992
  79.2030844 123.9649533 102.3760059  78.6367272 125.0558076 102.4572421
  79.1397709 123.0609734 103.3770902  79.5628490 122.1766636 103.1339843
  78.3767705 123.1498496 104.6438057  77.3296404 123.2812839 104.3711471
  78.4857313 121.9855949 105.5685908  79.5291000 121.7364938 105.7620579
  77.9799043 122.1877632 106.5127132  77.7890998 120.7864541 104.8517748
  76.7804987 121.0949559 104.5767270  78.3902981 120.6665531 103.9505054
  77.7089019 119.4323994 105.5719310  78.4098418 119.1336616 106.4846254
  76.7557139 118.6341757 105.1670352  76.6443451 117.7269665 105.5967675
  76.1352539 118.9285345 104.4264384  78.6920603 124.5365802 105.3119020
  79.7394899 125.1593981 105.0660848  77.9175921 124.8970009 106.3159961
  76.9881217 124.5067393 106.3782868  78.2762566 125.9714451 107.2267378
  78.2388367 126.9196168 106.6903896  77.3255874 126.0493376 108.4257497
  76.4250482 125.5234164 108.1086768  77.8178657 125.4821076 109.2156942
  76.9431240 127.4513367 108.9592712  77.8842783 127.9469652 109.1973509
  76.4622258 127.9661484 108.1275213  75.8415526 127.5131454 110.4246248
  75.8654231 129.3205348 110.6280772  75.4738906 129.7932789 109.7273473
  75.2474674 129.5987769 111.4817825  76.8892387 129.6541554 110.7971930
  79.7242181 126.0312248 107.6968782  80.3364530 127.1179744 107.5586297
  80.3546671 124.9991905 108.1213746  79.7692963 124.1839808 108.2348367
  81.7652067 124.9090432 108.5354125  82.1150987 125.8604258 108.9360944
  81.8733866 123.8547659 109.6237132  82.8994514 123.9283228 109.9841015
  81.1904804 124.1988971 110.4004454  81.5619630 122.4154481 109.2807995
  80.9339301 122.1829986 108.2450988  81.9421080 121.4380018 110.0362188
  82.8238080 124.6297644 107.4262405  83.9701779 124.2691085 107.7564365
  82.4315299 124.6474699 106.1157324  81.4710969 124.8361409 105.8665919
  83.4060177 124.3899287 105.0222572  83.1313017 125.0012922 104.1626847
  84.3989104 124.6765270 105.3688473  83.4307868 122.9514003 104.6088959
  84.2111385 122.5726277 103.7516984  82.7043413 122.0320205 105.2668129
  82.0769214 122.3830348 105.9762018  82.7099459 120.5752782 104.9919470
  83.7401070 120.2255533 104.9244198  81.9893640 119.7895948 106.1366492
  80.9133137 119.9628831 106.1229692  82.2695563 118.3203126 105.8596889
  83.3454612 118.1461495 105.8736688  81.7929764 117.7083661 106.6255168
  81.8712888 118.0521159 104.8811419  82.4816614 120.1423141 107.3998758
  82.0177398 119.6420252 108.0752188  81.9237174 120.2902342 103.7179734
  80.7403409 120.7373875 103.5051260  82.5164418 119.4819819 102.7984611
  83.3980733 119.0759877 103.0777351  81.9968003 119.1719591 101.4427234
  81.6928278 120.1614856 101.1013479  83.1021774 118.6137130 100.4559044
  83.5231910 117.6980154 100.8710486  82.4868809 118.3173697  99.0928883
  82.0660393 119.2327535  98.6768767  83.2558145 117.9340264  98.4221502
  81.6982413 117.5731505  99.2037358  84.0719820 119.7374009 100.1357395
  84.5380586 120.0890801 101.0561723  84.8416192 119.3712400  99.4562659
  83.5334177 120.5596569  99.6646297  80.8819339 118.1246784 101.6051764
  81.0760294 117.0906606 102.2070893  79.7084702 118.3361253 101.0340703
  79.5608746 119.2447922 100.6185713  78.6830771 117.3773922 100.9243086
  79.0036718 116.3722800 101.1982933  77.5035739 117.8341461 101.9276396
  77.9992508 118.1247441 102.8538996  76.6076553 118.9633594 101.4586105
  76.1112451 118.6732980 100.5325755  75.8581422 119.1739876 102.2214768
  77.2084338 119.8559333 101.2840319  76.6931943 116.7396746 102.1951633
  75.9881276 117.0017678 102.7916434  78.1515772 117.4013598  99.4643078
  78.4826338 118.2791159  98.6722378  77.2630000 116.4420249  99.0974332
  77.0620933 115.7454854  99.8006889  76.6791922 116.2558685  97.7194737
  77.2380222 116.8578061  97.0028989  76.7478820 114.8052729  97.2905445
  77.7869915 114.4771238  97.3164080  76.1844518 114.2874522  98.0667585
  76.1287310 114.4732178  95.8842756  75.0490257 114.5893940  95.9782997
  76.6366481 115.3498771  94.7443780  77.7162906 115.2338743  94.6494337
  76.1562394 115.0501413  93.8129990  76.4009475 116.3930698  94.9548405
  76.5132459 113.0857150  95.4536699  76.1443696 112.3634034  96.1818839
  76.0758264 112.8731458  94.4781803  77.5988301 113.0127972  95.3881799
  75.2854074 116.8071982  97.5582461  74.3278462 116.3329822  98.1532367
  75.1209600 117.9256176  96.8124257  75.9662519 118.2426424  96.3595724
  73.8853238 118.6830111  96.5870521  73.3862808 118.8496848  97.5416594
  74.1779207 120.0868470  95.9174479  75.1214897 120.4858262  96.2897278
  74.2325988 119.9769228  94.8343842  73.0296415 121.0574053  96.2794060
  72.2017036 120.7926686  95.6217328  72.7622455 120.8260611  97.3104644
  73.3214423 122.5454088  96.1531252  72.3988267 123.0369773  96.4617347
  74.1002654 122.7397127  96.8905396  73.7408088 123.0682808  94.8516127
  74.7991668 122.8442972  94.7181581  73.1626705 122.5631030  94.0778875
  73.5296583 124.5285468  94.7499823  74.0656271 124.9968741  95.4665761
  73.8301982 124.8496807  93.8407800  72.5489596 124.7362703  94.8731904
  73.0260802 117.8772061  95.6564948  71.8864923 117.6221614  95.9207707
  73.5164756 117.3741972  94.5297742  74.5227084 117.3241826  94.4584059
  72.7270353 116.8830560  93.4260200  71.8725970 116.2955178  93.7619267
  72.1918808 118.1708509  92.6747019  72.0915984 118.9186135  93.4614000
  72.9990265 118.4588519  92.0011506  70.8843232 118.0781485  91.8913461
  70.5992535 119.0430444  91.1492374  70.1957883 117.0652049  92.0493935
  73.5289269 115.9938650  92.3726720  74.6353439 116.3639746  92.0467051
  72.8769010 114.9442635  91.8940772  71.9246725 114.8296683  92.2106654
  73.4060357 113.9847419  90.9821761  74.4718844 114.1568193  90.8323258
  73.2088609 112.5470622  91.5553892  73.8945940 112.5768131  92.4021384
  72.1835668 112.4887252  91.9207229  73.5054989 111.3535785  90.7194685
  73.0406651 111.4480914  89.7380930  75.0238787 111.2774486  90.5585560
  75.4894193 111.1824516  91.5395485  75.2822054 110.4115475  89.9489796
  75.3841373 112.1839910  90.0722484  72.8989763 110.0680698  91.3127161
  71.8163525 110.1745288  91.3812131  73.1403513 109.2215638  90.6698578
  73.3103893 109.8970931  92.3075052  72.6140705 114.1815542  89.6902422
  71.3748862 114.1494353  89.8316089  73.1806374 114.4658702  88.4999101
  74.1884237 114.5233683  88.5339682  72.4865431 114.7952891  87.1952173
  71.4334244 114.5211157  87.2574196  72.5854455 116.2979494  86.8992857
  73.6366187 116.5796451  86.8377908  72.0979014 116.5054383  85.9467369
  71.8958036 117.1168946  88.0219917  70.8413889 116.8433926  88.0608142
  72.3682464 116.8766519  88.9744534  72.0259840 118.6473960  87.7487217
  71.9084465 118.8417961  86.6826577  71.2574518 119.1864275  88.3027097
  73.3624260 119.1444606  88.1800123  73.8612343 118.5475122  88.8241724
  73.9798383 120.2708909  87.7266628  73.3203563 121.1477008  87.1018156
  72.3329257 121.0116468  86.9388119  73.7834331 121.9809043  86.7680022
  75.1756354 120.5499892  87.9478423  75.7453939 119.9198648  88.4941193
  75.5680074 121.4046744  87.5795270  73.0135789 113.9636442  86.0198050
  74.1772148 113.5504140  86.0970923  72.2653020 113.6801784  84.9794426
  71.2685242 113.8165647  85.0685052  72.7849395 113.0491812  83.7287990
  73.8626633 113.1779582  83.6286644  72.4614658 111.5090282  83.7409472
  72.9361387 111.0630917  84.6149756  70.9259023 111.2487871  83.7947372
  70.4505638 111.6940628  82.9207328  70.7388777 110.1749754  83.8018636
  70.5126999 111.6950431  84.6992929  73.0311957 110.7910179  82.5198580
  74.1146071 110.9091835  82.5009172  72.7827002 109.7310159  82.5722545
  72.6035909 111.2195399  81.6134232  72.2471087 113.7866118  82.4554302
  71.0697525 114.0656540  82.2555609  73.1741549 113.9449040  81.4930841
  74.1274667 113.6287025  81.5994445  72.8329011 114.7379305  80.3077754
  71.7463165 114.7945697  80.2427743  73.3967751 116.1607022  80.3227990
  74.4744970 116.0831913  80.1792484  72.9557731 116.6924805  79.4796921
  73.1192376 116.8983567  81.5677989  73.4891641 116.3720802  82.4477355
  73.6736100 117.8283139  81.4415056  71.6217954 117.2140604  81.7502056
  71.1169611 117.4715646  82.8520277  70.8894705 117.3149267  80.7292947
  73.1984686 114.0478494  78.9784517  74.0420015 113.1505318  79.0127934
  72.5214223 114.3282901  77.7966267  71.6809370 114.8855722  77.8524875
  72.8512416 113.6714728  76.4944430  73.5204709 112.8306841  76.6769415
  71.5948619 113.1526634  75.7856435  71.2936008 112.3087602  76.4062628
  70.8400767 113.9365724  75.8479815  71.7353010 112.6872599  74.3145519
  72.1780900 113.5045184  73.7452300  72.6324871 111.4001556  74.1695567
  72.1900606 110.5822799  74.7382717  72.6969605 111.1180691  73.1186660
  73.6319861 111.6084484  74.5512849  70.4046515 112.4236819  73.6963938
  69.8080946 113.3357688  73.7141986  70.5405765 112.0991349  72.6647472
  69.8909354 111.6431417  74.2575995  73.7643949 114.6075794  75.6703170
  73.4004763 115.7472157  75.4246987  74.9081144 114.1230417  75.1743544
  75.1903287 113.1817987  75.4078410  75.8111231 114.9379473  74.3217078
  75.7075016 116.0112403  74.4810934  77.2427140 114.4931219  74.8054762
  77.5270420 113.6021256  74.2456705  77.8680487 115.3307015  74.4964180
  77.4382008 114.2344455  76.3228615  76.6727732 113.5140927  76.6115018
  78.8149078 113.7078624  76.7344329  79.5808658 114.4279396  76.4465161
  78.8409921 113.5627315  77.8144131  79.0048213 112.7573229  76.2359271
  77.3092447 115.5805014  77.0051056  76.3223564 115.9972858  76.8040047
  77.4388521 115.4573413  78.0803427  78.0735873 116.2569730  76.6226588
  75.7758626 114.8799154  72.7783731  75.8023545 115.8910923  72.1215372
  75.5757741 113.6966829  72.2138924  75.5458584 112.8711357  72.7949916
  75.3958260 113.5369692  70.7782949  74.3399237 113.6764054  70.5465037
  75.9828322 114.3025310  70.2709114  75.8331052 112.1723066  70.2846634
  76.4231437 111.3831270  71.0913306  75.6810916 111.8329374  69.0282712
  75.2201422 112.5291721  68.4600439  76.0681434 110.5302684  68.3850936
  75.7048670 109.6949625  68.9837534  75.4709616 110.4376400  67.0304505
  75.6511712 109.3893398  66.7923529  74.4143776 110.5820181  67.2560279
  75.8579970 111.3026360  65.8378502  75.5738786 112.3195513  66.1085177
  76.9410480 111.2452662  65.7291831  75.1798311 110.9157299  64.4893879
  74.5050993 109.8672095  64.3591841  75.3378356 111.6886345  63.4685579
  77.5948233 110.2800541  68.2557366  78.3671903 111.2204086  67.9303513
  78.0330711 109.0252349  68.5119874  77.3365988 108.4025948  68.8958428
  79.4344791 108.4743422  68.2557864  80.0380525 108.9198870  67.4650347
  80.2442355 108.5509882  69.6146230  81.1894549 108.0727408  69.3578352
  80.5232933 109.8871251  70.3369457  79.5784772 110.3657669  70.5944805
  81.0934086 109.6969931  71.2462958  81.0952372 110.5430275  69.6806129
  79.7006802 107.6210113  70.5467295  80.1923973 107.6685079  71.3698690
  79.3384039 106.9974978  67.8071473  78.2608098 106.5410578  67.5463073
  80.4290402 106.2720789  67.7287962  81.2796775 106.8151757  67.7683112
  80.5373758 104.8282103  67.5280358  79.8639747 104.5580598  66.7146178
  81.9588884 104.3221582  67.1821568  82.3433211 105.0004794  66.4204541
  82.5470665 104.4292528  68.0935718  82.0513140 102.9774891  66.7118127
  82.9692715 102.7653187  66.5275914  80.0503198 104.0030406  68.7264453
  79.8142585 104.5195677  69.8662956  79.7754637 102.7170684  68.4675908
  79.8419061 102.3868338  67.5154197  79.2549177 101.7895946  69.4974230
  78.4859740 102.3010053  70.0764601  78.6535945 100.5616496  68.8291421
  79.3901942 100.0663285  68.1965456  78.2183094  99.6034672  69.9586213
  77.4813166 100.0979574  70.5914101  77.7794770  98.7050307  69.5246412
  79.0863628  99.3299254  70.5584192  77.3941803 100.8564751  67.9331260
  76.5906217 101.1304785  68.6167315  77.6537105 101.7160456  67.3151600
  76.9243125  99.6892927  67.0242451  76.6641484  98.8294565  67.6415750
  76.0511170 100.0025734  66.4519829  77.7272387  99.4150220  66.3400047
  80.3262785 101.4426036  70.5257028  81.2726913 100.6915108  70.2420193
  80.2808556 101.9381707  71.7895841  79.4137913 102.3107000  72.1494742
  81.4596023 102.0331987  72.6135027  82.3614388 102.2377284  72.0364779
  81.1989347 103.2446820  73.5866064  80.3040194 103.0504749  74.1778002
  82.0536395 103.3674781  74.2518140  81.0585601 104.1553796  73.0043487
  81.7232110 100.6809855  73.3240878  81.0538727 100.2827864  74.2710628
  82.7076573  99.8910534  72.8563799  82.9994822 100.1040179  71.9132024
  83.3881773  98.7873951  73.5688066  82.6473920  98.0446673  73.8649343
  84.4226381  98.1176858  72.7104160  84.0218675  98.0578609  71.6985350
  85.3107704  98.7496020  72.7121217  84.7917283  96.7246435  73.1917792
  85.6437750  96.3710101  72.6112100  85.0946038  96.8704244  74.2286560
  83.6568861  95.6786145  73.1294448  83.6610958  94.7564460  73.9897356
  82.6969366  95.7446257  72.2805022  84.1163217  99.2958885  74.8240557
  84.3064585  98.5732603  75.8185433  84.5071440 100.5565922  74.6903209
  84.3567039 100.9887020  73.7899053  85.3365841 101.2489442  75.6538352
  84.8280437 101.3346784  76.6141140  86.6309543 100.4331382  75.8525197
  87.3755686 101.0200715  76.3902540  86.4252197  99.5154805  76.4035893
  87.4096955  99.9276553  74.3176623  88.4296906  99.2884028  74.8832279
  85.4702296 102.7385371  75.3330206  84.9755612 103.1943744  74.3150989
  85.9416764 103.4983448  76.3345425  86.4702465 103.0853882  77.0896451
  85.7468395 104.9344366  76.3373079  85.9014948 105.3832615  75.3561162
  84.2789001 105.1162621  76.7326094  83.7157422 104.7435489  75.8770176
  84.1746142 104.4215985  77.5660763  83.7547135 106.4428318  77.1278741
  84.3499328 106.8501822  77.9451137  83.8387552 107.3649736  75.9367333
  83.2433676 106.9584931  75.1191845  83.4561802 108.3483230  76.2101583
  84.8775223 107.4552704  75.6190704  82.3168489 106.4722216  77.5612268
  82.1839875 105.8216661  78.4256484  82.0380151 107.4916112  77.8280561
  81.6836280 106.1247450  76.7448995  86.6714980 105.5117191  77.3928465
  86.9283888 104.9025070  78.4358488  87.3639872 106.5784171  77.0417736
  87.2018729 106.8862937  76.0936015  88.3771474 107.3487301  77.8914855
  88.1430477 107.4833516  78.9475032  89.7296056 106.6993086  77.7778256
  89.5685016 105.7098449  78.2057360  90.4517139 106.5589213  76.3991215
  90.6135886 107.5480728  75.9707811  91.4120793 106.0630471  76.5402103
  89.8338726 105.9675831  75.7233317  90.5327129 107.2845225  78.6768030
  91.4069158 106.8906948  78.6291638  88.4679532 108.8198957  77.4493193
  88.3655928 109.0710121  76.2585948  88.6593126 109.7492296  78.3895396
  88.7938376 109.3689981  79.3155128  88.7911655 111.1754116  78.2095577
  88.2841156 111.4883677  77.2968376  88.1488810 111.9140369  79.4110291
  87.0728512 111.7437614  79.3754574  88.5439257 111.5425970  80.3565830
  88.4346603 113.4282970  79.2930145  89.2227719 114.1713255  80.2241738
  89.5579610 113.6817778  81.1385538  89.5603983 115.4850585  79.9825682
  90.1867105 116.0328756  80.6866500  89.0662125 116.1332856  78.8166231
  89.4299769 117.4196057  78.5258002  90.0260913 117.7971294  79.1767403
  88.2384484 115.4753728  77.9564002  87.8623958 115.9626798  77.0568354
  87.8717521 114.1527301  78.2426326  87.1194765 113.6517230  77.6333925
  90.2845202 111.4489001  78.2674276  91.0356484 111.0197761  79.1964184
  90.8241201 112.2515810  77.3277658  90.2373738 112.4295118  76.5251646
  92.2233186 112.7006584  77.2815580  92.7856334 112.0962862  77.9933414
  92.9108989 112.5870638  75.8728044  92.1245308 112.9418370  75.2065759
  93.8057986 113.1934620  75.7330340  93.2340153 111.1083152  75.5476995
  93.7198809 110.6573987  76.4129797  91.9160455 110.3034133  75.2044773
  91.4298350 110.7534911  74.3389554  92.1703965 109.2675770  74.9798674
  91.2385273 110.3338040  76.0577919  94.3582789 111.0723587  74.4627900
  95.2486476 111.5717794  74.8447874  94.5983687 110.0368015  74.2217935
  94.0130804 111.5833815  73.5640172  92.2933127 114.0872658  77.9345547
  92.0257426 114.2346809  79.1444374  92.5562079 115.1057907  77.1666133
  92.7252393 114.9510966  76.1829479  92.5612486 116.4969278  77.6686281
  92.0116694 116.6376605  78.5993570  94.0648480 116.7113110  77.9462583
  94.4278535 115.9280181  78.6116743  94.6043310 116.6626679  77.0003767
  94.2957790 118.0824942  78.5967231  93.2783048 118.6345855  79.2236349
  95.3895692 118.6945283  78.5730510  92.0553183 117.4422112  76.5437637
  92.0112345 117.0085937  75.3914745  91.6924528 118.7054107  76.8442196
  91.7246923 118.8986795  77.8350309  91.2634618 119.7886438  75.9316880
  90.8912054 120.6324124  76.5127034  92.4417818 120.2695749  75.0652302
  92.6786434 119.4621542  74.3723611  92.0929476 121.1373787  74.5054701
  93.7126170 120.6539711  75.8193080  93.7454559 121.6042554  76.6122283
  94.8037612 119.9731264  75.6351889  95.6443242 120.2274814  76.1340446
  94.8062911 119.1927024  74.9940705  90.1192392 119.1424130  75.0532841
  90.1216177 119.3066776  73.8210806  89.1127323 118.4958358  75.6136642
  89.2966489 118.3262090  76.5921839  87.8248574 118.0113919  75.0427778
  87.1249528 117.8825522  75.8683886  87.4518915 118.7817292  74.3678139
  87.9423442 116.6642847  74.2611590  86.9965340 116.0678315  73.8666205
  89.1426308 116.1462128  74.1830535  89.8909995 116.6274077  74.6610651
  89.4860781 115.0396409  73.3000560  88.7942917 114.9668472  72.4608708
  90.8899218 115.1693516  72.7583954  91.5747752 115.3046829  73.5955098
  91.2982479 113.9138787  71.9575761  90.6140807 113.7781441  71.1199650
  92.3134924 114.0371037  71.5804891  91.2558213 113.0388719  72.6061627
  91.1046365 116.3902034  71.8811494  90.8981745 117.2926010  72.4566091
  92.1371307 116.4105958  71.5323810  90.4329352 116.3449492  71.0239036
  89.1328827 113.8065624  74.0943346  89.5599930 113.6636725  75.2388258
  88.3854317 112.9135290  73.4181228  88.1605080 113.1642588  72.4659446
  87.8878179 111.6242679  73.9388253  88.3959359 111.2665281  74.8343350
  86.3605141 111.7340012  74.2421182  85.8850101 112.1896323  73.3735588
  85.6777819 110.3335440  74.5446978  86.1524803 109.8774830  75.4134732
  84.6170618 110.4820145  74.7470092  85.7942525 109.6779609  73.6817105
  86.1313251 112.7226395  75.3642259  86.5116225 113.7010049  75.0704963
  85.0638778 112.7958206  75.5723132  86.6531267 112.3843627  76.2594313
  88.1659834 110.6293670  72.8095011  87.9411520 110.8131103  71.5804921
  88.5045023 109.4542362  73.2129928  88.7828167 109.3702363  74.1802489
  88.5534213 108.2279726  72.3496165  88.4873249 108.5267584  71.3034533
  89.8629012 107.4261910  72.5535937  90.6385313 108.1696523  72.3698481
  89.9685886 107.0339912  73.5650825  90.1323291 106.2893105  71.6243955
  90.3984408 106.5349430  70.2706887  90.4755081 107.5760957  69.9573812
  90.5629311 105.5133240  69.3386766  90.7464291 105.7242805  68.2851461
  90.4872489 104.1839519  69.7859293  90.6428877 103.3576807  69.0922778
  90.2148557 103.9288691  71.1079780  90.1779007 102.8812521  71.4066968
  89.9893971 104.9387141  72.0583814  89.7171971 104.6744717  73.0802342
  87.4019091 107.2904381  72.5881343  87.0431466 106.9353436  73.7374203
  86.7229774 106.8194665  71.5356541  87.0327216 107.0788810  70.6099857
  85.5433422 105.8962453  71.6597113  85.3881736 105.6235225  72.7035715
  84.2131376 106.4655554  71.0921018  84.2843987 106.4310857  70.0049804
  82.9297523 105.6761090  71.5599412  82.8575560 105.7105309  72.6470032
  82.0419872 106.1330618  71.1227139  83.0017954 104.6385476  71.2337852
  83.9570189 107.9583462  71.4175369  84.7617428 108.5646570  71.0017142
  83.0071145 108.2679684  70.9817442  83.9217404 108.0942401  72.4984574
  85.7595991 104.5962654  70.8867228  85.4726323 104.3674295  69.7074085
  86.5113444 103.7283863  71.5423063  86.8527461 104.0420791  72.4396028
  86.8809589 102.3869956  71.0898682  87.4797577 102.5039097  70.1866129
  87.4907364 101.9378623  71.8738006  85.7118612 101.4732966  70.7909322
  84.6784492 101.5139316  71.4442340  85.8085354 100.6841920  69.7485435
  86.6938284 100.7185481  69.2635946  84.6917232  99.9283488  69.1237136
  83.9948883  99.6243915  69.9048220  83.9454166 100.7377614  68.1036221
  83.8360186 101.7715353  68.4314069  84.4546417 100.7145916  67.1401633
  82.6710404 100.1483009  67.9755803  82.1560838 100.6366681  67.3291153
  85.0927884  98.5358231  68.5983299  86.1270155  98.3706672  67.9599571
  84.2010564  97.5856829  68.8074818  83.4515954  97.7779121  69.4566779
  84.2491627  96.2408653  68.1596729  85.1847785  96.0828273  67.6232530
  84.1542699  95.2125641  69.2923891  84.9820979  95.4173481  69.9712584
  83.2103415  95.3977463  69.8050360  84.2131203  93.7355627  68.8392749
  83.4302726  93.6189978  68.0898331  85.1877387  93.6032335  68.3694771
  84.0307923  92.6940878  69.9264329  83.6415663  91.8008058  69.4379153
  85.0233403  92.4858532  70.3259154  83.1390373  93.0480624  71.0409772
  82.9114795  94.0307026  71.0932747  82.4585069  92.1960518  71.8072371
  82.6245295  90.9236901  71.6845253  83.2766787  90.5661835  71.0011583
  82.1016793  90.2902682  72.2723212  81.8139404  92.6576302  72.8337290
  81.8358938  93.6467262  73.0369709  81.2930885  92.0258008  73.4250018
  83.1494566  96.0605405  67.1940397  83.3949106  95.3707809  66.2305761
  81.9906960  96.6808946  67.3647461  81.8238213  97.2189584  68.2030417
  80.8857583  96.5501212  66.3800527  80.9839185  95.6118974  65.8339760
  79.5117998  96.5597095  67.1085493  79.5084731  97.4197374  67.7782060
  78.8093681  96.7321115  66.2930940  79.0981815  95.3171751  67.8785657
  78.6738368  94.6293369  67.1471896  80.2266955  94.6095666  68.6545846
  80.6512487  95.2966802  69.3865192  79.8234484  93.7365451  69.1677375
  81.0044620  94.2944358  67.9589753  78.0742588  95.6621209  68.9862406
  77.1856254  96.1039830  68.5354767  77.7964750  94.7536396  69.5206553
  78.5183764  96.3720737  69.6839695  80.8902949  97.6642979  65.2618677
  79.9971544  97.6102148  64.3866208  81.8846140  98.5775857  65.2748662
  82.4420138  98.6567913  66.1133955  82.1968871  99.4494774  64.1551840
  81.8801153  98.9109426  63.2620239  81.5740767 100.3345205  64.2852048
  83.6245815  99.8777854  63.9862993  84.5005684  99.5046074  64.7401063
  83.8135745 100.9053975  63.2476816  83.1002772 101.1409494  62.5725360
  85.0400081 101.7482641  63.3021379  85.9378091 101.1416958  63.1832790
  84.9720737 102.7601334  62.1415956  83.9522527 103.1381018  62.2137359
  85.6743779 103.5792023  62.2964985  85.1951471 102.1508274  60.7473196
  85.2859884 102.9644642  59.7623084  85.2063820 100.9383420  60.4509857
  85.1356054 102.4730607  64.6843753  84.1784699 103.1054924  65.0729519
  86.2828857 102.4796361  65.3969970  87.0448572 101.8776922  65.1192160
  86.4915956 103.3947653  66.5522409  85.6510858 103.2776659  67.2362952
  87.7829281 103.1276344  67.3170045  88.6456110 103.3447689  66.6871394
  87.8241043 103.7452735  68.2141814  87.7996451 101.7451675  67.6885847
  88.6062117 101.5536860  68.1727181  86.6298353 104.8956637  66.1176895
  87.1928036 105.1081515  65.0899820  86.2438700 105.8963623  66.9380047
  85.7645763 105.6917317  67.8031654  86.4993951 107.2611636  66.6131380
  86.9457012 107.3276118  65.6209210  85.1438741 108.0979445  66.6186633
  84.7789183 108.0489027  67.6445782  85.4361908 109.1219445  66.3861234
  84.0181379 107.6475784  65.6466950  84.2486601 107.8663233  64.6040488
  83.8598915 106.5757601  65.7661341  82.7388496 108.3713608  66.0225200
  82.2365078 108.2072524  67.1192772  82.1508726 109.2212639  65.2285574
  81.3000334 109.6783104  65.5239939  82.5487909 109.4189034  64.3215287
  87.4398184 107.8455502  67.6294083  87.5186047 107.3521911  68.7353936
  88.1832204 108.8727782  67.1699333  88.6048793 108.8558488  66.2523188
  88.5262715 109.9968652  68.0836425  88.4427695 109.6910618  69.1265283
  90.0208748 110.4219683  67.8004428  90.6456146 109.5288079  67.7924430
  89.9614287 110.8321901  66.7923335  90.6161049 111.4350849  68.7135719
  89.8748903 112.1872497  68.9836641  91.0837920 110.6973871  69.9815749
  91.8254134 109.9453236  69.7123222  91.5268431 111.4116801  70.6755433
  90.2306738 110.2121846  70.4557775  91.8367493 112.0233088  68.0764455
  91.5623590 112.4990885  67.1349345  92.2738819 112.7656612  68.7442248
  92.5638713 111.2339988  67.8857038  87.4837468 111.1576776  67.9705813
  87.0368177 111.5039478  66.8622107  87.0933405 111.7155517  69.1382531
  87.5219045 111.4343062  70.0085020  85.9262179 112.7163701  69.1900351
  85.7406983 113.3380723  68.3141538  84.6107797 112.0153586  69.5842004
  83.8004454 112.7353602  69.4699413  84.3233251 110.7919315  68.7343786
  85.1330572 110.0712271  68.8484838  83.3857342 110.3380695  69.0553661
  84.2443624 111.0862457  67.6878387  84.2525685 111.6571126  71.0796001
  84.2221782 112.5695732  71.6750782  83.2784998 111.1691180  71.1135269
  85.0093837 110.9849769  71.4840321  86.2212976 113.8785443  70.1314590
  86.5323093 113.6034433  71.3240164  86.1693037 115.0904988  69.6594294
  85.9165150 115.2438799  68.6936802  86.3376632 116.2917507  70.5531783
  87.0563738 116.0773865  71.3441285  86.8588272 117.4782640  69.7235837
  87.5677304 117.1539761  68.9617485  86.0433705 118.0256831  69.2508652
  87.5780837 118.3994357  70.7384506  86.8618415 118.6025626  71.5345897
  88.4136342 117.8259200  71.1397450  88.0904462 119.7106784  70.1729453
  88.5316244 120.2652199  71.0011629  88.8656645 119.4645548  69.4473013
  87.0159317 120.5683427  69.5000200  87.4910650 121.3320134  68.8842635
  86.3850104 119.9378598  68.8734988  86.2050062 121.2038520  70.5154340
  86.7893725 121.7884555  71.0958258  85.4951763 121.7704075  70.0735557
  85.7643080 120.4963857  71.0858510  84.9748652 116.7828897  71.0706125
  84.1517807 117.1918183  70.2127515  84.7947065 116.7434717  72.4050929
  85.3837855 116.0737857  72.8790190  83.7888383 117.4433786  73.1796828
  82.7834732 117.1265493  72.9022671  84.0307161 117.0837170  74.7060051
  85.0583775 117.4206170  74.8420551  83.3640311 117.6998500  75.3093385
  83.9115188 115.6295685  75.1427547  84.7173258 115.0294118  74.7201581
  84.0123136 115.6209071  76.6160162  83.2065050 116.2205205  77.0393780
  83.9322599 114.5966622  76.9801791  84.9726805 116.0391375  76.9174780
  82.6478150 114.9862107  74.6205109  82.6477655 115.0161451  73.5309223
  82.6021265 113.9498058  74.9549936  81.7807449 115.5279665  74.9983853
  83.7103998 118.9298892  72.9328878  84.6528030 119.5622824  72.4784112
  82.5378425 119.4568706  73.2231860  81.8285574 118.7632863  73.4128035
  82.1342692 120.8511894  73.1425899  82.9487768 121.5125855  73.4379401
  81.7589912 121.1547545  71.6684838  81.3105933 120.2273737  71.3121087
  81.0157777 121.9515672  71.6397899  82.8773613 121.5174991  70.7659991
  83.8056594 122.2228596  71.1059801  82.8448458 121.1230852  69.5272504
  83.6016528 121.3646127  68.9035458  82.0629381 120.5770819  69.1946823
  81.0801278 121.0803527  74.2121697  80.1582502 121.8872320  74.0744984
  81.1064670 120.3268357  75.3090888  81.9214869 119.7456818  75.4436326
  79.9586357 120.1840813  76.2773107  78.9901784 119.9929656  75.8150720
  80.2198363 119.0837661  77.3698717  81.1182553 119.3366065  77.9329119
  78.9875042 119.0130858  78.3511289  78.0887307 118.7598186  77.7888452
  79.1686788 118.2503398  79.1084233  78.8520458 119.9801745  78.8353726
  80.6221328 117.6900883  76.7950900  81.5399135 117.7868694  76.2150779
  80.7834976 116.9909217  77.6155942  79.8244240 117.3174920  76.1524911
  79.5211659 121.5113547  76.9640847  78.3027910 121.7261158  77.0663849
  80.4749494 122.3498789  77.2000322  81.4047335 121.9843686  77.0516975
  80.3400231 123.6412339  77.8281175  79.3066031 123.7963982  78.1380632
  81.2467096 123.7295198  79.0732437  82.1850827 123.4011062  78.6263662
  81.3675998 124.7368208  79.4717789  80.8583820 122.7710422  80.2120990
  79.7244590 122.9076750  80.6625512  81.7525738 122.0739987  80.7147930
  80.4911520 124.7826394  76.7925296  80.6038109 125.9374931  77.1816800
  80.2382969 124.6176105  75.4969653  80.5314025 123.7061794  75.1752794
  79.7058065 125.5393595  74.5354157  80.2722796 126.4693743  74.5831627
  79.7851010 124.9919919  73.1112520  80.7857098 124.6172915  72.8956575
  79.0586601 124.1930743  72.9625434  79.4839884 126.0793042  72.2324618
  79.5233284 125.7756800  71.3225912  78.2821047 125.9978952  74.7689630
  77.3817103 125.1659737  74.9518412  78.1224631 127.3029451  74.5842976
  79.0045339 127.7927427  74.6306526  76.9056413 128.0859447  74.4797725
  76.0704783 127.4653269  74.8044807  76.9261309 129.3729923  75.3347968
  77.3908023 130.2346431  74.8554874  75.8566239 129.5521374  75.4450783
  77.5219798 129.2028169  76.6882684  77.1127446 128.2897913  77.3473040
  78.5519768 129.8476734  77.1342239  78.8902344 129.6685909  78.0688956
  79.0125146 130.5268615  76.5454037  76.4678885 128.4168899  73.1001346
  75.4108053 129.0195005  72.9862064  77.1494317 127.9284982  72.0619909
  77.8442420 127.2146911  72.2287762  76.9212311 128.3913696  70.6337078
  75.8838819 128.6681395  70.4455478  77.8314124 129.6888846  70.4732121
  77.5002776 130.1281112  69.5321866  77.5250674 130.3294204  71.3002349
  79.3784535 129.5573375  70.4664990  79.7729527 129.3396865  71.4590207
  79.6206463 128.7362790  69.7917363  79.9916121 130.8224209  69.9526413
  80.8753508 130.7006938  69.0464977  79.5950998 131.9625897  70.3647276
  77.2999143 127.4011096  69.5448391  76.8948847 127.5727096  68.3836692
  77.9464772 126.2893616  69.7717903  78.4310427 126.2109213  70.6544809
  77.9830682 125.1600961  68.8657012  78.2557366 125.4832595  67.8610537
  79.0121873 124.1816189  69.3504869  78.9114333 124.0665917  70.4297073
  78.8432550 123.2200421  68.8657891  80.4552991 124.6903286  69.0122096
  80.4697631 125.6640861  69.5017889  81.2303560 124.0562477  69.4427096
  80.7494771 124.8832345  67.5495570  80.6425127 123.9153905  66.7682154
  81.2301858 125.9882133  67.1267025  81.4241007 126.1073982  66.1426835
  81.4141536 126.7376518  67.7783152  76.6178971 124.4749898  68.8743128
  75.9374050 124.4820792  69.9096385  76.1487340 123.8174502  67.7938603
  76.7166266 123.8228353  66.9586547  74.9173162 123.1259481  67.7619855
  74.1879789 123.7706906  68.2523664  74.6531129 123.0134579  66.7104904
  74.8953205 121.7765032  68.4180774  74.1878274 121.5354958  69.3831893
  75.7005525 120.8714625  67.9271692  75.9134448 120.9785976  66.9456916
  76.2528378 119.6978663  68.6411888  75.4826214 119.1568271  69.1908636
  76.8347497 118.7581960  67.5454766  77.1531246 117.8369315  68.0333377
  76.0346752 118.5368890  66.8390743  77.9061268 119.3157702  66.8689057
  78.2244156 118.6965880  66.2079174  77.2893224 119.9288577  69.7074696
  78.1760618 120.8190754  69.6131583  77.3819344 118.9944078  70.6213254
  76.6410355 118.3105308  70.5623302  78.3079396 118.9620941  71.8487732
  78.8602506 119.8957326  71.9554075  77.4194499 118.7760806  73.0807745
  76.9390146 117.8272690  72.8419487  77.9633928 118.6809057  74.0205446
  76.3404170 119.8812938  73.2181307  75.0691794 119.6781762  72.7105744
  74.7591270 118.7274500  72.2768848  74.1750543 120.7400922  72.7678777
  73.2138098 120.6364777  72.2645142  74.5358755 121.9931289  73.3809937
  73.5811214 122.9934696  73.5825802  72.7064708 122.7447006  73.2748466
  75.8593416 122.1478571  73.8742794  76.1538276 123.0620538  74.3896654
  76.7777969 121.1267318  73.6963022  77.8299416 121.2937306  73.9269600
  79.5389346 118.0451455  71.8060001  80.2294105 117.9956730  72.7879067
  79.7541241 117.2949481  70.6800271  79.1681239 117.5119708  69.8865510
  80.7197618 116.1871357  70.5539745  81.7337953 116.4575486  70.8484438
  80.2767485 114.9468076  71.3797677  80.2895844 115.2403523  72.4294182
  78.9175824 114.4235701  71.0241315  78.9041028 114.1293700  69.9746719
  78.6862853 113.5589894  71.6463071  78.1727602 115.2013880  71.1924787
  81.1927996 113.6868902  71.4234627  82.1619960 113.9560928  71.8433322
  80.7285074 112.9208189  72.0444837  81.3295501 113.3012460  70.4131763
  80.8782961 115.8180785  69.1184771  79.8676250 115.4764839  68.4871578
  82.0450275 115.9481711  68.5697030  82.7175981 116.3868776  69.1823079
  82.3535922 115.8783101  67.1249549  81.5933016 115.2469698  66.6650996
  82.2917268 117.2885862  66.4698076  81.3668516 117.7734323  66.7822645
  83.4917185 118.1584272  66.8838611  84.4170019 117.6744204  66.5713086
  83.4144533 119.1356185  66.4071771  83.4948937 118.2822476  67.9668016
  82.3788803 117.1547830  64.8947311  81.5441043 116.5539265  64.5338674
  82.3350255 118.1455375  64.4424236  83.3176020 116.6726266  64.6219171
  83.4995534 114.9500800  66.7203711  84.5215782 114.9582174  67.3207002
  83.2870933 114.0676343  65.7295617  82.3407262 113.9132308  65.4123105
  84.3518974 113.2056954  65.1932052  84.7039733 112.5098412  65.9547358
  83.6586243 112.4264417  64.1158153  83.3083280 113.1087421  63.3413098
  84.3545478 111.7095363  63.6801120  82.8083483 111.8938122  64.5417681
  85.6536884 114.0143260  64.7661481  85.5936601 115.1912949  64.4290312
  86.8200050 113.4117610  64.9495821  86.8689291 112.4445154  65.2361858
  88.0892238 114.1177845  64.6317625  87.8698310 115.1592975  64.3967803
  89.0869869 114.0768593  65.8237893  89.0404612 113.0797918  66.2617287
  90.0866525 114.2522498  65.4262884  88.7817548 115.0993692  66.8765489
  88.9530296 116.0497208  66.3709822  87.7145640 114.9722996  67.0583709
  89.6580638 115.1010675  68.4580525  91.2397303 115.6779193  67.9177646
  91.1325407 116.6642037  67.4662643  91.9149750 115.7409706  68.7710932
  91.6481053 114.9846963  67.1823918  88.7293269 113.3594787  63.5438381
  89.4175796 113.9886124  62.7209013  88.6686436 112.0481406  63.5758850
  87.9322888 111.7061228  64.1766385  89.4778455 111.1179500  62.9281052
  89.5246647 111.3274117  61.8594458  90.9015022 111.2083041  63.5103728
  91.2525259 112.2355138  63.4117745  90.8629986 110.9377533  64.5655599
  91.8729827 110.2581995  62.7696893  92.7319424 110.2998569  63.4394309
  91.5936088 109.2180065  62.6022143  92.2369695 110.9111507  61.4310488
  93.2899412 111.5112973  61.2549905  91.3522925 111.0325594  60.5488024
  88.8113437 109.7493058  63.1818636  88.7070047 109.4048667  64.4084805
  88.4604131 108.9736967  62.1547656  88.5077749 109.3271315  61.2098106
  87.9189827 107.6095068  62.3689852  87.7316044 107.4634644  63.4327804
  86.6378107 107.5079777  61.6466776  86.8642488 107.6678093  60.5925050
  85.8911536 106.1767223  61.8132914  85.6639480 106.0164106  62.8672256
  84.9630467 106.2061739  61.2424592  86.5156574 105.3611707  61.4486390
  85.7309928 108.4879040  62.1360199  84.8985292 108.4180774  61.6630200
  88.9458734 106.5580948  61.9135149  89.8473895 106.7017022  61.0743011
  88.7047637 105.3636487  62.5019650  87.8173243 105.2308054  62.9655416
  89.7522109 104.2526562  62.6078329  90.5536047 104.4714173  61.9021342
  90.3505622 104.1128566  63.9910038  89.5515661 103.9457992  64.7133585
  91.0954624 103.3226402  64.0847156  91.0290485 105.3923259  64.3890032
  90.3392177 106.3067063  65.2287585  89.3597663 106.0833629  65.6517154
  90.9699974 107.5504244  65.5124909  90.4212479 108.2505170  66.1424474
  92.2905890 107.9083473  65.0015113  92.7585443 108.8587114  65.2582712
  92.9813173 106.9695055  64.1355866  93.9536738 107.1623944  63.6823573
  92.3096647 105.7289350  63.8887798  92.7863367 104.9635360  63.2763681
  89.0908298 102.9535920  62.1012589  88.2383536 102.4010595  62.8514709
  89.4078241 102.5261840  60.8924983  90.0854394 103.1094935  60.4227251
  88.7723819 101.4882054  60.1436095  87.6892495 101.6087179  60.1236013
  89.2754648 101.5096564  58.7548415  89.0082832 102.5026363  58.3933098
  90.7313828 101.2498333  58.4765906  90.9992129 100.2567842  58.8374508
  90.9125178 101.3068917  57.4032623  91.3384628 101.9973619  58.9872327
  88.5909879 100.5681855  57.9818513  88.9245972 100.5896118  57.0819368
  88.7941832 100.1278078  60.7860681  89.7358682  99.7982223  61.4316048
  87.7286519  99.3770064  60.7379694  86.9223937  99.7667100  60.2708740
  87.5769880  98.0721141  61.4360876  88.5631382  97.6244718  61.5594710
  86.9266648  98.2142369  62.8183827  87.5737263  98.8218497  63.4510101
  86.0281116  98.7789964  62.5698896  86.5236062  96.9807833  63.5853937
  87.2523880  96.0304064  63.5959254  85.4440861  97.0394010  64.2920685
  85.1443843  96.2313358  64.8186702  84.9047270  97.8930279  64.3147335
  86.8301042  97.0151586  60.5504045  85.6619984  97.2977010  60.1873171
  87.4130575  95.8698208  60.1971571  88.3960334  95.7505960  60.3962634
  86.7088451  94.7896270  59.4883500  86.1270507  95.1715532  58.6494538
  87.7597059  93.8656999  58.9599341  88.3480492  93.6352870  59.8481127
  87.2417165  92.9671440  58.6246964  88.7005308  94.3710314  57.8331713
  89.2794857  95.2239842  58.1872666  89.6299914  93.2607073  57.4529653
  89.0517462  92.4075077  57.0983080  90.2980991  93.6003967  56.6615464
  90.2178131  92.9646619  58.3218285  87.9699495  94.8791597  56.5772292
  87.3199181  95.7117331  56.8462647  88.7011524  95.2129503  55.8410041
  87.3706945  94.0731288  56.1537830  85.7376884  94.0656923  60.3814089
  84.6506161  93.7212338  59.9587872  86.0217914  93.7505212  61.6511564
  86.8955349  94.1227771  61.9948093  85.1756771  92.9093565  62.5944202
  84.9751842  91.9535129  62.1104112  85.7484500  92.7411452  63.5064155
  83.8249765  93.5826450  62.9627195  83.7211482  94.8034910  62.9143904
  82.8607042  92.8225191  63.3803167  81.6169826  93.2967943  63.9218014
  81.1016947  93.8462888  63.1339978  81.8508077  93.9740486  64.7432339
  80.8259946  92.0471331  64.3921406  79.9912218  91.8580213  63.7172405
  80.4475941  92.2035807  65.4023082  81.8620706  90.8782127  64.3595560
  81.4761082  89.8986412  64.0774715  82.3605077  90.8071472  65.3263082
  82.8375503  91.3688495  63.3101567  83.8335888  91.0371044  63.6033302
  82.4780971  90.7628703  61.9501112  81.4717629  91.0811490  61.3503745
  83.2685227  89.7648346  61.5071788  84.1589070  89.5447069  61.9300960
  82.9334376  89.1365919  60.2380208  82.2318092  89.6581352  59.5870144
  84.2458973  88.8772383  59.4747663  84.9023433  88.3296176  60.1509990
  84.0779237  88.0729912  58.1491794  83.4219292  88.6202433  57.4722105
  85.0523063  87.9376476  57.6797529  83.6419674  87.0981807  58.3677792
  85.0223163  90.2299507  59.2982114  84.5152741  90.8052368  58.5235793
  84.9692325  90.7692220  60.2439746  86.4767991  90.0311861  58.9102572
  86.5306859  89.4923513  57.9642905  86.9606697  91.0019814  58.8029031
  86.9846439  89.4563342  59.6846853  82.0285346  88.0008758  60.4178107
  82.3656366  86.8523177  60.7056223  80.7255054  88.2243411  60.2822415
  80.4092311  89.1507635  60.0336223  79.6806415  87.1356017  60.4875294
  79.8594518  86.5636939  61.3980498  78.3105675  87.8255519  60.6015256
  77.5163383  87.0790434  60.5965985  78.2676862  88.6026499  61.9091089
  79.0613912  89.3497130  61.9145818  77.3019241  89.0986304  62.0061005
  78.4089848  87.9170452  62.7446222  78.0623447  88.7858216  59.4152426
  78.0902366  88.2248855  58.4810719  77.0856902  89.2568259  59.5266001
  78.8358857  89.5536248  59.4006348  79.6549127  86.1310639  59.3024523
  79.2364684  84.9950795  59.5036860  80.0457292  86.5707839  58.1142168
  80.3109162  87.5431259  58.0484424  79.9653453  85.7820460  56.8700702
  80.4307445  84.8068187  57.0130199  78.4771519  85.5692206  56.4772565
  77.9014493  85.4075658  57.3885926  78.0783358  86.4324820  55.9445038
  78.3783285  84.3271065  55.5835824  79.2692968  83.4297096  55.5817181
  77.4077340  84.2135483  54.8094967  80.8352870  86.3902369  55.7301735
  80.8755133  87.6106778  55.6344303  81.4625218  85.6319967  54.8760662
  81.3076128  84.6398211  54.9841875  82.4233435  86.0835804  53.8461605
  82.0897048  87.0326688  53.4266185  83.8467975  86.2813720  54.4585300
  84.3457032  86.9314488  53.7397864  83.6546414  86.8359857  55.3769959
  84.7207396  85.1092889  54.7590770  84.1108270  84.3363048  55.2266269
  85.1263670  84.7328358  53.8200075  86.0479528  85.5288869  55.8355744
  86.8872063  83.8918417  55.6641374  87.1452900  83.7229846  54.6186810
  87.7947163  83.8832177  56.2678359  86.2174342  83.1021689  56.0046128
  82.5221121  85.1942779  52.6574502  82.4723906  83.9545556  52.7983274
  82.8832047  85.7738629  51.5371581  83.0695021  86.7663680  51.5190970
  82.9090436  85.0506643  50.2899604  82.9889734  83.9853045  50.5061059
  81.6324399  85.2896247  49.4276136  81.6705607  84.6722262  48.5301366
  80.7428623  85.0366829  50.0044777  81.3995156  86.9488001  48.8709042
  80.2659612  86.7174633  48.2148280  84.1582684  85.3658491  49.5142201
  84.6592668  86.5252885  49.6329922  84.7066376  84.4391675  48.7148914
  84.6637162  83.4625916  48.9689714  85.5876782  84.8339667  47.5957752
  85.8641383  85.8883023  47.6025251  86.8908287  83.9771334  47.5669214
  86.5946256  83.0105977  47.9745632  87.6026050  83.7700890  46.2373301
  87.8995428  84.7362218  45.8292662  88.4881842  83.1534216  46.3908600
  86.9304691  83.2721615  45.5384717  87.9390885  84.5186451  48.5899768
  87.5190860  84.4819667  49.5951408  88.8381061  83.9036261  48.5497453
  88.1927807  85.5488497  48.3401378  84.9203871  84.9353007  46.3063416
  84.1578903  84.0261627  46.0333658  85.1994448  85.9776354  45.5257168
  85.6698831  86.7628264  45.9526386  84.6413245  86.1494413  44.2005981
  84.5621686  85.1594649  43.7513986  83.2735912  86.8715073  44.0548443
  83.3735644  87.9248935  44.3165351  82.8330319  86.7502575  42.6140199
  82.7323861  85.6970881  42.3517118  81.8731063  87.2499371  42.4837753
  83.5754588  87.2161873  41.9660898  82.1795885  86.2985245  45.0076391
  82.5041191  86.4089595  46.0423304  81.2469430  86.8429761  44.8598409
  82.0221190  85.2426597  44.7875167  85.7610803  86.6850354  43.3071739
  86.2856371  87.8007856  43.5141347  86.1261977  85.9270706  42.2908927
  85.9466176  84.9393032  42.4011919  86.9542642  86.3793367  41.1027163
  87.7758456  87.0266412  41.4094738  87.5439406  85.1052412  40.4575865
  87.9392617  84.4609795  41.2429192  86.8174057  84.5500503  39.8642821
  88.6714787  85.5639078  39.5696931  89.1860853  86.7294093  39.6677512
  89.1019960  84.7922783  38.6600614  86.3078366  87.3620905  40.0682370
  85.8925818  86.9601007  38.9448062  86.1465259  88.5960422  40.5230083
  86.6229306  88.8704883  41.3702493  85.3292252  89.6410159  39.7865359
  84.2807666  89.3618901  39.6820256  85.4197598  90.9012747  40.6909370
  86.4366639  90.7514114  41.0536299  85.3416741  91.8837986  40.2254807
  84.4306746  90.8131421  41.8782071  84.2256144  89.7550433  42.0409280
  84.9345696  91.4360037  43.1705655  85.1394214  92.4942795  43.0087422
  84.1766453  91.3276569  43.9463957  85.8493734  90.9332072  43.4843011
  82.9675271  91.2126136  41.5824100  82.5625449  90.5625054  40.8068792
  82.3718537  91.1099593  42.4894583  82.9346454  92.2475546  41.2419470
  86.0301446  89.9107259  38.4198858  87.2198676  90.1402529  38.3172185
  85.2021523  89.8156696  37.3253266  84.2684322  89.5197039  37.5716403
  85.5693607  89.8820348  35.8627085  84.6500483  89.8893543  35.2771231
  86.4167606  91.1634338  35.4888287  87.4111178  91.0565792  35.9223435
  86.4981248  91.2171006  34.4031953  85.7596600  92.4574522  36.0204725
  84.7258446  92.5395014  35.6849213  85.7805951  92.3253747  37.1022379
  86.5139430  93.7236368  35.6504365  87.7636989  93.7649768  35.8791944
  85.9728132  94.6754291  35.0550913  86.1704765  88.5802355  35.3314499
  86.7868454  88.6135410  34.1958672  86.1065454  87.4387199  36.0475406
  85.4624649  87.4352710  36.8255173  87.0142618  86.3095083  35.8975464
  87.0879243  85.7617628  36.8370398  86.4825202  85.3404571  34.7956120
  86.4588279  85.8360654  33.8250913  87.1063512  84.4488526  34.7325542
  84.9952600  84.9222061  35.2174844  84.8531451  84.9759822  36.2968417
  84.2474229  85.5411798  34.7217897  84.8473969  83.5050168  34.7657988
  84.9614151  83.5109742  33.6817954  85.6704985  82.9486040  35.2141380
  83.6253390  82.8532247  35.0920922  82.8527906  83.4537046  35.3424766
  83.4173722  81.5444295  35.0362352  84.4518739  80.7253598  34.7518588
  85.3689698  81.1143201  34.5852902  84.3041736  79.7272289  34.7069248
  82.2310681  81.1042739  35.3193932  81.5013788  81.7551120  35.5725010
  82.0422816  80.1126536  35.2855178  88.4958196  86.6689770  35.7102526
  89.1688606  86.1604050  34.8537719  89.0318625  87.5612518  36.5667061
  88.3607569  87.9651348  37.2043542  90.3735180  88.1434584  36.5109386
  90.6430418  88.3631902  35.4778975  90.4127645  89.4638188  37.3252268
  89.4617783  89.9602439  37.1321292  90.4602685  89.1655749  38.3725538
  91.5270553  90.3967825  37.0259663  91.6458309  91.1738893  37.7810148
  92.3899651  89.7313176  37.0513658  91.4599033  91.0711857  35.6241336
  90.6208638  90.7541514  34.8056209  92.2411348  92.0817020  35.4134510
  92.2285648  92.5476382  34.5174338  92.8595293  92.3993982  36.1460892
  91.5275075  87.1645229  36.8122001  92.6410536  87.5083383  36.4305036
  91.2303842  85.9713532  37.3487769  90.2610825  85.7349384  37.5058168
  92.2655209  84.9787119  37.7237347  91.8350453  83.9860148  37.5920441
  93.1059949  85.1032019  37.0409426  92.7595796  85.1143062  39.1380063
  93.6971349  84.4488739  39.6190593  92.1202430  85.9209647  39.9251942
  91.2478966  86.2674274  39.5522671  92.5468821  86.3987084  41.1804269
  93.0554285  85.6183932  41.7466319  93.5675162  87.5850503  40.9230461
  94.4105252  87.1613192  40.3772558  93.0538502  88.3098890  40.2914956
  94.0788968  88.2838945  42.1927858  93.4712420  89.1642869  42.4019882
  93.9007186  87.5296012  42.9592036  95.5538536  88.6863685  42.2366823
  95.9745414  89.3613057  41.2808206  96.3129867  88.4247504  43.2733471
  97.2832808  88.7051198  43.2684730  95.9238791  87.9440900  44.0718847
  91.4064419  86.8299793  42.0556849  90.8903389  87.9218804  41.8867623
  90.8949688  85.9183375  42.8185207  91.2843683  84.9958492  42.6862985
  89.8532378  86.0881336  43.8098924  88.9001158  86.0926473  43.2810850
  89.8950347  85.2256215  44.4750430  89.9653507  87.3589368  44.6392989
  91.0631981  87.6949954  45.0953621  88.8245085  87.9995465  44.9132024
  87.9541078  87.8300009  44.4297188  88.8542151  89.0854906  46.0025288
  89.8894020  89.1916116  46.3269139  88.3345832  90.4544752  45.5750212
  87.2488740  90.4185256  45.4853427  88.6124867  91.1975454  46.3224946
  88.9560897  90.8433261  44.2008193  90.0416101  90.8296334  44.1030499
  88.5210901  90.1133102  43.5182110  88.4589194  92.2051840  43.8253760
  88.2273273  93.0455356  44.6636840  88.4406444  92.5691661  42.5274507
  88.1064691  93.4862859  42.2679908  88.7612126  91.9230900  41.8203983
  88.0035407  88.4948741  47.1071704  86.9849326  87.8155376  46.8100014
  88.2581722  88.9107671  48.3673925  89.0641323  89.5094841  48.4772360
  87.4965096  88.5591827  49.5504020  86.9214803  87.6482916  49.3839155
  88.4797151  88.3151899  50.7085818  89.1857975  87.5346261  50.4252675
  89.0013561  89.2700420  50.7737609  87.8692324  87.9795329  52.0569787
  87.2116986  88.8105942  52.3121005  87.0779845  86.6636309  52.1173007
  87.7350143  85.8320029  51.8627317  86.6855044  86.5208917  53.1241203
  86.2513781  86.7032577  51.4078982  88.9100853  87.7287113  53.1535132
  89.5217549  88.6211908  53.2855744  88.4031869  87.4944882  54.0896194
  89.5466620  86.8918078  52.8663521  86.5414563  89.6888302  49.8801044
  86.9444575  90.8291111  49.9250760  85.2470849  89.3203104  50.1068109
  85.0403211  88.3545821  49.8953474  84.1566671  90.1923290  50.4418806
  84.5326263  91.1494754  50.8033008  83.2988895  90.4390108  49.2317622
  82.7849698  89.5116502  48.9788034  82.2689585  91.5382577  49.4873487
  82.7821736  92.4661115  49.7399325  81.6674061  91.6887954  48.5909260
  81.6214911  91.2451915  50.3137867  84.0448504  90.8653099  47.9664535
  84.7554209  90.0885622  47.6838677  83.3310362  91.0160729  47.1566143
  84.5804845  91.7955412  48.1558386  83.3280742  89.7871912  51.6618004
  82.6350696  88.7944278  51.7050707  83.5472156  90.5626442  52.6852122
  84.0435141  91.4309873  52.5446157  83.0650081  90.2314636  54.0759344
  82.8000634  89.1756061  54.1313282  84.1167450  90.5248114  55.1346631
  83.7182546  90.1545192  56.0792209  85.4942684  89.8972773  54.8797352
  85.8936293  90.2674776  53.9355095  86.1718908  90.1654353  55.6903019
  85.3968245  88.8126863  54.8321161  84.2583712  91.9552041  55.1880753
  84.9164397  92.1871962  55.8474127  81.8334216  91.0804161  54.4349071
  81.8312289  92.2792730  54.4150504  80.8940906  90.3894290  55.0375739
  80.7413068  89.4113400  54.8373280  80.0046945  91.0531602  56.0229233
  79.5577861  91.9436017  55.5807855  78.8572335  90.0792147  56.4548082
  79.2278484  89.2727020  57.0874858  78.0533033  90.6045661  56.9703683
  78.1140269  89.3005629  55.0533931  77.2321440  88.5835916  55.7441412
  80.7943497  91.4793063  57.2365028  81.7971580  90.8628000  57.6211747
  80.4854112  92.6767817  57.8243212  79.5637719  92.9510122  57.5153260
  81.2501465  93.6173311  58.6572508  81.7421656  93.0624076  59.4560476
  82.3448667  94.3886757  57.8331730  83.1690599  93.7327772  57.5528127
  81.9227257  94.8440762  56.9373452  82.8126092  95.3820930  58.6797148
  83.4899300  95.8927866  58.2302390  80.3713899  94.5857631  59.4413785
  79.2497018  94.9909472  59.1145043  80.8201025  94.9083344  60.6483693
  81.7122811  94.5425049  60.9488446  80.0664616  95.7880637  61.5841277
  80.6628839  95.9184977  62.4871042  79.9206335  96.7550997  61.1028015
  78.7309836  95.2242715  61.9594711  78.5123713  93.9908003  61.9324232
  77.8668034  96.0706625  62.5501807  78.2657215  96.9641079  62.8006184
  76.4846510  95.7733964  62.9845442  76.0650288  95.1891591  62.1655917
  76.4615866  94.9182692  64.2593499  76.8703790  95.4929780  65.0904327
  75.4348048  94.6317005  64.4867215  77.0631773  94.0221300  64.1072900
  75.5944872  97.0566575  63.1249658  76.1409296  98.1439097  63.4345175
  74.2754694  96.9231489  63.0162110  73.9314640  95.9891881  62.8445227
  73.2849396  98.0296333  63.1373015  72.2953406  97.6996238  62.8212530
  73.2115468  98.4617346  64.6225621  74.1822084  98.8476742  64.9339556
  72.4388164  99.1954968  64.8518671  72.9256239  97.2352133  65.4980035
  71.7276383  96.6166151  65.6035671  70.9014211  97.0090008  65.0106939
  71.5309651  95.5293374  66.4220724  70.5587370  95.0424947  66.4986057
  72.6222955  95.0461041  67.1724165  72.4927499  94.1746061  67.8141400
  73.9083971  95.7007070  67.0936154  74.7873147  95.3614418  67.6417971
  73.9918464  96.8142528  66.2687603  74.9189840  97.3849574  66.2157317
  73.7608907  99.2283669  62.2579731  74.0495059  99.0015677  61.0987883
  73.7788560 100.4542743  62.7546896  73.3967791 100.6083979  63.6768406
  74.2090447 101.6483032  61.9542324  73.6580987 101.7042014  61.0153857
  73.9122052 102.9194127  62.7764344  74.0296310 103.7857155  62.1254123
  72.8823673 102.8680920  63.1298463  74.8508681 103.0491902  63.9671366
  74.6696747 102.2340925  64.6677689  75.8850647 103.0104070  63.6250323
  74.5913096 104.4031790  64.6726418  74.3803369 105.1664597  63.9236478
  73.7359086 104.3044284  65.3409507  75.8360538 104.8130585  65.4879067
  76.2354661 103.9256079  65.9788261  76.5817739 105.2148315  64.8019190
  75.5027120 105.8365018  66.5109346  74.8120417 105.4642563  67.1469437
  76.3363952 106.0822235  67.0254180  75.1329895 106.6590788  66.0562133
  75.6460382 101.5073607  61.5111718  76.0019910 102.0369038  60.4788251
  76.4600317 100.7796377  62.2952054  76.1948055 100.6327872  63.2586313
  77.8714695 100.4381957  61.8812457  78.3015902 101.2370080  61.2770981
  78.6863140 100.2757925  63.0943408  78.3560150  99.3270173  63.5172207
  79.7060722 100.1723334  62.7235452  78.6442532 101.3612278  64.1788536
  77.6348034 101.3946006  64.5887294  79.3338059 100.9996985  64.9416857
  79.0498857 102.7243212  63.7513671  78.2389541 103.6527769  63.8428054
  80.2416148 102.8683148  63.3600443  78.0241502  99.3598901  60.8136565
  79.0730667  99.2431381  60.1545402  76.9332881  98.7137162  60.3475093
  76.0581722  99.0209649  60.7473465  76.9016796  97.6211142  59.3275448
  77.5235760  96.7968737  59.6767891  75.8737166  97.2770153  59.2135821
  77.4080082  98.0838168  58.0037115  76.9059028  99.0093743  57.3866908
  78.3294965  97.2329005  57.5614245  78.5940604  96.4967259  58.2002925
  79.0860330  97.3656887  56.2839325  78.4720088  97.8819691  55.5460111
  80.4073438  98.1880130  56.5015430  81.0099236  98.1305017  55.5950722
  80.1454536  99.2277310  56.6977572  81.1600583  97.6654495  57.6116265
  81.9613375  98.1816136  57.7261963  79.4223874  96.0908932  55.4839561
  79.2990125  95.0304174  55.9991365  79.9599434  96.2774483  54.2343687
  79.9117709  97.2196989  53.8738931  80.5180072  95.2799152  53.4180669
  80.6714005  94.3648783  53.9901482  79.5616520  94.9765716  52.2533411
  79.5078710  95.9695487  51.8070191  80.1036915  94.3073442  51.5851884
  78.1006716  94.4224712  52.4811946  77.5402723  95.1446527  53.0749179
  77.4135118  94.2054103  51.1950679  77.9731136  93.4829444  50.6009403
  76.4092446  93.8236749  51.3789871  77.3493989  95.1488985  50.6530163
  78.1165807  93.1441580  53.3359936  78.5606858  93.3615277  54.3073949
  77.0962613  92.7868846  53.4752967  78.7040874  92.3767351  52.8320126
  81.8667997  95.8078078  52.9520872  82.0479315  96.9815803  52.6291333
  82.8569554  94.8839357  52.9242629  82.7338659  93.9043366  53.1371803
  84.2210136  95.3924921  52.7572850  84.1728251  96.2925022  52.1442932
  84.8916608  95.7186645  54.0136121  85.1864921  94.7619853  54.4448180
  85.7827451  96.2799215  53.7324370  84.0595490  96.5478954  55.0840635
  83.8383397  97.5399221  54.6902994  83.1268464  96.0297832  55.3070604
  84.8693388  96.6776053  56.3358290  85.0036662  95.6861571  56.7683631
  85.8424457  97.0965408  56.0795957  84.2341082  97.5420720  57.3324073
  83.3497705  97.1680117  57.6456564  84.6395352  98.7008341  57.8253874
  85.8211400  99.2738800  57.6354339  86.5151240  98.8152716  57.0625773
  86.0211221 100.1660355  58.0645789  83.8596353  99.3569857  58.5879452
  82.9451609  98.9886781  58.8074588  84.1590302 100.2427760  58.9698314
  84.9550235  94.4171134  51.8831289  84.6550751  93.2029489  51.7720412
  85.8854745  94.9347692  51.0499618  86.2228356  95.8660092  51.2476456
  86.3646373  94.2514946  49.7896293  86.0824038  93.2010895  49.7182680
  85.7615718  95.0251585  48.6064856  86.0880259  96.0580529  48.7275526
  86.1352374  94.5351257  47.2146390  85.8086685  93.5023758  47.0926513
  85.6486965  95.1603360  46.4659797  87.2163038  94.5912595  47.0871884
  84.2539345  95.0724247  48.6813313  83.9104032  94.1420831  48.2290576
  84.0147047  95.0688720  49.7447484  83.5720367  96.2294348  48.0207861
  83.8104375  96.2333816  46.9571840  82.4936078  96.1385914  48.1505467
  83.9147411  97.1601712  48.4728737  87.9127949  94.1647430  49.7804418
  88.5356682  95.1587569  49.7071542  88.4886136  92.9873963  49.9372782
  87.8680134  92.2081323  49.7708384  89.8682437  92.7020007  50.3651605
  90.4191684  93.6424983  50.3718924  90.0680733  92.0000728  51.6652091
  89.6238462  91.0050469  51.6390136  91.6216431  91.8750581  51.8851758
  92.0665404  92.8697693  51.9119488  91.8156480  91.3653140  52.8289045
  92.0600995  91.3033984  51.0672147  89.3425018  92.7407692  52.8544748
  89.9722310  92.5838448  53.7302126  89.3446480  93.7984114  52.5908695
  87.8992522  92.2926741  53.1717796  87.8963676  91.2351727  53.4359431
  87.5123882  92.8763574  54.0070934  87.2687847  92.4497373  52.2965986
  90.5488735  91.8636992  49.2654353  90.3376338  90.6554109  49.0429150
  91.4634278  92.6069462  48.5602599  91.6969682  93.4989260  48.9724859
  92.1884857  92.1860976  47.3500395  91.8298056  91.2086215  47.0275675
  91.9719723  93.1711586  46.2316232  90.8960769  93.2139293  46.0621568
  92.3200412  94.1365213  46.5990779  92.6794449  92.8410976  44.9224867
  93.7455731  93.0365250  45.0377234  92.5265375  91.7863071  44.6941481
  92.1073176  93.7229210  43.7436243  91.0376967  93.5461305  43.6306853
  92.2807098  94.7791184  43.9497348  92.7945068  93.3641524  42.4528306
  92.3242128  92.6047733  41.9813793  93.9492387  93.8073247  41.9513973
  94.5088462  94.8501668  42.4595073  94.0711633  95.3272649  43.2346919
  95.3827064  95.1858996  42.0803617  94.5080589  93.3120018  40.8390982
  94.0502097  92.5645072  40.3373752  95.3846494  93.6883338  40.5073424
  93.6855881  92.2517593  47.6901893  94.1623125  93.1629416  48.3913566
  94.4549763  91.2464938  47.3198597  94.0019879  90.3858385  47.0475117
  95.9887561  91.2800728  47.3608699  96.3723735  91.2797137  48.3811330
  96.4378669  90.0302325  46.6824388  96.0696580  89.1700925  47.2416173
  95.9475629  90.0674828  45.7096519  97.9210131  89.8665895  46.4683751
  98.4643406  90.5621427  45.6666545  98.5415552  89.0238503  47.2127374
  99.5357184  88.8885714  47.0968111  98.0324562  88.5003786  47.9105171
  96.6874321  92.5473325  46.7318210  96.1411071  93.0843342  45.7749724
  97.8483821  92.9525046  47.3113119  98.1434657  92.3879381  48.0950782
  98.6683475  94.0647890  46.9276554  98.5957845  94.2830818  45.8622062
  98.1020327  95.2729945  47.7213070  98.1762447  95.0731474  48.7902569
  98.6747441  96.1681836  47.4789470  97.0569463  95.4271143  47.4527170
 100.1187973  93.8763075  47.2566783 100.4358236  92.9027512  47.8915826
 101.0111006  94.8071850  46.8089921 100.6644354  95.6316598  46.3397758
 102.4332033  94.6941036  47.0333189 102.9182554  93.8571788  46.5309440
 103.0365063  96.0057847  46.4981887 102.5671930  96.8528676  46.9984843
 104.1090544  96.0186678  46.6920309 102.8609594  96.0756855  45.4246914
 102.7471221  94.5920614  48.5926163 102.8859419  95.6209193  49.2679602
 102.9762315  93.3414995  49.0578958 102.7346284  92.6654253  48.3475079
 103.3080222  92.8565698  50.3845544 103.2405184  91.7695064  50.4273988
 104.7432874  93.2594752  50.6107183 104.8254185  94.3459351  50.5797440
 105.0734414  92.8982864  51.5847004 105.3700401  92.8258824  49.8314382
 102.2176349  93.3034125  51.3775843 102.5542989  93.8214761  52.4601329
 100.9650066  93.3300691  50.9781740 100.7009761  92.7181260  50.2192847
  99.9252336  94.2329623  51.5535329  99.8898315  94.2407968  52.6429293
 100.2013931  95.6301922  51.0717376 100.2307758  95.6402172  49.9821798
  99.4128619  96.2975204  51.4195764 101.1610295  95.9672073  51.4636791
  98.5915428  93.7082220  51.0928740  98.4418366  92.6903962  50.3613717
  97.5801392  94.4429998  51.5441106  97.7514661  95.1981171  52.1926044
  96.1669341  94.2423231  51.0312380  96.2051932  93.5910469  50.1580400
  95.2199208  93.6033318  52.0867705  95.3293384  94.2660593  52.9452106
  94.1785761  93.5955361  51.7648380  95.6428222  92.1852842  52.4800140
  96.7320308  92.1664057  52.4430144  95.1814319  91.7282539  53.8298159
  94.0922331  91.7464224  53.8674290  95.5338033  90.7126716  54.0101706
  95.5820358  92.3926227  54.5954731  95.2222335  91.1565392  51.3999353
  95.6958945  91.4103966  50.4516205  95.5356639  90.1585573  51.7063578
  94.1389082  91.1760867  51.2810939  95.4433484  95.5471281  50.7057147
  95.3693723  96.4158813  51.5780596  94.8996170  95.7287797  49.4978352
  95.3002267  95.2142260  48.7265728  93.8923946  96.7465067  49.2032546
  94.1568784  97.6444547  49.7616782  93.7615716  97.1189540  47.6921761
  94.7567125  97.5478379  47.5744799  93.5870484  96.3857292  46.9047606
  92.7761254  98.2429677  47.4628484  92.5381812  99.3602733  48.2967859
  91.8026847 100.2254794  47.5864043  91.4002154 101.0900079  48.1143324
  91.6972786  99.8574776  46.3313962  91.3506238 100.4056345  45.5571518
  92.1511794  98.5603569  46.2403250  91.9899885  97.9894837  45.3258730
  92.5738780  96.4099170  49.8002900  92.0138255  95.2989002  49.6286513
  92.0637794  97.4105619  50.4674454  92.5886462  98.2666822  50.5754833
  90.7490643  97.3192833  51.0996657  90.1205250  96.4915714  50.7711379
  90.9863684  97.2131422  52.6455695  91.4528513  98.1397005  52.9802094
  89.6897769  96.9899722  53.4164447  89.2229192  96.0632950  53.0826575
  89.9071453  96.9232450  54.4824650  89.0111178  97.8236220  53.2360314
  92.0205028  96.1654707  52.9808327  91.8630869  95.3917936  52.2293376
  92.9706844  96.6655273  52.7932219  92.0461624  95.5250929  54.3769509
  91.0964167  95.0244138  54.5651089  92.8562890  94.7976942  54.4287710
  92.2040120  96.2981484  55.1289937  89.7747379  98.4791283  50.8426528
  90.1798656  99.5910075  51.0824573  88.5364100  98.1394480  50.4463735
  88.2998902  97.1591848  50.3894363  87.4720274  99.1681279  50.0482663
  87.8850111 100.1706172  50.1603333  87.0144132  98.9848101  48.5899008
  86.8594027  97.9164208  48.4395171  86.0630016  99.5071394  48.4894611
  88.0122811  99.5178245  47.5252730  88.1567957 100.5768556  47.7389771
  88.9493831  98.9843788  47.6845764  87.5620237  99.3442707  46.0457287
  88.3526038  99.7400069  45.4081749  87.4432144  98.2774197  45.8564861
  86.2997675 100.0265038  45.7110148  86.3916196 100.9990149  45.9676950
  85.2345367  99.6537585  45.0124804  84.9513975  98.4227468  44.6573362
  85.5715677  97.6696604  44.9187742  84.1146038  98.2340073  44.1241819
  84.2953486 100.5439405  44.8567257  84.4033462 101.4634395  45.2604064
  83.4639606 100.3100856  44.3330801  86.2657748  98.9931205  51.0225456
  85.9310248  97.8548805  51.2914268  85.5668773 100.0762067  51.4368069
  85.7837038 101.0143857  51.1320024  84.4188308  99.8833089  52.3915162
  84.1512689  98.8403686  52.5611790  84.8769757 100.5029835  53.7380943
  85.2027101 101.5135637  53.4916695  83.8450700 100.5603200  54.8956806
  83.5191984  99.5500015  55.1429936  84.3056796 101.0175486  55.7713974
  82.9844841 101.1537397  54.5868997  85.9949499  99.8423305  54.2682512
  86.2462493 100.2542279  55.0981847  83.0370328 100.5316865  52.0309270
  82.9568780 101.7676266  51.8704831  82.0138092  99.7270697  51.8500918
  82.2070741  98.7374507  51.7917639  80.6299657 100.1734075  51.6957106
  80.5713116 101.2054625  51.3499918  79.9063005  99.2734150  50.6807662
  79.8035476  98.3041428  51.1686723  78.5097418  99.7533264  50.1795419
  78.6117686 100.7223951  49.6910776  78.1095197  99.0295175  49.4695959
  77.8304082  99.8439847  51.0271199  80.7656583  99.0787825  49.4573618
  81.7066116  98.6095105  49.7445773  80.2443829  98.4399469  48.7444378
  80.9681540 100.0459794  48.9973330  79.7625866 100.1948173  52.9791113
  79.6380889  99.1144535  53.6199148  79.1850166 101.3161447  53.4064973
  79.6493391 102.6515707  52.9439110  79.4079847 102.7874819  51.8896925
  80.7264175 102.7427713  53.0842090  78.8591423 103.5972587  53.8553566
  77.8765353 103.8338674  53.4471912  79.4015223 104.5215577  54.0543460
  78.7465871 102.7362730  55.1360848  77.9347459 103.1435728  55.7386790
  79.6538519 102.6833416  55.7378891  78.3762966 101.3584582  54.6397368
  78.6973637 100.5408986  55.2851905  76.8401143 101.2189114  54.3443055
  76.2132698 101.9382257  53.5708820  76.2392898 100.1752552  54.8228800
  76.7877235  99.5223177  55.3641678  74.7709734  99.9341221  54.6988647
  74.4573529 100.1294416  53.6733933  74.4177494  98.5079006  55.0482155
  74.6940728  98.4277555  56.0995582  73.3524595  98.3058844  54.9366498
  75.2304973  97.4741914  54.2189024  76.2926718  97.6195061  54.4158025
  74.8400462  96.0742072  54.5915929  73.7780285  95.9279827  54.3945250
  75.4197259  95.3652196  54.0004849  75.0383344  95.9109460  55.6508983
  75.1868299  97.6126949  52.6951681  75.5772196  98.5887959  52.4072062
  75.7950138  96.8303521  52.2411269  74.1571157  97.5177087  52.3505450
  73.8897700 100.7427268  55.6865661  72.7688983 101.0612023  55.3078658
  74.3507696 100.9498289  56.8972850  75.2606155 100.5225084  56.9956558
  73.6828833 101.5061926  58.1338885  74.3742653 101.4805400  58.9761663
  73.2640461 102.9472689  57.8930496  72.5153661 102.8438867  57.1076264
  72.7845951 103.2961497  58.8076583  74.3198741 103.9543490  57.4579258
  75.0415122 104.6601181  58.4398985  74.9203232 104.3129834  59.4660126
  75.8745085 105.7452916  58.1641874  76.2285295 106.3834546  58.9738287
  76.1044837 106.1258401  56.7940239  77.0055321 107.1113947  56.4684030
  77.4384552 107.4923079  57.2359200  75.5127863 105.3191084  55.7968543
  75.7932545 105.5162003  54.7621598  74.5650793 104.2610700  56.1038723
  74.0641588 103.7269113  55.2964980  72.5843017 100.6199846  58.7297701
  71.7195124 101.1266396  59.4670579  72.6190752  99.2720443  58.5031565
  73.2927015  99.0753587  57.7767670  71.8521068  98.1240441  59.0922143
  71.5916848  98.3379331  60.1288102  70.5325583  97.8995606  58.2811460
  69.9984844  97.0729692  58.7497726  69.9388661  98.8097348  58.3660730
  70.7755814  97.5720501  56.7609520  71.3565603  98.3894676  56.3338769
  71.3628889  96.6543491  56.7294258  69.5160795  97.3866676  55.9678983
  69.5520934  96.5370445  55.1281099  68.4999886  98.0841704  56.2025301
  72.7051763  96.8275117  59.0868108  73.7234509  96.6785728  58.3941376
  72.3484549  95.7904060  59.8822004  71.4504721  95.8693899  60.3377087
  73.1985359  94.5745289  60.1785382  74.2193097  94.8856533  60.4006226
  72.6488987  93.8102866  61.3807485  71.6434694  93.4737579  61.1278458
  73.2907405  92.9446746  61.5446234  72.6016640  94.5942340  62.5626331
  72.2497973  94.0661818  63.2830153  73.2930582  93.6228159  58.9500424
  72.2842194  92.9493750  58.7276384  74.4934374  93.5229045  58.2511085
  75.6828806  94.3012334  58.3858679  75.9823834  94.3057599  59.4339031
  75.4731376  95.3213052  58.0640600  76.7196913  93.5940399  57.4727194
  77.3122545  92.8834511  58.0489412  77.3809013  94.3265615  57.0097779
  75.8729991  92.8902387  56.4263059  76.3906084  92.0054969  56.0556153
  75.5431601  93.4974488  55.5833339  74.6715491  92.4731525  57.2689766
  73.8125731  92.4317732  56.5992407  74.7988510  91.1258958  58.0300184
  75.6435253  90.9988368  58.8953866  74.0416652  90.1135932  57.5717999
  73.4673460  90.2465496  56.7516905  73.9521183  88.8233055  58.2887379
  74.4318037  88.8846896  59.2655864  72.4132250  88.4833368  58.4988654
  71.9040154  88.6333008  57.5468593  72.3382949  87.4354113  58.7892750
  71.7487993  89.3698201  59.5858258  72.1715535  89.1727291  60.5709831
  71.8531188  90.4292297  59.3515807  70.2810543  88.9943025  59.5821703
  69.7546819  89.7243773  60.1970050  69.9276764  89.0642106  58.5534156
  69.9722587  87.5947036  60.1118329  69.4548697  86.9543487  59.5267231
  70.3105390  87.2098611  61.2985400  70.8990847  87.9103081  62.2037333
  71.1442377  88.8715886  62.0141554  71.1130094  87.4953885  63.0993770
  70.1111064  86.0287719  61.6695100  69.6818046  85.3694399  61.0362001
  70.3807427  85.7425382  62.5998138  74.6824939  87.6897126  57.5845848
  75.3919694  86.9901450  58.3053946  74.5774645  87.5008389  56.2279550
  74.3908546  88.3565157  55.7248713  74.9670862  86.2833577  55.4412698
  75.8214809  85.8058756  55.9209779  73.8030414  85.2523245  55.3575735
  72.8535682  85.7814548  55.2762035  73.9411306  84.6180639  54.4819338
  73.7970912  84.3652190  56.6487952  73.8657236  85.0607971  57.4851931
  72.8244243  83.8735198  56.6647024  74.9335702  83.2833051  56.7720346
  74.8834337  82.6195353  55.9089037  75.8999517  83.7872861  56.7865042
  74.7623989  82.4479968  58.0817771  74.7121519  83.1354778  58.9261383
  73.8302367  81.8870426  58.0146714  75.8919339  81.5074001  58.2771986
  76.7557439  82.0270235  58.3398366  75.7509724  80.9845383  59.1297508
  75.9384066  80.8700034  57.4951086  75.0168979  86.6385969  53.9196086
  74.2615424  87.5274702  53.5034352  75.9602894  86.0582939  53.1005488
  76.4951523  85.2793021  53.4571899  76.2872688  86.5733497  51.7702346
  75.5219291  87.1679121  51.2713862  77.5775592  87.4586567  51.9966157
  77.3181628  88.2506385  52.6991672  78.7874161  86.6398989  52.5575691
  79.0477083  85.8479646  51.8552951  79.6432947  87.3013282  52.6920457
  78.5151685  86.1992867  53.5166527  77.9132093  88.1968337  50.6572043
  78.2279999  87.4448713  49.9336298  77.0007230  88.6786593  50.3060458
  79.0258406  89.2557775  50.8156111  79.9388388  88.7745953  51.1663214
  79.2136323  89.7329154  49.8537520  78.7115624  90.0083824  51.5387397
  76.4598079  85.3659574  50.7607079  76.7834520  84.2406796  51.1567550
  76.0920739  85.6448692  49.5008151  75.6581309  86.5452830  49.3557364
  76.2149271  84.7323732  48.3456159  77.1130576  84.1280831  48.4732648
  75.0066033  83.7917934  48.1966390  75.0969782  83.1329696  47.3329938
  74.8320450  83.1947554  49.0917228  73.4580201  84.7833318  47.9285292
  72.6380558  83.7397739  47.8416741  76.4030714  85.5876119  47.0782018
  76.0010342  86.7003298  46.9350792  76.8120007  84.9582652  45.9699485
  77.0373526  83.9791094  46.0727579  77.0072444  85.5711854  44.6844144
  76.5254416  86.5452806  44.6001310  78.5039240  85.7634336  44.5970088
  78.7595688  86.5333926  45.3249567  79.0150767  84.8359872  44.8552066
  78.9316166  86.2050901  43.2337492  79.3923331  85.2598008  42.3097901
  79.4155013  84.2030696  42.5760265  79.8228672  85.6716243  41.0450543
  80.1458645  84.9020248  40.3439899  79.7583669  87.0279325  40.6301787
  80.2131460  87.3724868  39.3964432  80.5519197  86.6244714  38.8991455
  79.3127302  87.9584911  41.5739269  79.2707628  89.0075081  41.2808353
  78.9297472  87.5793780  42.8533570  78.6241077  88.3349265  43.5771187
  76.4555909  84.7632531  43.5328394  76.4637677  83.5908030  43.5383828
  75.9429691  85.4304763  42.5165648  76.0250522  86.4371106  42.5095549
  75.2013569  84.8054014  41.4713190  75.4654646  83.7530412  41.3669915
  73.6920101  84.9049361  41.8627908  73.5801522  84.5147335  42.8743880
  73.4086795  85.9573417  41.8464710  72.7742456  84.1067407  40.8956769
  72.9290748  84.4049362  39.8587545  73.0364498  83.0553687  41.0138626
  71.2601883  84.2870210  41.2470494  70.5725602  85.1244984  40.6616707
  70.6345317  83.5121547  42.1414056  69.6554795  83.6629727  42.3384138
  71.1443535  82.7802020  42.6151443  75.5098946  85.4281667  40.0958653
  75.0601088  86.5015599  39.6901105  76.4636612  84.6534989  39.4287288
  76.8606291  83.8578972  39.9078256  77.0572854  85.0682451  38.2011695
  77.6343957  85.9794578  38.3584411  78.0137878  83.9591712  37.6565611
  78.8306258  83.8220585  38.3651335  77.4540806  83.0284825  37.5635758
  78.5939930  84.3570247  36.2662609  77.8234310  84.0779804  35.5476029
  78.7741498  85.4303768  36.2066119  79.9054124  83.5938422  35.9405180
  80.6226312  84.0386497  34.9682030  80.1455386  82.5455334  36.5990960
  76.1048814  85.5961672  37.1925671  76.2171101  86.7048046  36.7181939
  75.0553541  84.7904937  36.9031409  74.7984360  84.0459532  37.5354003
  74.1739715  85.0619958  35.7413107  74.6684641  85.0915389  34.7703816
  73.0075190  83.9454121  35.6927899  72.2407769  84.2705047  34.9895683
  73.5736400  82.5662710  35.2421018  74.3401676  82.2402828  35.9451438
  72.7679202  81.8325623  35.2178579  74.0096058  82.6593843  34.2474333
  72.1825732  83.7676471  36.9577022  71.6848821  84.7060158  37.2023851
  71.4345345  82.9910736  36.7981042  72.8361124  83.4782448  37.7806442
  73.4293180  86.3918672  35.9804908  73.4233066  87.2265905  35.0675970
  72.8965888  86.6633414  37.1965395  72.9180375  85.8845835  37.8393267
  72.3031636  87.8941717  37.6378799  71.6320412  88.3193049  36.8915854
  71.4866913  87.5316757  38.8794969  72.1104076  87.1365862  39.6813581
  70.9080369  88.3766341  39.2527319  70.5803606  86.4914102  38.4123423
  70.0233263  86.2024185  39.1388383  73.2911732  89.0515856  37.9890095
  72.8709567  90.1790945  38.1737462  74.6381654  88.7838973  37.9900403
  74.8328497  87.7986288  38.0970140  75.7603857  89.7282107  38.0703642
  76.7020010  89.1886913  38.1722399  75.8139595  90.5718062  36.7860612
  74.8049932  90.9259868  36.5747736  76.4664876  91.4249215  36.9718069
  76.3441614  89.7720318  35.5723311  77.1476130  89.0396604  35.6510630
  75.4051697  89.2594309  35.3634366  76.6675548  90.7532798  34.3629630
  77.7151913  91.4074353  34.3596287  76.0127150  90.6413626  33.2106205
  76.2258915  91.2696211  32.4490770  75.3053105  89.9286357  33.1024515
  75.7658074  90.4884312  39.3985135  76.0277533  91.7091555  39.4641063
  75.5998562  89.8323307  40.5593422  75.7084956  88.8281970  40.5558249
  75.1981456  90.4793462  41.8015795  75.7251352  91.4223929  41.9466450
  73.7065750  90.7661502  41.7006854  73.3123064  91.3110585  42.5584305
  73.4270541  91.2831477  40.7827085  72.8343140  89.1806307  41.6692399
  71.6114894  89.6963891  41.5821115  75.5858138  89.5505576  43.0132771
  75.9012331  88.3549545  42.8781258  75.5454171  90.2059367  44.1807592
  75.6140379  91.2135137  44.1673764  75.5134092  89.5274311  45.4829852
  75.7821379  88.4788998  45.3546643  76.5212695  90.1825404  46.4803995
  76.2682053  91.1771717  46.8475047  76.4926276  89.4725730  47.3069743
  77.9946084  90.2477223  46.0025859  78.9881244  89.3224232  46.3226461
  78.6288212  88.4645956  46.8910940  80.3440250  89.4180466  45.9800271
  81.0991360  88.7568560  46.4051565  80.7211402  90.4180935  45.0454982
  81.7419344  90.4796965  44.6682925  79.7465427  91.3444313  44.6040584
  80.0028432  92.1853904  43.9596998  78.4396688  91.1601937  45.0122360
  77.6398284  91.7472611  44.5608967  74.0818329  89.4893593  46.0646733
  73.4265088  90.5615286  45.9974617  73.6549059  88.3722504  46.6421738
  74.1341563  87.5095244  46.4274127  72.5608022  88.3274130  47.5450152
  71.8653380  89.1520786  47.3889530  72.0209518  87.3821123  47.4896325
  73.2020995  88.4644935  48.9637117  74.1357774  87.7520060  49.3222380
  72.6119637  89.3182523  49.8364966  71.8290699  89.8210351  49.4435765
  73.0113495  89.6180601  51.2416028  73.6847907  88.8354712  51.5910749
  73.8274608  90.9963683  51.1567396  73.2782069  91.7348014  50.5726712
  73.9943354  91.4962526  52.5686924  74.5439431  90.7585047  53.1532951
  74.5464614  92.4360212  52.5590942  73.0134624  91.6562839  53.0163304
  75.2418434  90.7558840  50.6036509  75.1735195  90.3247016  49.6048938
  75.7790047  91.7030318  50.5539657  75.7770838  90.0691937  51.2594519
  71.7435694  89.6764183  52.0320158  70.8719370  90.6052935  51.9234210
  71.6658233  88.7465288  53.0445192  72.1915399  87.8844979  53.0195373
  70.7745670  88.9695030  54.1503088  69.7596323  89.1759791  53.8106409
  70.7606233  87.6763969  54.9832908  71.8030936  87.4890270  55.2406766
  70.1844859  87.8340360  55.8950559  70.2022242  86.4805989  54.2325534
  70.8756480  86.2146092  53.4177831  70.0687702  85.2878454  55.1980558
  69.3950867  85.5529366  56.0129030  69.6679912  84.4281247  54.6610666
  71.0486626  85.0372424  55.6043923  68.8152989  86.7846177  53.5541457
  68.9298634  87.6020795  52.8422956  68.4630898  85.8952085  53.0316504
  68.0908847  87.0674522  54.3179046  71.2288709  90.1663886  54.9521735
  72.4231130  90.2035672  55.3436394  70.2631098  90.9625170  55.4051007
  69.3847304  90.9195224  54.9084113  70.4176684  91.9777579  56.4702597
  71.2422164  91.7178678  57.1340947  70.7128710  93.2871781  55.8376406
  71.1146390  93.9770580  56.5797642  71.4370787  93.1572876  55.0334318
  69.4756662  93.8271114  55.2934197  69.6513106  94.6756409  54.8802048
  69.2426043  92.0571416  57.4483311  68.2614689  91.3420437  57.2982196
  69.3630628  92.8377215  58.5188216  70.3002547  93.1807165  58.6741442
  68.3034961  93.2277820  59.4798534  67.3121274  93.1403702  59.0352790
  68.3894341  92.3026146  60.6262308  68.4096964  91.2718696  60.2723193
  69.2920661  92.5062208  61.2023385  67.2617010  92.4955977  61.4400525
  67.3035546  91.8995525  62.1914367  68.3573465  94.6452215  60.0318663
  69.4826250  95.0903566  60.3229451  67.2235902  95.3488927  60.0264277
  66.4269588  94.9433573  59.5563013  67.1219261  96.7383882  60.4982694
  68.0453400  97.0047360  61.0125308  66.8970646  97.7315981  59.3461945
  67.3010994  98.6849691  59.6866923  67.4916725  97.3633888  58.5101542
  65.4560168  97.9231103  58.8976542  65.0653590  96.9317980  58.6678994
  64.9157724  98.3376860  59.7487505  65.2689907  98.8590815  57.6543312
  65.6082296  99.8694490  57.8827463  65.8252862  98.4741030  56.7996814
  63.7935837  98.9109840  57.2917770  63.2576218  99.7018964  57.6193466
  63.2168627  98.0523656  56.5404926  63.7994047  97.1644795  55.7282359
  64.8067395  97.1275014  55.6649175  63.2294864  96.5347679  55.1816500
  61.8992436  97.9891989  56.6332175  61.4111555  98.6003463  57.2722549
  61.3870628  97.3300979  56.0645740  66.0906213  96.9085705  61.6472264
  65.0110137  96.3849875  61.5520993  66.4721077  97.6232042  62.7501752
  67.4648957  97.7288349  62.9028622  65.5937527  98.0285406  63.7708557
  64.8820897  97.2389257  64.0119849  66.4231229  98.4031868  65.0642003
  67.0162568  99.2994395  64.8824759  65.4185652  98.6717238  66.2279884
  64.8253513  97.7757079  66.4106180  65.9697291  98.9323501  67.1315330
  64.7580083  99.4949315  65.9557883  67.4299643  97.3269732  65.5004855
  66.8859274  96.3985769  65.3266898  68.2265574  97.4242231  64.7628667
  68.0351306  97.3073673  66.9037568  67.2391237  97.2096648  67.6419486
  68.7187326  96.4631245  66.9934310  68.5797521  98.2353127  67.0781264
  64.5870357  99.0835300  63.2821920  64.9633716  99.9504627  62.4790937
  63.3256344  98.9539850  63.6886484  63.1244380  98.1591999  64.2785094
  62.2279621  99.8637697  63.3507055  62.6225038 100.7876259  62.9277092
  61.3213156  99.2144445  62.3311032  61.1642485  98.1765954  62.6248688
  60.3672492  99.7415338  62.3369546  61.9136697  99.2602311  60.9402274
  62.6156372 100.0932649  60.9028483  62.4643129  98.3200750  60.9086421
  60.9404405  99.3392570  59.7066263  61.3324169  99.8235447  58.6318384
  59.7906845  98.8313174  59.7995961  61.4507735 100.1453897  64.6781214
  61.8363332  99.7515263  65.7681161  60.3488873 100.9865283  64.6074143
  60.1987368 101.4835172  63.7410678  59.3705020 101.2242053  65.7586062
  59.4506680 100.4307168  66.5016059  59.6170136 102.5922172  66.4625517
  58.7521873 102.8531451  67.0725446  60.8670582 102.4767723  67.3642118
  61.7324446 102.2163027  66.7548162  61.0467811 103.4302716  67.8608397
  60.7047611 101.7022097  68.1137544  59.8037409 103.7542605  65.5062597
  58.9110068 103.8661821  64.8909538  59.9701079 104.6696649  66.0741122
  60.6645129 103.5633641  64.8653767  58.0098705 101.1605195  65.0854012
  57.8259787 101.3373165  63.8614614  56.9931752 100.8604702  65.9050274
  57.2649582 100.4627917  66.7927690  55.5844141 100.7295071  65.4809875
  55.5477455 100.1937042  64.5324783  54.7576390  99.9798590  66.4885531
  55.4270711  99.1838299  66.8145861  54.6344333 100.7031858  67.2946044
  53.3983332  99.3850837  66.1265653  53.4875996  99.2014646  65.0558570
  53.2416513  98.4391932  66.6450670  52.1621166 100.2982921  66.3732716
  52.2080917 101.5325948  66.4870130  51.0097034  99.6789209  66.5654178
  50.1716316 100.2178555  66.7306043  50.9728923  98.6697761  66.5461020
  54.9408929 101.9314399  64.8750700  55.0815545 102.9770697  65.4871105
  54.2157573 101.8242318  63.7697946  54.0600572 100.8729083  63.4683971
  53.7633348 102.9476492  62.8620781  54.1609217 103.9049947  63.1989955
  54.2912434 102.6673124  61.4595697  55.3076507 102.2808889  61.5350176
  53.6612782 101.9351062  60.9544777  54.2998568 103.9829139  60.6515385
  54.5205579 103.8998499  59.4098560  54.1167144 105.1249088  61.1666780
  52.2613272 103.1656474  62.9774566  51.6317277 103.5345716  61.9611745
  51.6753034 102.9005815  64.1352947  52.2533046 102.8265665  64.9602406
  50.2495913 102.5248703  64.2424733  50.0984242 101.8131439  65.0540724
  49.3100412 103.7649646  64.4795573  49.3419238 104.3183752  63.5410370
  47.8375552 103.5180917  64.8822133  47.8048604 102.9650937  65.8209486
  47.3291220 104.4742073  65.0064623  47.3392934 102.9407105  64.1034537
  49.8709583 104.5161915  65.4271306  49.3194261 105.2837571  65.5952250
  49.8614465 101.6684674  63.0724192  50.5096284 100.6262534  62.8546734
  48.8067432 101.9613020  62.3482999  48.3338872 102.8023818  62.6467813
  48.2355880 101.1974640  61.1948865  47.9114331 100.2272664  61.5713695
  47.0398516 101.8785923  60.4903025  46.4918331 101.1625653  59.8778645
  46.3635439 102.3249848  61.2193031  47.5789325 102.8966811  59.6596371
  46.8655631 103.3468503  59.2013231  49.3128351 100.9489347  60.1250184
  49.0742132 100.1175823  59.3077976  50.4918466 101.6380404  60.1864538
  50.6976961 102.1706180  61.0195723  51.4606391 101.6415362  59.1143611
  50.9515916 101.7835784  58.1610543  52.1746727 102.4505532  59.2684611
  52.2164971 100.3085229  59.0824045  52.9035169 100.0887687  58.0619792
  52.0187661  99.4822637  60.0663009  51.1788242  99.6558649  60.5996484
  52.8792137  98.3504116  60.4642818  52.2991504  97.6010641  61.0028949
  53.3378132  97.8930210  59.5875951  53.9620085  98.8721347  61.3665492
  53.7973497  99.1432307  62.5474271  55.1089280  99.1085694  60.6575477
  55.1426056  98.7841441  59.7016641  56.3940518  99.6727100  61.2805576
  56.1747374 100.3650050  62.0934094  57.2583396  98.5053283  61.8408866
  58.1757357  98.9101952  62.2681658  56.4743316  97.7462855  62.9320687
  55.5569671  97.3407073  62.5053973  57.0858434  96.9311534  63.3189953
  56.2256335  98.4301069  63.7436339  57.6522792  97.5913427  60.8574050
  58.1798897  96.8969926  61.2587844  57.1694000 100.6197118  60.3312396
  56.9315990 100.6442957  59.1320981  58.0267343 101.4541404  60.9862119
  58.0130906 101.4526998  61.9961184  58.8632752 102.4975019  60.2825181
  59.0293281 102.2284661  59.2393761  58.0955917 103.8260338  60.3302567
  57.1321199 103.6212393  59.8634789  57.8720314 104.4579149  61.7021916
  58.8351280 104.6634374  62.1694228  57.3181008 105.3896660  61.5877362
  57.3030488 103.7723555  62.3301786  58.7572646 104.8659627  59.5780719
  58.2457195 105.6763743  59.6342418  60.3105251 102.6090323  60.7677706
  60.5589782 102.3593765  61.9178902  61.2081173 103.0931654  59.8685919
  60.9145038 103.2208173  58.9106799  62.5563475 103.3196453  60.1872109
  62.9253953 102.4688849  60.7600195  63.3158351 103.3925469  58.8922005
  62.9637681 104.2450918  58.3114113  64.3793792 103.5095937  59.1002251
  63.1559119 102.4758988  58.3245034  62.7688084 104.5988387  61.1107283
  61.9731241 105.5379208  61.1484301  63.8356425 104.4573018  61.8461564
  64.2247930 103.5298636  61.9384586  64.4416948 105.5648199  62.6513167
  63.6321615 106.2443970  62.9176435  65.1613883 105.1495567  63.9176764
  65.7390964 104.3466397  63.4597714  65.8406390 105.8959882  64.3294513
  64.2777300 104.5667515  65.0591290  64.9412253 104.4291035  65.9129018
  63.0455573 105.4313328  65.4902155  62.3813269 105.5690314  64.6370239
  62.5073423 104.9240074  66.2908692  63.3890053 106.4036952  65.8432807
  63.8663319 103.1067199  64.9491960  64.7568545 102.4786789  64.9240314
  63.2550422 102.8351544  65.8098227  63.2918317 102.9584360  64.0348325
  65.4060619 106.4376027  61.7635649  65.5953171 107.6206335  62.1150183
  65.9209557 105.8290918  60.6826501  65.5549511 104.8892901  60.6286800
  66.8958938 106.2428891  59.6976432  66.6805981 107.2546287  59.3539429
  68.3363415 106.2253525  60.3436579  69.0475696 106.6421862  59.6305636
  68.3256976 106.8375165  61.2454572  68.7627167 104.7592083  60.7115903
  68.0155556 104.3026366  61.3607386  68.8710388 104.1614082  59.8066023
  70.1095234 104.8225110  61.4471951  69.9816341 105.3506304  62.3920936
  70.4635317 103.8102410  61.6423545  71.1402262 105.5427812  60.6298386
  70.9994893 105.3536237  59.6477429  72.1917216 106.2361756  60.9882105
  72.3015144 106.5983708  62.2390907  71.5832655 106.3412666  62.9009940
  73.1040996 107.1336984  62.5380571  73.0474929 106.6787129  60.1072194
  72.9027707 106.4865230  59.1262920  73.8502773 107.2111983  60.4106913
  66.7861070 105.3602088  58.5052199  66.6036695 104.1479480  58.6553880
  67.0921759 105.8645299  57.3405122  67.5454917 107.2045166  57.0213973
  68.5488865 107.3113078  57.4335802  66.8717465 107.8999809  57.5218930
  67.5167306 107.3545390  55.5266134  68.5187591 107.5725709  55.1571543
  66.8432698 108.1653939  55.2490052  67.0030970 106.0086058  54.9939434
  67.6614768 105.7086593  54.1786723  65.9748877 106.0477361  54.6342850
  67.1133157 105.0245236  56.1298097  66.2465246 104.3636401  56.1319076
  68.3980203 104.1827615  56.1076348  69.3536852 104.6323928  56.7729596
  68.4017926 103.0318549  55.4124760  67.5162419 102.7177662  55.0420066
  69.5857532 102.1039789  55.3171638  70.4809928 102.6733638  55.0672716
  69.8213013 101.3764503  56.6730138  70.6504178 100.6817974  56.5383937
  70.0953196 102.1296538  57.4117278  68.6708692 100.6619373  57.1263460
  68.8690742 100.2336623  57.9623454  69.3916068 101.2414639  54.1118634
  68.2743699 101.2135624  53.5524983  70.4320733 100.4721738  53.6983925
  71.3093821 100.6483426  54.1667867  70.4433495  99.6346377  52.4851192
  70.7028908 100.3132087  51.6725437  71.6125848  98.6857328  52.7193976
  71.3641581  97.9940054  53.5243184  71.8135855  98.1238589  51.8072591
  72.4974924  99.2596662  52.9944215  69.0820310  99.0729436  52.0393305
  68.6966690  99.3076393  50.8730496  68.2996673  98.3084553  52.8649610
  68.6314029  98.0851108  53.7924135  67.0672806  97.7769343  52.4529387
  67.1461501  97.3516333  51.4524399  66.6588385  96.6552415  53.4359023
  65.7078705  96.2302605  53.1147323  67.4243100  95.8793019  53.4274592
  66.5271666  97.1658337  54.7316168  66.2736706  96.4590869  55.3298213
  65.9074025  98.8050465  52.3514446  64.9758100  98.4354347  51.5909022
  65.9488414 100.1042694  52.7355741  66.7017187 100.2581920  53.3909999
  64.9957971 101.2090937  52.4899098  64.1004694 100.7535234  52.0668930
  64.5812118 102.0326219  53.7986639  63.5468117 102.3630231  53.7040497
  64.7274434 101.1072196  55.0896325  65.7617470 100.7767852  55.1851772
  64.4439233 101.6731638  55.9770009  64.0767289 100.2384426  54.9901455
  65.3748766 103.1661088  54.0730954  65.0555002 103.5949282  54.8704115
  65.3795279 102.1489541  51.3764764  64.5483100 102.6466923  50.6059809
  66.6845478 102.2992991  51.1019434  67.3404213 101.8142923  51.6975085
  67.2099550 103.1344447  50.0351533  66.5204727 103.9477625  49.8088182
  68.5945733 103.7585972  50.5079619  69.3080430 102.9568493  50.6983840
  68.9834348 104.4125071  49.7273925  68.3850380 104.5518205  51.7671671
  67.6501964 105.3232038  51.5367837  68.0088808 103.9214618  52.5729311
  69.6378758 105.2102423  52.2242111  70.6057830 104.6581908  52.7245917
  69.7400923 106.5372321  52.1454843  70.5864347 106.9946003  52.4530882
  68.9707167 107.0790424  51.7786000  67.4194271 102.3017047  48.6643128
  67.8044756 102.9219302  47.6358601  67.1756667 100.9826880  48.6254950
  67.0108032 100.5388564  49.5176457  67.1295194 100.1220998  47.3727232
  68.1261153  99.8657004  47.0133413  66.3964014  98.8239273  47.7584059
  65.3934955  99.0636435  48.1116987  66.3281142  98.1721146  46.8874424
  66.9479455  98.3158545  48.5494561  66.3655302 100.8353793  46.1970175
  65.2909053 101.4290310  46.4132999  66.8305543 100.6266279  44.9668665
  67.7739190 100.2772862  44.8767404  66.1259311 101.0544582  43.7485064
  65.7744694 102.0809435  43.8529176  67.1021776 100.9841255  42.5410889
  67.3797666  99.9323291  42.4720392  66.5393093 101.2699025  41.6524883
  68.3517016 101.8293140  42.6391048  68.9765534 101.4278237  43.4368933
  69.1351625 101.8296332  41.3321331  68.5110765 102.2314483  40.5339100
  70.0261354 102.4478259  41.4421597  69.4294929 100.8098531  41.0841039
  67.9624828 103.2934702  43.0205971  67.4475276 103.2945073  43.9812840
  68.8634863 103.9028160  43.0912488  67.3044938 103.7060663  42.2558004
  64.7457330 100.3520336  43.4663255  63.8702997 100.9329329  42.8792536
  64.5751131  99.1202531  43.9324387  65.4097644  98.6285028  44.2181625
  63.2620755  98.4152330  44.0494178  62.4296090  99.1166111  43.9931379
  63.1555561  97.4011140  42.8290268  63.9419498  96.6569745  42.9552827
  62.1821590  96.9149920  42.8944748  63.2875299  98.0080028  41.5847910
  63.2139818  97.3439253  40.8954496  63.0880893  97.6402144  45.3500927
  64.0988028  97.4339656  45.9936030  61.9513541  97.0849474  45.6525967
  61.2183401  97.2466321  44.9768395  61.5862823  96.4381651  46.9581500
  62.4032247  95.8473076  47.3723863  61.2970857  97.5816244  47.8936658
  62.2336638  98.0715304  48.1599603  60.6432149  98.2961868  47.3937122
  60.6925201  97.1253048  49.0147314  60.5127736  97.8617587  49.6037362
  60.5352849  95.3418798  46.8179608  59.7931368  95.3693472  45.7813298
  60.4451362  94.4166383  47.7417028  61.3068446  94.1783211  48.2115570
  59.2979995  93.4991841  47.8769218  58.3674350  94.0332950  47.6848948
  59.4208138  92.3667556  46.8789222  58.5469316  91.7400567  47.0569043
  59.3330368  92.8428332  45.9023233  60.6040615  91.5568601  46.9109877
  60.5489993  90.8827885  46.2296688  58.9269912  93.1785110  49.3746690
  59.8634753  93.1620323  50.1527390  57.6606804  92.9545436  49.7018456
  56.9401376  92.8352838  49.0042105  57.2608650  92.9398696  51.1455215
  58.1475015  92.7999955  51.7639147  56.6446016  94.3167092  51.4713039
  55.7864011  94.4858971  50.8209450  56.1868986  94.3649228  52.9551692
  57.0447017  94.1962664  53.6061913  55.7542067  95.3418223  53.1709133
  55.4402070  93.5905515  53.1309604  57.6834455  95.4383115  51.2989065
  58.0395478  95.4492326  50.2687735  57.2245994  96.3985799  51.5343733
  58.5232538  95.2628986  51.9712555  56.2865219  91.7600292  51.3462908
  55.3149371  91.5298411  50.6269269  56.7479950  90.8127833  52.1928950
  57.7060040  90.9158762  52.4956985  55.9557881  89.6958446  52.7448690
  55.7624159  88.9369355  51.9867375  56.8056478  89.0366989  53.9196913
  57.0295639  89.8089700  54.6555977  56.2014854  88.2572999  54.3840457
  58.0315036  88.4671283  53.4360996  58.5157682  88.0803827  54.1692540
  54.6281692  90.1230610  53.3794328  54.5398048  91.2694620  53.8619114
  53.5833334  89.3432585  53.2092823  53.6852827  88.4259021  52.7992057
  52.2177039  89.8324259  53.5038486  52.1504509  90.8896468  53.2472161
  51.1122344  89.0298066  52.6637437  50.1457799  89.4340377  52.9648453
  51.2935099  89.2659353  51.6151816  51.1105299  87.6602342  52.8328755
  50.4184120  87.2719720  52.2926671  51.9067177  89.7930095  55.0294891
  52.2006457  88.7313902  55.6738475  51.2574395  90.9134163  55.4393798
  50.9572875  91.5622671  54.7259368  51.1763362  91.3559269  56.9047107
  52.1157838  91.1230019  57.4059923  50.9184116  92.8826025  57.0187350
  50.9898987  93.2626814  58.0378174  51.5493812  93.4823116  56.3627423
  49.5768502  92.9592575  56.5806976  49.2847069  93.8734541  56.6029850
  50.2544322  90.5104012  57.7934319  50.3645622  90.4201299  59.0139807
  49.2825693  89.7893152  57.1826598  49.2039682  89.9234966  56.1847036
  48.2980176  89.0092042  57.8342962  48.2147200  89.2854326  58.8854188
  46.9351389  89.2743633  57.1425960  46.7241459  90.3437151  57.1508301
  46.9741747  88.9201773  56.1124851  45.8299518  88.5309870  57.8956160
  46.0491368  87.4649972  57.8345869  45.8685477  88.8502831  58.9370873
  44.4597384  88.7918246  57.3434347  44.5270528  88.8384075  56.2565135
  43.8071727  87.9676569  57.6315406  43.8839811  90.1099586  57.8767258
  43.6737970  90.0170333  58.9422248  44.5991206  90.9169078  57.7170151
  42.6209661  90.4140834  57.1462197  41.9580115  89.6666719  57.2944325
  42.2334560  91.2810073  57.4902821  42.8155799  90.5006528  56.1589354
  48.6497008  87.5347366  57.9572311  48.2552250  86.6569284  57.1557725
  49.5128010  87.2897446  58.9392754  49.9147664  88.0948901  59.3978207
  50.0000946  85.9385412  59.3301761  50.4852208  85.4308883  58.4964854
  51.0802995  86.1525695  60.4994850  51.9154642  86.6874736  60.0472940
  50.6193513  86.7787242  61.2633940  51.5976067  84.8397241  61.1493391
  50.7971822  84.4519805  61.7794791  52.0194114  83.7477653  60.1119960
  52.8201740  84.1346396  59.4817529  52.3694749  82.8605574  60.6396498
  51.1629551  83.4860401  59.4906404  52.7934639  85.1073477  62.0248231
  52.5164547  85.8038200  62.8162090  53.1364972  84.1724367  62.4679605
  53.5941727  85.5397553  61.4248330  48.7224782  85.0889400  59.7017444
  48.1612691  85.1052911  60.8437790  48.2326244  84.2305223  58.7605073
  48.7298858  84.1384334  57.8862361  47.0491955  83.4182440  58.9672099
  46.1888852  84.0445600  59.2032048  46.7546285  82.6495696  57.6869518
  47.6521251  82.0629327  57.4908492  45.8908443  81.9864303  57.7341024
  46.5355466  83.6035467  56.4007076  45.6890175  84.6941440  56.5561844
  45.1887325  84.9181892  57.4983195  45.4878132  85.5250648  55.4370886
  44.8952539  86.4302800  55.5696018  46.0161161  85.2215219  54.1994296
  45.7833749  85.9001799  53.3788476  46.8411003  84.0694020  53.9663657
  47.2796256  83.7716504  53.0139269  47.0628508  83.3057004  55.0992243
  47.6763061  82.4067317  55.0389934  47.2654300  82.4000508  60.0793673
  46.2895700  82.0246599  60.6963753  48.4547932  82.0854627  60.5144840
  49.2535496  82.4459907  60.0123813  48.6978611  81.1755594  61.6678026
  47.9350458  80.3972514  61.6889865  50.1121567  80.4913019  61.5487028
  50.8817752  81.2091017  61.2648896  50.3991505  80.0003107  62.4785749
  49.9714216  79.5166635  60.5220321  50.8063372  79.0592315  60.3984532
  48.5998187  81.8391781  63.0243114  49.2924129  81.4258481  63.9347737
  47.9568381  82.9955503  63.1497432  47.4687853  83.3274478  62.3301409
  47.8528543  83.7781735  64.3851048  47.6996323  83.1065094  65.2297879
  49.1117825  84.5809946  64.6280537  49.9673692  83.9069442  64.6696062
  49.2493099  85.2920470  63.8134429  49.0062708  85.2679821  65.8279542
  49.8072115  85.7756497  65.9775121  46.7049912  84.8051486  64.2441982
  46.1260470  84.9865626  63.1680836  46.3694576  85.3926358  65.3507631
  46.7615728  84.9080870  66.1454691  45.3561205  86.4086004  65.5933608
  45.0530147  86.8344993  64.6368900  44.0935088  85.8413879  66.3082256
  44.3084863  85.4976505  67.3200203  43.2740060  86.5595611  66.3354742
  43.7251837  84.7348125  65.5017012  42.9441174  84.3159177  65.8705676
  45.8774522  87.7686171  66.1819896  45.2102591  88.5171612  66.8401165
  47.1549726  88.0047548  66.0397758  47.7410541  87.2059154  65.8436548
  47.8148975  89.3452261  66.2287962  47.0859913  90.1076922  65.9541320
  48.2960888  89.6175283  67.6958161  47.4515241  89.4966880  68.3742026
  49.4066300  88.6400706  68.0854578  50.2517799  88.7606532  67.4077549
  49.7286170  88.8435240  69.1067463  49.0318484  87.6186314  68.0198737
  48.8209615  90.9166196  67.8462799  49.1036333  91.0442823  68.7547947
  48.9694897  89.4262213  65.2371417  49.2591223  88.4399910  64.5346597
  49.4759217  90.6315273  65.0134875  48.9103337  91.3372291  65.4631478
  50.5932465  91.0591312  64.2177884  50.3491329  91.0560148  63.1554806
  50.7982541  92.5078539  64.6684018  51.0523441  92.5267632  65.7282040
  51.6079794  92.9567184  64.0931054  49.8806051  93.0729879  64.5051746
  51.8782370  90.1579866  64.3642393  52.0245577  89.5165097  65.3830914
  52.7533446  90.1430140  63.3164376  52.7795303  90.9397172  62.1302824
  53.1830299  91.9233764  62.3704969  51.7634646  91.0471936  61.7506005
  53.6849793  90.1477757  61.1686480  54.2533297  90.8561281  60.5658929
  53.0539296  89.5422424  60.5181043  54.5820602  89.2889337  61.9875285
  55.6007371  89.6644551  62.0843788  54.6049750  88.2796514  61.5765251
  53.8932223  89.2795889  63.3677807  53.5362895  88.2562148  63.4835507
  54.8292295  89.6225518  64.5171679  55.2497369  88.7253202  65.2072461
  55.0884341  90.9373053  64.8349432  54.8157238  91.5587636  64.0869339
  55.8817706  91.4781226  65.9248014  56.7555349  90.8338957  66.0228152
  56.3530179  92.9186197  65.7820558  56.8387222  93.2579694  66.6969505
  57.0633551  92.9623808  64.9564615  55.2666726  93.9222727  65.4713975
  54.3165087  93.8334254  64.4042163  53.5268275  94.9367999  64.5078948
  52.7329199  95.1118795  63.7818391  53.9236981  95.6631685  65.5942117
  53.4733047  96.4952631  65.9475730  55.0542694  95.0751851  66.1443045
  55.5778633  95.5640438  66.9658687  55.1918493  91.1278129  67.1943705
  55.9266152  90.8631532  68.1924609  53.8895844  91.0892395  67.2506480
  53.3069968  91.2208043  66.4361655  53.2447259  90.7753989  68.5165625
  53.7918123  91.2198798  69.3479663  51.7805765  91.3695547  68.5003616
  51.3658447  91.3433283  67.4926865  51.1312504  90.8110908  69.1745972
  51.8784338  92.8160684  68.9717574  52.6335246  92.6561402  69.7414077
  52.2730823  93.4891165  68.2106017  50.6205241  93.4414738  69.6082545
  49.5911333  92.7257376  69.7578179  50.5506312  94.6760632  69.7852374
  53.1073984  89.2387422  68.6755826  52.8428832  88.8061257  69.8073245
  53.1991633  88.3916333  67.6223591  53.2197210  88.7633381  66.6834703
  53.2163793  86.9048652  67.7976716  52.5643774  86.5959404  68.6147140
  52.7089175  86.2462255  66.4791750  53.3572221  86.5682842  65.6642642
  52.7186059  84.7579330  66.5628742  52.0701144  84.4350823  67.3773223
  52.3578935  84.3383378  65.6237653  53.7349050  84.4105735  66.7488260
  51.3731137  86.5955438  66.0849848  51.1523141  86.1437182  65.2672431
  54.5629611  86.3938887  68.1492187  54.7009820  85.5207349  69.0115398
  55.6242779  87.0201715  67.6216106  55.3813520  87.6681856  66.8859721
  57.0147976  86.8572901  67.9558304  57.2112686  85.9483111  68.5243860
  57.7269844  86.7419940  66.5661719  57.0884610  86.1652675  65.8970130
  57.8627844  87.7454400  66.1627434  58.9831211  86.1071646  66.6808939
  59.3938071  86.0515405  65.8149592  57.5418258  87.9881978  68.7579695
  58.4086079  88.7411391  68.3873831  56.8971693  88.0767062  69.9016867
  56.0690460  87.5243762  70.0726917  57.2847600  89.0323024  70.8817135
  57.4653067  90.0048209  70.4237727  56.1547463  89.1726481  71.8921595
  55.2510170  89.5456898  71.4102752  55.9570887  88.1915687  72.3240331
  56.4383138  90.0836288  73.0230492  56.5475903  91.4952610  72.8608609
  56.3187920  91.9112390  71.8796812  56.9387240  92.3542525  73.9231311
  57.1034544  93.4152982  73.7356568  57.1150085  91.8282898  75.2309186
  57.3372730  92.4690221  76.0842418  56.9985420  90.4783708  75.4025819
  57.2294209  90.0606557  76.3825356  56.5911279  89.6283045  74.3506698
  56.3815689  88.5772586  74.5493845  58.5974250  88.6180802  71.4746425
  58.7563413  87.5075247  71.8454702  59.4648552  89.5957155  71.6714469
  59.1812392  90.5572509  71.5485201  60.8648323  89.3220163  72.0737326
  60.9464050  88.4503664  72.7230949  61.5257719  89.1984515  71.2158340
  61.2818555  90.5407534  72.8389139  60.4843373  90.9953383  73.6099848
  62.5509776  90.9974444  72.6471548  63.0634159  90.3180239  72.1031934
  63.3084299  92.1558113  73.2388617  62.6371422  92.7042741  73.8996646
  64.5489574  91.7243309  74.0449182  65.2217248  91.1862923  73.3770876
  65.0459724  92.6208533  74.4154904  64.1696925  90.8128010  75.2400121
  63.4518027  90.0938974  74.8451545  65.0571309  90.2849369  75.5891708
  63.5418068  91.5710809  76.4000664  64.0231591  92.7189876  76.7041114
  62.6390323  91.0957444  77.0560667  63.5853024  93.2484634  72.1913298
  64.5167857  94.0091304  72.4707050  62.9429996  93.2349328  71.0192918
  62.2567474  92.5025558  70.9062374  63.1553824  94.1674547  69.9058478
  63.1891588  95.2034550  70.2429852  64.5529246  93.7946952  69.2852190
  64.8430378  94.5521266  68.5570492  65.3021081  93.7452760  70.0753973
  64.4493073  92.3966248  68.5736126  63.3993140  92.3437951  68.2858213
  65.0745575  92.2008599  67.7024998  64.7341832  91.3544280  69.6471282
  63.7684662  90.5890238  69.9947893  65.8290481  91.3553875  70.3100096
  62.0928013  94.0974857  68.8314564  61.2436739  93.2274246  68.8622851
  61.9452001  95.1873194  68.0122054  62.3267231  96.0588740  68.3512219
  61.1631989  95.2020441  66.7151913  60.7939642  94.1878504  66.5629550
  59.9912861  96.1499355  66.6917086  60.4081799  97.1513549  66.7987502
  59.1194460  96.0954570  65.4515615  58.7017954  95.0943973  65.3440979
  58.3091683  96.8186000  65.5443768  59.7200123  96.3341706  64.5738158
  59.0072656  95.9199591  67.7956078  59.5043028  96.0437962  68.7577515
  58.1927465  96.6395356  67.7127355  58.6070446  94.9088069  67.7214776
  62.1051667  95.4861043  65.4931882  62.7317590  96.5369306  65.4049836
  62.2816929  94.5142055  64.6382348  61.8526809  93.6188667  64.8237519
  63.2072490  94.6133266  63.5387846  63.3221770  95.6470959  63.2128833
  64.5456426  94.1073479  64.0187411  65.1780708  93.9491270  63.1451852
  64.9879655  94.8760197  64.6524557  64.4312895  92.8197667  64.7961135
  64.1608122  93.2228213  65.7720694  63.6158135  92.2019751  64.4200396
  65.6555187  91.9960909  64.9245462  65.5832835  90.7553082  64.9208931
  66.7775561  92.5042748  65.1847811  62.7178283  93.9627149  62.2007925
  62.1781638  92.8395633  62.2757448  62.9379262  94.5925196  61.0446191
  63.2796648  95.5373402  61.1477117  62.6014900  94.1163983  59.6949735
  61.8942327  93.2958342  59.8156414  61.9894624  95.1525019  58.7668731
  62.6970863  95.9691183  58.6236764  61.6549283  94.4957693  57.3709790
  60.9469521  93.6793076  57.5133199  61.2166955  95.2452480  56.7119387
  62.5698079  94.1086178  56.9224139  60.7351620  95.6722920  59.3677841
  60.9564266  96.1320008  60.3310140  60.2943752  96.4157506  58.7036487
  60.0325667  94.8512537  59.5104615  63.8656050  93.4379049  59.0879069
  64.8581602  94.1337410  58.8213259  63.9810399  92.1158654  59.0283139
  63.3791872  91.5589257  59.6179672  64.9689079  91.4315969  58.2094473
  65.9673574  91.8538447  58.3230452  64.9861101  89.9412283  58.7435021
  63.9364600  89.6474399  58.7387836  65.5543893  89.2672676  58.1024595
  65.4878876  89.7255948  60.1481610  66.7871534  89.3706425  60.6425073
  66.7005413  89.2483434  61.9025245  67.5779567  88.8534394  62.4146689
  65.5270453  89.6349707  62.3676992  65.2329457  89.6938655  63.3321352
  64.7217474  89.9645972  61.2522012  63.7048225  90.3271506  61.4022682
  64.6086534  91.5519819  56.7374170  63.4490204  91.5658609  56.3559675
  65.6214025  91.3221935  55.8645610  66.4071963  90.8020710  56.2280166
  65.6217555  91.6688726  54.4816498  64.6152258  91.5731167  54.0744298
  66.0711313  93.0627644  54.3049102  67.1331116  93.0541318  54.5503132
  65.9414486  93.3631545  53.2651755  65.3922849  94.0548919  55.1729451
  64.3366511  94.5532355  54.9470468  66.1726056  94.3403380  56.1961240
  65.8646229  95.0039089  56.8924861  67.0749137  93.8941737  56.2790594
  66.6234932  90.8613130  53.6840415  67.5445764  90.2759489  54.2476581
  66.4717588  90.8418808  52.3601718  65.5990940  91.2200904  52.0202998
  67.4195256  90.2452399  51.3693682  68.3728820  90.0610758  51.8646403
  66.9102178  88.9289191  50.7863158  67.0162721  88.1486469  51.5399915
  65.8521947  89.1010569  50.5886904  67.6391584  88.4670844  49.4319598
  67.4267104  89.2566350  48.7111432  69.1435735  88.2143028  49.4804756
  69.3567725  87.4244980  50.2007903  69.4933591  87.9098076  48.4940510
  69.6565057  89.1278210  49.7812836  67.0245484  87.0929215  49.0191976
  65.9529015  87.2078041  48.8564878  67.4958347  86.7449342  48.1000157
  67.1951093  86.3650691  49.8124434  67.6813908  91.2764024  50.2942717
  66.7891141  91.5817612  49.5335226  68.8963235  91.8480727  50.3357169
  69.4439179  91.5341910  51.1242078  69.4904558  92.7912025  49.4240793
  68.7788168  93.5522733  49.1040163  70.6235261  93.4747727  50.1991034
  71.3681186  92.6815905  50.2665068  70.9937057  94.2653958  49.5464302
  70.3569333  94.0539333  51.6115814  69.9736281  93.2708829  52.2658062
  71.7176533  94.6141354  52.1998250  72.1013599  95.3976040  51.5463382
  71.5425115  95.0246107  53.1942777  72.4463348  93.8060507  52.2640326
  69.3195463  95.1423541  51.6811539  68.3647793  94.7585098  51.3217335
  69.2110721  95.4761851  52.7130897  69.6304957  95.9816672  51.0590905
  70.0699277  92.0843436  48.1930533  70.7224898  90.9929175  48.3161536
  69.9717156  92.7155413  46.9960780  69.4688959  93.5910496  46.9685679
  70.4564356  92.1491662  45.7271655  71.2287420  91.3822091  45.7856366
  69.3055776  91.6593144  44.7871936  68.5422775  92.4373421  44.7751026
  69.7639033  91.3697483  43.3498854  70.5269265  90.5914361  43.3611255
  68.9127274  91.0348430  42.7570627  70.1777321  92.2772065  42.9101531
  68.3967072  90.5924780  45.2806153  67.9201948  90.9717374  46.1846058
  67.6411760  90.4353054  44.5108303  69.1176202  89.2187277  45.6007160
  69.8730247  89.3750234  46.3708040  68.3825877  88.4959618  45.9548853
  69.5940082  88.8385924  44.6970283  71.3083787  93.2627227  45.1881971
  70.7516792  94.2951528  44.8829435  72.5933284  93.1143933  45.1821445
  72.9133097  92.1602691  45.2679247  73.6216926  94.2097364  45.1394763
  73.0721748  95.1395604  44.9926543  74.4713378  94.3133638  46.4155368
  74.8314843  93.3014993  46.6013465  75.6825325  95.3048702  46.4087150
  75.3230972  96.3170804  46.2234115  76.1867316  95.2700097  47.3744627
  76.3823934  95.0189479  45.6235129  73.5041019  94.8028964  47.5014339
  73.3259177  95.8608145  47.3086635  72.5754504  94.2482049  47.3671829
  74.0115606  94.6198207  48.9642021  74.9400030  95.1746432  49.0993564
  73.2604283  94.9946081  49.6594962  74.1895380  93.5620331  49.1578750
  74.5037682  94.0141630  43.9408109  75.0970589  92.9924247  43.7444592
  74.5667043  95.0608435  43.1712571  73.9339754  95.8248926  43.3609481
  75.4644340  95.1670234  41.9966946  75.1491171  94.4612422  41.2282237
  75.4226252  96.5810618  41.4094116  74.4276622  96.9484937  41.1581315
  75.8471066  97.1966015  42.2025236  76.3051690  96.6522926  40.1930167
  76.2933933  95.7233866  39.3989487  76.8997464  97.6927703  39.9753633
  76.9226755  94.8118879  42.2232150  77.5934747  95.5246031  42.9374114
  77.5101110  93.8937510  41.4591967  76.9031116  93.3545003  40.8584805
  78.8949601  93.5423552  41.5150081  79.1865808  93.3278692  42.5431386
  79.1519082  92.2785662  40.6529553  80.1119090  91.8818989  40.9833379
  78.3604081  91.5750305  40.9111513  79.1799912  92.4898766  39.0732565
  78.2137261  92.9418552  38.8493196  79.9763930  93.1266973  38.6881518
  79.2597643  91.1083547  38.3612603  79.4667828  90.0325536  38.9901389
  79.2480521  91.1580833  37.0302794  79.2968358  90.3026235  36.4955738
  79.1904390  92.0510225  36.5618335  79.9199062  94.6201328  41.1503837
  81.0683139  94.5006330  41.4870310  79.4999936  95.5777746  40.3418012
  78.5485047  95.5139743  40.0090884  80.3762972  96.6100256  39.7592209
  81.4256874  96.3214282  39.8191442  80.0047319  96.7456126  38.3366372
  80.4961805  95.8522888  37.9512152  78.9488050  96.7236835  38.0671238
  80.6171169  97.9306893  37.6026129  82.0143650  98.1135220  37.3726390
  82.1044470  99.0685726  36.4182797  83.0824200  99.3104448  36.0021482
  80.8554670  99.5789061  36.1451957  80.6369270 100.3550497  35.5369678
  79.9215298  98.8373162  36.8574812  78.8580274  99.0484050  36.7456536
  80.4524910  97.9483426  40.5143529  81.4691138  98.5677539  40.5223316
  79.3431098  98.4793302  41.0410611  78.5008485  97.9608935  40.8363205
  79.2312010  99.6924754  41.8511063  80.1736025 100.2274766  41.9683765
  78.2232203 100.6241109  41.2468215  78.1177048 101.4867969  41.9046509
  78.6438451 101.0937493  39.8551004  78.7491184 100.2315932  39.1965384
  77.8860359 101.7665573  39.4536611  79.5968895 101.6186191  39.9208167
  76.9622836  99.9775432  41.2383462  76.3053529 100.5624329  40.8537081
  78.7859161  99.5686973  43.3686864  78.6363388 100.5620137  44.0532988
  78.4541140  98.3670771  43.8267586  78.6816488  97.6285383  43.1764604
  77.7287679  98.0219012  45.0306260  77.3372779  97.0053510  44.9924091
  78.7563732  98.1159960  46.1974329  79.5294900  98.8772516  46.0931280
  78.1440343  98.3381286  47.0713884  79.4661837  96.8168787  46.4867499
  79.1342837  96.0876317  47.6274147  78.5348603  96.5618834  48.4045097
  79.5571617  94.7726736  47.7813810  79.2152353  94.1852122  48.6334820
  80.4599500  94.1786055  46.8006924  80.7671465  93.1345323  46.8610371
  80.9357387  94.9927389  45.7562739  81.7534213  94.6524487  45.1209017
  80.3515745  96.2486635  45.5350259  80.5760315  96.8010063  44.6225368
  76.3981689  98.8152569  45.3511991  76.0843711  98.9443548  46.5076824
  75.6329147  99.2054229  44.3600091  76.0076212  99.1391255  43.4244349
  74.2898577  99.6952222  44.5238426  74.2450679 100.4726588  45.2865256
  73.8444754 100.2965010  43.1838857  74.5507301 101.0996185  42.9733964
  73.9699571  99.5011752  42.4491671  72.4338218 100.8338669  43.1081943
  72.0662566 101.0867084  42.1136754  71.8392078 100.0174358  43.5180401
  72.3163588 102.0733778  44.0329566  72.2268440 101.9376104  45.3129532
  72.4732959 103.1963387  43.4844416  73.3720241  98.5207604  44.8895050
  73.4826119  97.3733699  44.3433699  72.4080486  98.8673268  45.7395567
  72.4245937  99.7920275  46.1454560  71.3259066  97.9326080  46.1561217
  71.7351685  96.9227655  46.1847947  70.7692389  98.2680219  47.5235099
  70.3297756  99.2653294  47.5048309  69.6755716  97.2262308  47.9028096
  70.1144182  96.2286634  47.9221463  69.2720767  97.4642393  48.8870069
  68.8736584  97.2555888  47.1651273  71.8637162  98.2347135  48.6501354
  72.6439408  98.9605640  48.4210226  71.4072462  98.4829848  49.6083087
  72.3003859  97.2374486  48.7038299  70.2421765  98.0349031  45.0514355
  69.3730938  98.9038021  45.1558908  70.2239165  97.0739318  44.1989230
  70.9678924  96.3939834  44.2642641  69.2830283  96.9552188  43.1133570
  69.0923653  97.9416111  42.6905368  69.8105321  96.0619597  42.0282634
  69.8272657  95.0492230  42.4309837  69.0405809  96.1342750  41.2601191
  71.1883156  96.3929586  41.4092922  71.9405824  96.4553541  42.1956142
  71.5754256  95.2667228  40.4106708  70.8238141  95.2040281  39.6237474
  72.5461271  95.4905556  39.9682476  71.6282130  94.3145972  40.9386582
  71.0515821  97.6935153  40.6290632  70.7400162  98.4912754  41.3033072
  72.0110403  97.9514385  40.1807141  70.3056778  97.5700813  39.8438946
  67.8656701  96.4826453  43.4490042  66.9860272  97.1142361  42.8898366
  67.6953546  95.5419592  44.3511884  68.4876605  94.9709755  44.6087311
  66.3945313  95.2599959  44.9861171  65.7887464  96.1656356  45.0167887
  65.6069715  94.1451616  44.1456505  65.6101627  94.5514050  43.1341885
  66.1247459  93.1860187  44.1530403  64.1803426  93.8634217  44.4886205
  63.0541089  94.2685500  43.8115387  62.0343284  93.7855811  44.4442935
  61.0441292  94.0571686  44.0784454  62.4158955  92.9997631  45.4869107
  61.8495593  92.4782901  46.1406913  63.7654540  93.0426517  45.4937181
  64.3252107  92.4698555  46.2330950  66.4943039  94.7657129  46.4521965
  67.3378797  93.8986847  46.7099717  65.5680050  95.1681513  47.3179578
  65.0289358  95.9680667  47.0185597  65.4629360  94.7375937  48.7419780
  66.2395421  93.9730456  48.7631490  65.8765055  95.8777178  49.6654315
  65.1044226  96.6471172  49.6619021  66.0046797  95.4969892  50.6787022
  66.8165578  96.3054550  49.3169465  64.1471318  93.9876137  49.1426206
  63.1596893  94.6905936  49.3733447  64.1234106  92.6770511  49.1677972
  64.8578387  92.1684564  48.6965794  63.0218485  91.9215101  49.7450706
  62.0653107  92.3145870  49.4006505  63.1345365  90.5019813  49.3160479
  63.1018465  90.4527258  48.2276526  64.0372475  90.0074049  49.6746664
  61.9984515  89.7105133  49.8068781  60.6573505  89.7185335  49.3474155
  60.0060249  88.7860026  50.0864623  58.9372047  88.6211626  49.9502640
  60.9150753  88.1842571  50.9352943  60.7243556  87.4215698  51.5693557
  62.1502748  88.8004053  50.7787295  62.9932449  88.4970415  51.3995943
  62.9837475  92.1011813  51.2580909  64.0922096  92.0768733  51.8810891
  61.8021456  92.2540403  51.8615576  60.9716189  92.2507584  51.2868281
  61.6440611  92.4399059  53.3250846  62.6232114  92.5502556  53.7911175
  60.8161346  93.6967453  53.6206558  59.8276709  93.5691255  53.1793489
  60.7203944  93.7992083  54.7015976  61.4780177  94.9639869  53.0409554
  62.5452705  94.8631527  53.2381987  61.3170486  95.0872436  51.9699752
  60.9732640  96.1902562  53.7464655  60.3952803  96.1998807  54.8561525
  61.0798018  97.3144318  53.0937467  60.7574375  98.1730125  53.5168565
  61.4841682  97.3211134  52.1682498  60.9075948  91.1120946  53.8273921
  59.8132752  90.8058502  53.3440401  61.4525964  90.3005943  54.7091690
  62.4518879  90.1648221  54.7646812  60.5903369  89.4940631  55.5838919
  59.8375338  88.9401080  55.0230707  61.5164255  88.5012775  56.2646903
  62.3258223  88.9787300  56.8169722  60.8949951  87.9293726  56.9537832
  62.1641175  87.4957973  55.3263696  61.4842444  86.3444920  54.9350838
  60.6102568  85.9724619  55.4697231  61.9599110  85.6615692  53.8149250
  61.3090926  84.9016788  53.3823712  63.1997633  85.9133504  53.2518960
  63.5952951  85.3103235  52.4345754  63.9522175  86.9808630  53.7638124
  64.9481664  87.1726997  53.3645821  63.4299086  87.8051032  54.7887195
  64.0043679  88.6593529  55.1469847  59.7638220  90.2959951  56.5918577
  59.8481006  91.4894766  56.7388027  58.8438091  89.5565392  57.2500455
  58.6497223  88.6168435  56.9347649  57.9430063  90.1592002  58.2982784
  57.4983181  91.0662962  57.8889760  56.8293550  89.2299078  58.7386491
  57.3237960  88.3193488  59.0770416  56.3247383  89.7032268  59.5809266
  55.7837764  88.8749939  57.6403138  56.3106965  88.3659573  56.8332588
  54.6548815  87.9801992  58.1559809  54.1271714  88.4887869  58.9628015
  53.9589702  87.7682355  57.3442669  55.0731265  87.0452099  58.5287630
  55.1633001  90.1814190  57.0790538  55.9490652  90.8010112  56.6468754
  54.4310754  89.9353408  56.3100325  54.6731907  90.7271112  57.8853488
  58.6930072  90.7730934  59.5009237  59.8767436  90.5825785  59.7111956
  58.0950320  91.6126565  60.3209069  57.1604695  91.9052362  60.0737442
  58.6581112  92.0934496  61.5639828  59.6332443  92.5510292  61.3971432
  57.7113700  93.1538839  62.1449906  56.8000513  92.6042599  62.3805981
  58.1934265  93.4705931  63.0698781  57.3571348  94.4007843  61.2938885
  57.0739564  95.1599213  62.0230125  58.2483113  94.7271621  60.7578064
  56.2222075  94.2385063  60.2959633  55.6369342  93.1961959  60.1544633
  55.9475122  95.2691262  59.5569732  55.2023519  95.2151511  58.8773232
  56.4801510  96.1204482  59.6648994  58.7590147  90.9869080  62.5899176
  57.8271397  90.3022236  63.0198832  60.0251057  90.7851237  62.9323890
  60.6884807  91.2730152  62.3475858  60.5201258  89.7868025  63.8353751
  61.6013948  89.9027688  63.9095939  59.9176973  89.8744201  65.2495494
  58.8781765  89.5775242  65.1104504  60.4121215  89.1645983  65.9127218
  59.9480403  91.2643104  65.9069066  60.5821168  92.1927204  65.4358570
  59.3370572  91.4386822  67.0513838  59.3493705  92.3465744  67.4937411
  58.8561791  90.6645158  67.4867267  60.5294450  88.3833455  63.2271387
  60.6145952  87.4324596  63.9706179  60.5479085  88.3722226  61.8985115
  60.3638059  89.2558587  61.4453085  60.6811651  87.1671768  61.0551846
  60.5236238  86.2935424  61.6876740  59.6977777  87.1116823  59.8958471
  58.6902010  87.0417810  60.3057279  59.7931335  88.0339094  59.3226939
  59.9663410  85.8851675  58.9593045  60.8769140  86.1430583  58.4185181
  60.1007229  84.9260740  59.4594848  58.7687358  85.7848710  57.9490592
  58.1800887  84.6935780  57.9554861  58.4975795  86.6685502  57.1109284
  62.1682816  87.1819615  60.6791369  62.6126660  87.9301619  59.8159466
  63.0104005  86.3646818  61.2730980  62.6499255  85.6252836  61.8591420
  64.4405118  86.4343850  61.0576753  64.6901697  87.4884751  60.9365794
  65.3364276  85.8375087  62.1778591  65.2033512  84.7577801  62.2455067
  66.3237477  86.0566154  61.7712988  65.2137575  86.4408752  63.5406250
  64.0130098  86.7081938  64.2030528  63.0594595  86.5522999  63.6985349
  64.0392008  87.1870367  65.5452460  63.1081143  87.5217797  66.0025499
  65.2411641  87.3484889  66.2202123  65.2402729  87.6574480  67.5804907
  64.3563684  87.7347091  67.9470193  66.4434177  87.0621257  65.5321517
  67.3916153  87.2102577  66.0489483  66.4311673  86.6008525  64.2241486
  67.3684088  86.3607512  63.7221229  64.8469103  85.6120534  59.8448876
  64.6265660  84.3681749  59.8335460  65.6146416  86.1487482  58.9164273
  65.6752746  87.1568374  58.9030481  66.3639107  85.3883858  57.8950803
  65.8488235  84.5656073  57.3992780  66.6313429  86.4779440  56.8745726
  67.1548831  87.3050289  57.3540893  67.2461280  86.0781811  56.0681427
  65.6854976  86.8348132  56.4669939  67.6269339  84.7746484  58.5046646
  68.4413902  85.4182317  59.1221065  67.7755321  83.4085550  58.4291517
  67.0278747  82.8637313  58.0238432  68.9208231  82.6948583  59.0128077
  69.4669974  83.3629630  59.6787123  68.4476458  81.4589774  59.8279070
  67.6304067  80.8868571  59.3887056  69.3711722  80.8841702  59.7586556
  68.1331158  81.7495551  61.3100124  69.0830851  82.0728936  61.7355842
  67.0608634  82.7644408  61.6414741  66.1104366  82.4415344  61.2165984
  66.9637912  82.8509093  62.7236945  67.3348582  83.7329998  61.2232389
  67.4126251  80.4955908  61.7811362  68.0675113  79.6326486  61.6604950
  67.1442675  80.6032913  62.8320815  66.5090401  80.3509304  61.1889315
  70.0162157  82.2626469  58.0173548  71.2089905  82.3820505  58.4078787
  69.6126788  81.7828419  56.8200966  68.6661152  82.0428896  56.5824164
  70.4282232  81.0569426  55.7950227  71.4884597  81.2241528  55.9848606
  70.1539084  79.5551210  55.8471598  70.6616959  79.1569233  54.9687011
  70.6676335  79.2175839  56.7473016  68.8572891  79.1089794  55.8667050
  68.8494697  78.1495701  55.8994543  70.0043485  81.4082598  54.3673184
  68.9072598  81.9399865  54.1645081  70.8660213  81.1001812  53.4161834
  71.4976594  80.3364025  53.6105407  70.9640848  81.7796059  52.0912900
  69.9861751  82.0981825  51.7303179  71.8261338  83.0018431  52.2905352
  71.3598365  83.5176866  53.1299228  72.8390329  82.7061210  52.5638187
  71.8774631  83.9423048  51.0764099  72.1995485  83.3506890  50.2194662
  70.5458086  84.6047856  50.7625938  70.2232785  85.1969929  51.6189604
  70.6580505  85.2539053  49.8941779  69.7998559  83.8391750  50.5492974
  72.9613973  84.9383850  51.3782657  73.9081753  84.4157425  51.5144849
  73.0507941  85.6410808  50.5498166  72.7125674  85.4818608  52.2897572
  71.6235566  80.8183489  51.0584624  72.8472518  80.4249389  51.2775595
  71.0013965  80.4328645  49.9060876  70.0184097  80.6478815  49.8188863
  71.6446228  79.6182345  48.8353043  72.7263918  79.5574723  48.7162115
  71.0648114  78.1476896  48.9553353  70.0156209  78.2420335  49.2353313
  71.1782502  77.3145610  47.6767903  72.2272619  77.2193828  47.3964040
  70.7575351  76.3239657  47.8494759  70.6308716  77.8060503  46.8724790
  71.4367227  77.2819350  50.1989771  71.0962739  77.7822361  51.1055616
  70.9560546  76.3068041  50.1203802  72.5180252  77.1510993  50.2410234
  71.4564444  80.2565533  47.4765008  70.3544498  80.7910026  47.2387259
  72.4131280  80.0666798  46.5848178  73.2886645  79.6714283  46.8967655
  72.3302208  80.5870359  45.1942219  71.2672224  80.6670149  44.9667645
  72.9789655  81.8920543  44.8984463  72.5420460  82.6994044  45.4861421
  74.0538109  81.8548622  45.0757153  72.7276566  82.1321964  43.4786282
  73.1241398  82.9674589  43.2202923  72.7938256  79.4435133  44.2554229
  73.9753298  79.0548586  44.3289992  71.9342040  78.9104449  43.3507031
  71.0560782  79.3712033  43.1591409  72.1762641  77.5687564  42.7439932
  73.1534213  77.5234934  42.2631458  72.1383556  76.5224297  43.8897045
  72.5309101  75.5679209  43.5391149  72.7318805  76.8703016  44.7351709
  70.4852979  76.1755296  44.5452032  70.8788755  75.2837950  45.4500812
  71.2340984  77.2509415  41.5657676  70.4288850  78.1235458  41.1914453
  71.3032444  76.0247076  40.9791817  72.1714712  75.5264777  41.1135270
  70.3004985  75.4627249  40.0049466  69.3276609  75.9342685  40.1439894
  70.7942737  75.7491766  38.5326982  69.9982896  75.4524234  37.8497296
  70.9694778  76.8211536  38.4417649  72.1082313  74.9727032  38.1723878
  72.8828555  75.3068066  38.8626291  71.9131397  73.9122047  38.3317118
  72.5935025  75.2011456  36.6859760  73.6026055  74.7893970  36.6694433
  71.9340697  74.5693772  36.0908991  72.6104511  76.6416400  36.0892771
  71.5737063  76.9638059  35.9919642  73.1238535  77.2827207  36.8058890
  73.2757302  76.7355989  34.7854150  72.7998923  76.1419621  34.1211309
  73.2488351  77.6920053  34.4618977  74.2365331  76.4375228  34.8754572
  69.9800453  74.0274738  40.3579767  70.9213787  73.2415638  40.6290301
  68.7181238  73.6652398  40.4564940  68.0411062  74.3843179  40.2451338
  68.2220292  72.3591573  40.9906030  69.0402353  71.7300188  41.3410639
  67.3107413  72.6906588  42.1845603  66.4815089  73.3070489  41.8373771
  66.9280148  71.7331182  42.5377407  68.0365088  73.4090518  43.3363081
  68.5350998  74.2966427  42.9468339  67.0217987  73.8250755  44.4279187
  66.5231070  72.9379076  44.8182244  67.5461378  74.3323805  45.2377402
  66.2803460  74.4984127  43.9978428  69.0663238  72.5454788  44.0599192
  69.8300984  72.2209856  43.3532000  69.5321409  73.1254409  44.8566372
  68.5731686  71.6724554  44.4873850  67.5490895  71.3962068  39.9107568
  66.6982178  71.8129628  39.1339675  68.0791256  70.1587914  39.9338596
  68.9157308  69.9029447  40.4385710  67.4017532  69.1463773  39.1887547
  68.0073454  68.2512604  39.3306099  66.4470297  69.0232964  39.7000800
  67.1512005  69.3359352  37.7345466  68.1033454  69.7661834  37.0192875
  65.9718004  68.9052170  37.2363083  65.3486473  68.3268310  37.7815139
  65.5870857  69.2248017  35.7994088  66.3603123  68.9054795  35.1006577
  64.3225304  68.4673334  35.4963728  64.1056219  68.6911158  34.4518771
  64.5955982  67.4165398  35.5931543  63.0739933  68.7542159  36.3527889
  63.3704743  68.5117896  37.3732934  62.9142932  69.8290355  36.2669938
  61.7384457  67.9951012  35.9996393  61.9148541  66.9232379  36.0895728
  60.9696370  68.2971937  36.7108162  61.2678692  68.3209880  34.5629223
  60.6044247  69.1851704  34.5965507  62.1389198  68.5558876  33.9512099
  60.5345372  67.1477820  33.9632151  59.7271238  66.9302284  34.5296546
  60.2360753  67.3803322  33.0267639  61.1492582  66.3470225  33.9315695
  65.3829092  70.6668289  35.4006526  65.4250926  70.9699009  34.2502358
  65.0329021  71.5383537  36.3716035  64.9812333  71.1895595  37.3180560
  64.7154940  72.9417230  36.1336459  64.0815976  73.0329925  35.2516344
  63.9918401  73.5165382  37.3012603  63.2423684  72.7800830  37.5911311
  64.7509284  73.5876353  38.0802533  63.3212261  74.8814221  37.1161277
  62.6296795  75.3423598  38.1110370  63.5355040  75.4598577  35.9819393
  66.0142632  73.8202472  35.8821985  66.8683391  73.7527468  36.7469383
  66.1591411  74.5960116  34.7896153  65.4119467  74.2886577  33.6369578
  64.3796262  74.5953837  33.8052841  65.4492661  73.2105148  33.4810278
  66.0683488  75.0548353  32.5159296  65.6775994  76.0709114  32.4611268
  65.9106226  74.5534626  31.5610216  67.5399561  75.0458371  32.8969439
  68.1119216  75.8607466  32.4532358  68.0105766  74.0947001  32.6480377
  67.4813630  75.2205968  34.4399134  68.2303608  74.6394506  34.9778444
  67.6591554  76.7002031  34.7624427  68.7836510  77.2285662  34.6168060
  66.6347045  77.3783432  35.2392711  65.7085351  77.0578911  34.9950988
  66.7599569  78.6172870  36.0082678  67.1563845  79.4309176  35.4008555
  65.3443784  78.9921185  36.4663070  65.0185742  78.1354553  37.0562893
  65.3390871  79.8856651  37.0905237  64.3541375  79.1961178  35.3079736
  64.2304503  80.3119389  34.8366015  63.5677257  78.2439953  34.8680086
  62.9343244  78.4293457  34.1034513  63.5989089  77.3295269  35.2956485
  67.7745466  78.5184393  37.1882182  67.8880801  77.4699904  37.8873707
  68.4498774  79.5840713  37.3928588  68.4034717  80.3107539  36.6929459
  69.2897136  79.8155939  38.5909925  69.5670878  78.9167719  39.1417027
  70.5923438  80.6372985  38.2825834  70.2899041  81.3893513  37.5538537
  71.2860287  81.3061337  39.4323999  71.5891976  80.5546139  40.1613760
  72.1670892  81.8345323  39.0682206  70.6065234  82.0158989  39.9042117
  71.5156726  79.8648606  37.5305437  72.3016632  80.3873435  37.3549570
  68.4092373  80.6131888  39.5995567  67.8545152  81.6412902  39.2891697
  68.3828185  80.1604690  40.8413299  69.1454227  79.5298921  41.0435846
  67.4285431  80.4775232  41.9261069  66.7517251  81.2732219  41.6148511
  66.6179624  79.2578052  42.2487148  67.2522239  78.3769736  42.3484505
  66.1874723  79.5066228  43.2186983  65.5282006  78.9752935  41.2821093
  64.4888408  79.8856616  41.0380189  64.4564178  80.8280177  41.5848400
  63.4612625  79.5775379  40.0637830  62.7383616  80.3409787  39.7762519
  63.4971221  78.3659551  39.3875402  62.4204977  77.9135477  38.6767938
  61.6726330  78.5147770  38.7054509  64.6029963  77.5529311  39.5854899
  64.6512600  76.6641422  38.9563434  65.5975327  77.8030480  40.4969529
  66.4250009  77.1020986  40.6068007  68.1154546  80.9041922  43.2434334
  69.1222331  80.2417375  43.6196804  67.5767473  81.9216324  43.9859244
  67.0566063  82.6063722  43.4561282  67.8522799  82.1980076  45.3878219
  68.8453944  81.8305701  45.6463031  67.8004777  83.7016059  45.6632371
  66.8982142  84.0255317  45.1444965  67.7422140  83.9963735  46.7110050
  68.9908365  84.5055754  45.0368633  70.2952663  84.4423019  45.5924940
  70.5149964  83.7463287  46.4020864  71.2934337  85.2719138  45.1003326
  72.2915526  85.2323469  45.5365594  71.0172437  86.1767181  44.0248530
  71.7875086  86.8525086  43.6532362  69.7174444  86.1868319  43.4396654
  69.5134559  86.7841037  42.5509836  68.7123602  85.4308527  44.0088877
  67.6841738  85.5437800  43.6651144  66.9842840  81.3212271  46.3073011
  65.7985227  81.1375442  45.9129044  67.5038469  80.7543843  47.4186789
  68.4972896  80.7605692  47.6007026  66.5964538  80.1086603  48.4320344
  65.5424321  80.3295318  48.2636507  66.8402876  78.5714908  48.2647435
  67.8811388  78.3247983  48.4741995  65.9203772  77.8411142  49.2821298
  64.8792611  78.0869687  49.0730044  66.0635705  76.7641444  49.1941957
  66.1721197  78.1591867  50.2938386  66.5193957  78.1618588  46.7816416
  65.5505511  78.5944314  46.5319980  67.2891045  78.6082157  46.1520280
  66.4797810  76.6642124  46.5460577  65.7099366  76.2171861  47.1750307
  66.2524051  76.4665568  45.4985217  67.4484900  76.2309700  46.7950630
  67.0034723  80.5942150  49.8412379  68.1997480  80.5770224  50.0971950
  66.1197868  80.9232001  50.7386016  65.1732955  80.6610515  50.5029498
  66.3740010  81.4907274  52.0675470  67.4633398  81.5143937  52.0972103
  65.8520025  82.9272087  52.1298032  64.7638221  82.8651903  52.1405913
  66.3241482  83.7266940  53.3281987  67.4122858  83.7895441  53.3178430
  65.9022997  84.7308160  53.2847998  65.9978148  83.2353671  54.2448262
  66.5285436  83.7868007  50.9784737  66.2835447  83.3532140  50.0088963
  66.1568411  84.8105196  51.0224793  67.6102458  83.7874784  51.1127148
  65.5175363  80.7370365  53.0657216  64.3129876  80.6778664  52.9023349
  66.1833353  80.2518978  54.0959609  67.1894997  80.1894455  54.0340558
  65.5273959  79.7937401  55.3404094  64.5567625  79.4026359  55.0354380
  66.1452352  78.9783019  55.7164872  65.3247417  80.8073840  56.4446391
  66.0861497  81.7191805  56.6286556  64.3267251  80.6216654  57.3040094
  63.8098319  79.7549196  57.3449051  63.9045510  81.7242628  58.1728898
  64.7404829  82.3449957  58.4953920  62.8259352  82.6427844  57.5127148
  62.6382385  83.4452152  58.2261396  63.1775321  83.2290818  56.1863529
  63.3649283  82.4272003  55.4722321  62.3521586  83.8459322  55.8308908
  64.0727095  83.8429966  56.2856832  61.5843930  81.9693613  57.3974095
  60.9403293  82.5531713  56.9900421  63.3861363  81.1634500  59.4888918
  63.4983130  79.9292597  59.6736366  62.9335037  82.0138589  60.4240916
  62.9761285  83.0008541  60.2140369  62.3533919  81.6069343  61.6785068
  61.7533021  80.7087087  61.5329657  63.4366155  81.3053959  62.6854951
  64.0404378  82.1980753  62.8486581  62.9823945  80.9974840  63.6272879
  64.0703617  80.5025682  62.3087557  61.5301211  82.6569143  62.2884242
  61.6707235  83.8506611  62.0650915  60.7091627  82.2627447  63.2585312
  60.3339010  81.3253422  63.2349814  60.2384131  83.1830476  64.3249544
  60.8013226  84.1146000  64.3836262  58.8013331  83.5033735  63.8593178
  58.4270552  82.5998057  63.3780898  58.2235437  83.6993204  64.7625699
  58.6641704  84.6790269  62.9054859  59.0131513  85.5740746  63.4204644
  59.2988107  84.4875831  62.0402211  56.9704954  84.9372123  62.3517212
  56.7099176  86.6798616  62.1540304  57.4086971  87.0706458  61.4143724
  55.6884812  86.8592664  61.8184976  56.8721569  87.1824908  63.1075206
  60.3506446  82.6080636  65.7380419  60.1782646  81.3971254  65.8839560
  60.4198985  83.4558754  66.7525684  60.4639614  84.4417214  66.5374744
  60.5645755  83.0442367  68.1459945  60.6088671  81.9577475  68.2213512
  61.8354930  83.6379301  68.8017276  61.6724367  84.7047727  68.9545638
  62.1667459  82.9496186  70.1917624  62.3303950  81.8827621  70.0396533
  63.0657875  83.3979163  70.6146735  61.3320213  83.0944797  70.8775843
  63.0845320  83.5200645  67.9120692  62.9163750  84.0532005  66.9763388
  63.9410187  83.9540153  68.4280314  63.2826633  82.4693250  67.7004299
  59.2951091  83.3652611  68.9684799  59.1516924  84.3719472  69.6788664
  58.3282281  82.4321171  68.8844190  58.4143171  81.7526303  68.1421348
  57.1653399  82.4253631  69.6559884  56.7354278  83.4264031  69.6905393
  56.1267371  81.4637368  69.0425431  56.5923931  80.4786836  69.0119845
  55.2790527  81.4432387  69.7274599  55.6427962  81.8402508  67.6466218
  54.7675155  80.9166090  67.0646421  54.5013033  80.0010354  67.5928046
  54.2259025  81.1772711  65.7798480  53.4199305  80.5492900  65.4001763
  54.6782607  82.2872043  65.0204691  54.3173461  82.4876366  63.7064609
  53.7351927  81.8030543  63.3687569  55.5782549  83.1710906  65.6160776
  55.9538424  84.0107867  65.0313169  56.0078746  82.9920723  66.9640128
  56.6167144  83.7557537  67.4479599  57.4633415  82.1287116  71.1702760
  58.0911564  81.0909125  71.5627750  56.8933679  82.9519801  72.1379020
  56.3241529  84.2816078  71.8787676  55.4852588  84.1989268  71.1877388
  57.0843694  84.9345734  71.4500418  55.8738574  84.7476160  73.3353806
  54.8132368  84.5460596  73.4855735  56.0627652  85.8131206  73.4662058
  56.7330598  83.9254420  74.2780338  56.1924582  83.7009088  75.1975085
  57.6403084  84.4803856  74.5168584  57.0831896  82.6553663  73.5713310
  58.1432114  82.4527624  73.7243135  56.2595515  81.4628362  74.0666304
  56.4078071  81.0364556  75.1762063  55.3613208  80.9323217  73.2432605
  55.3228594  81.2832778  72.2969784  54.4301051  79.8748844  73.6280068
  54.1023164  80.0012277  74.6598454  53.1604234  79.9618896  72.6778949
  53.5520604  79.8805887  71.6639374  52.5654311  79.0783190  72.9089517
  52.2610241  81.2407610  72.7892402  52.9373064  82.0748870  72.6022188
  51.4700877  81.2397545  72.0392283  51.6312612  81.3906031  74.2082053
  52.3846280  81.8012669  75.1906042  50.4519041  81.0207084  74.3034933
  55.0872294  78.4569779  73.4840868  54.4373307  77.4355359  73.8443767
  56.2980427  78.3495592  72.9012811  56.6396651  79.2415140  72.5729366
  57.1019169  77.1779906  72.6573952  56.7469856  76.3223216  73.2318110
  56.9750576  76.8524339  71.1641117  57.1381562  77.7790502  70.6137662
  57.7630269  76.1406988  70.9178646  55.6294625  76.2682765  70.7818933
  54.8499501  76.9993628  70.9963088  55.6641192  76.0789531  69.7090211
  55.3230802  74.9695570  71.5167011  54.1203754  74.7822418  71.8676659
  56.2061890  74.1475839  71.7221010  58.6027632  77.3763363  73.0702150
  59.2083201  78.3654879  72.6016332  59.1497326  76.4993658  73.8838686
  58.5467330  75.8298730  74.3402349  60.6195799  76.5053258  74.2463315
  60.9825466  77.5082481  74.4710566  60.8179675  75.6233575  75.4851153
  60.4675025  74.6133543  75.2725881  61.8762134  75.5931167  75.7445402
  60.2513933  76.0358378  76.3199525  61.4240300  76.0445316  72.9840800
  62.3028672  76.7516729  72.4695527  61.0394031  74.9518630  72.3892225
  60.5198112  74.2475064  72.8932120  61.5352286  74.6264752  71.0809164
  62.6242786  74.6540853  71.0447644  61.0709689  73.1966618  70.7780623
  61.3911354  72.6043046  71.6352121  59.9823302  73.2474581  70.7584245
  61.5798064  72.5346110  69.4748351  61.4749175  73.1494032  68.5808945
  62.6347194  72.4514631  69.7362622  61.0011580  71.1180116  69.1999565
  60.3783959  70.5257658  70.0812994  61.0371340  70.7534957  68.0290019
  61.2465048  75.6808891  69.9778893  60.2364696  76.3798940  70.1494967
  62.1741073  75.9768712  69.0375695  63.5951452  75.6190805  69.0032340
  63.6416881  74.5357546  68.8921523  64.0122693  75.9029804  69.9694158
  64.2666152  76.3645029  67.8305126  64.3678397  75.7211170  66.9564948
  65.2465680  76.7487355  68.1136365  63.2798994  77.5156161  67.5694674
  63.2718958  77.7323598  66.5012646  63.4784848  78.4326043  68.1242611
  61.9485249  76.9398918  67.9860635  61.3794427  77.7973764  68.3451789
  61.1218980  76.1858392  66.9042355  61.6280472  75.6163026  65.9522801
  59.8191575  76.2323932  67.1285431  59.4247486  76.8439847  67.8288978
  58.9127683  75.2927637  66.4245565  59.4574710  74.3937978  66.1360110
  57.7768308  74.8971929  67.3298387  57.3935554  75.8079432  67.7899834
  57.0017991  74.4520299  66.7059351  58.1836710  73.9051999  68.4235845
  58.9767152  73.2653229  68.0366229  58.5555393  74.4652485  69.2815831
  56.9796349  73.0292266  68.8605398  56.2265350  73.6720642  69.3162803
  56.5592002  72.5472127  67.9779319  57.4195153  71.9481739  69.8784785
  57.9087609  71.1581498  69.3087405  58.1439516  72.4172394  70.5442630
  56.2725343  71.3452151  70.7112745  55.6013617  70.9101422  70.0945585
  56.6448834  70.6531300  71.3456831  55.8193293  72.0770381  71.2396110
  58.4270468  75.8882885  65.1101465  57.6397271  75.1491672  64.4274889
  58.8589317  77.0264651  64.6143869  59.5432208  77.5446311  65.1466948
  58.2606564  77.6709822  63.4268641  57.8485077  76.9153351  62.7581115
  57.1189810  78.6214665  63.8628386  56.8297868  79.2223201  63.0006085
  56.2729145  78.0121570  64.1806648  57.5606083  79.5853272  65.0596966
  58.5694409  79.9657162  64.8995033  56.8467136  80.4050551  64.9790572
  57.4784408  79.0125476  66.4435744  56.7228469  78.1243344  66.7994384
  58.3945546  79.4724248  67.2813861  58.4138937  79.1410609  68.2352863
  59.0698959  80.1525069  66.9627896  59.2994062  78.3185181  62.5071896
  60.0806481  79.1554256  62.9811515  59.1655955  77.9497074  61.2534156
  58.4297524  77.3095112  60.9911502  60.0860712  78.4568458  60.1780691
  60.3309833  79.5019803  60.3673076  61.0016423  77.8654435  60.1695796
  59.3893622  78.3409583  58.7741173  58.3304284  77.7049166  58.6670467
  60.0951623  78.8018984  57.7245795  60.8107484  79.4842593  57.9305390
  59.7933298  78.5123738  56.3156527  59.5864217  77.4468445  56.2159753
  58.6326326  79.2661262  55.8128681  58.4565965  78.9969155  54.7714095
  57.7558657  79.0090392  56.4072469  58.8943103  80.7763593  55.9137687
  59.2390665  81.0131121  56.9203432  59.6622657  81.0552404  55.1922621
  57.6559850  81.5274035  55.6288179  57.3343280  81.2647023  54.6210362
  56.9012209  81.2051110  56.3461451  57.8002671  83.0678336  55.7182537
  57.9484642  83.4239548  56.6516961  57.6537288  83.9379714  54.7227284
  57.4484750  83.5776455  53.5034348  57.3931206  82.5959149  53.2726948
  57.3438387  84.2785059  52.7837504  57.8176355  85.1925082  54.9476262
  58.0561045  85.5089527  55.8766555  57.7072115  85.8561294  54.1942921
  61.0435523  78.6806962  55.4260903  61.8448181  79.5737219  55.7227169
  61.2274431  77.7522815  54.4741890  60.7961033  76.8513262  54.6236043
  62.0271814  77.9489549  53.2556993  62.9121024  78.4681539  53.6237297
  62.4720431  76.5818780  52.5225459  61.5978541  76.1084972  52.0755508
  63.4753726  76.8902189  51.4517552  64.3501043  77.3632312  51.8980784
  63.7752224  75.9663280  50.9571679  63.0311862  77.5655613  50.7205164
  63.2516485  75.5668505  53.4709317  64.3127594  75.8156986  53.4857340
  62.8512088  75.6249660  54.4830434  63.0654760  74.1224438  52.9218571
  63.4661270  74.0634262  51.9098811  63.5951569  73.4182204  53.5634231
  62.0045755  73.8726944  52.9071884  61.2533997  78.8003700  52.1931117
  60.1360368  78.4163659  52.0027519  61.7996646  79.8909071  51.6814550
  62.5797309  80.2804286  52.1912283  61.3015356  80.6266357  50.4715674
  60.4727479  80.2085285  49.9002563  60.9302598  82.0880723  50.8955762
  61.8492093  82.6704189  50.9626841  59.9499253  82.7679544  49.8550198
  59.0304963  82.1863875  49.7877063  59.7155670  83.7804181  50.1837960
  60.4277492  82.8058510  48.8760664  60.4536726  82.3873819  52.2925040
  61.2239652  82.1016068  53.0088028  60.2486570  83.4538079  52.3863323
  59.5429714  81.8236631  52.4948536  62.3526215  80.5970480  49.3028399
  63.5372086  80.5504721  49.6003060  61.8976890  80.8500426  48.0884853
  61.0073839  81.3240784  48.0360803  62.5831329  80.5410722  46.8541815
  63.6559557  80.4648384  47.0312094  62.0926244  79.2207129  46.2141793
  61.0152209  79.2593111  46.0535212  62.7908328  79.0513826  44.8919738
  63.8683293  79.0122328  45.0518787  62.4599446  78.1253738  44.4217386
  62.5506947  79.8937143  44.2431961  62.2793506  77.8730057  46.9813486
  61.7504072  77.9198873  47.9332535  61.8778350  77.0551147  46.3830683
  63.3403018  77.7021941  47.1638502  62.2532296  81.6897138  45.8958312
  61.0764093  82.0608007  45.7613414  63.2965132  82.4197203  45.3460824
  64.2122983  82.0796546  45.6025827  63.2118846  83.5949706  44.5193843
  62.1884552  83.7262426  44.1680168  63.6384405  84.8947754  45.3480569
  64.7278214  84.9305956  45.3561461  63.2525519  85.7241156  44.7552797
  63.1881247  85.1330646  46.7683794  62.1921700  86.0096160  47.0717290
  61.7501912  86.6464330  46.3054270  61.7312330  86.0862688  48.4082249
  60.9271776  86.7732380  48.6721736  62.3056856  85.2842596  49.3825629
  61.8772913  85.2936950  50.3848050  63.3920403  84.4887645  49.1070470
  63.9274250  83.9548272  49.8921421  63.8043844  84.3749349  47.7816244
  64.6130156  83.6928110  47.5190933  64.0544589  83.5464554  43.2525974
  64.9469546  82.7134715  43.1149920  63.7950231  84.3863303  42.2414410
  62.9930820  84.9858604  42.3739305  64.5502329  84.4550947  40.8849604
  65.5757217  84.0992124  40.9840546  63.8006238  83.5342865  39.8896532
  63.9747552  82.4886957  40.1436556  62.7310479  83.7419703  39.9208784
  64.3442593  83.8183084  38.4524911  63.9841679  84.8016743  38.1501227
  65.4340985  83.8100481  38.4356314  63.8470671  82.8115987  37.4809452
  63.1792457  81.8385216  37.7553654  64.1739168  82.9313122  36.1964286
  63.8404278  82.2513870  35.5281560  64.7539554  83.7015412  35.8957560
  64.5805859  85.9764886  40.5242288  63.7367367  86.7515163  41.0239883
  65.5394688  86.4116657  39.7403964  66.2090388  85.7328058  39.4073429
  65.7806434  87.8031026  39.4592288  65.0111176  88.4574984  39.8687352
  67.1133042  88.1050249  40.1706965  67.2421254  87.7770425  41.2021672
  67.8301377  87.5874812  39.5332027  67.3424193  89.5692687  40.0851094
  66.8189518  90.5168062  40.9867021  66.2162336  90.2041765  41.8393995
  67.0850976  91.8916873  40.7735297  66.5726467  92.6739341  41.3335170
  67.8731970  92.2315191  39.6232764  68.1456514  93.5897794  39.4123291
  67.7612960  94.1581414  40.0837718  68.5486570  91.2721185  38.8591957
  69.2381831  91.5374505  38.0577888  68.3103830  89.9336640  39.1575812
  68.8871754  89.1534965  38.6608426  65.7173835  88.1744382  37.9815418
  66.2073047  87.4243371  37.0984566  65.0629717  89.2628702  37.6615542
  64.6814611  89.8128821  38.4178847  64.8085555  89.7100204  36.2670141
  65.7353057  89.7549448  35.6949870  63.8381907  88.6500538  35.5812240
  64.4450448  87.7668267  35.3818820  63.0784617  88.4080672  36.3244295
  63.2284833  89.0580937  34.4196207  62.6683737  88.3527569  34.0873903
  64.1809878  91.1714780  36.3086468  63.7130462  91.6915455  37.2843084
  64.2187408  91.8083140  35.1372781  64.7584820  91.3582943  34.4118395
  63.7546902  93.1880857  34.9087061  64.4077826  93.6787606  34.1870361
  62.3509369  93.1993995  34.3714885  61.6613895  92.9427369  35.1756949
  62.1991584  94.2390721  34.0814123  62.0907312  92.2908416  33.1672956
  60.8961870  92.1720804  32.8207428  63.1075224  91.7710361  32.5506871
  63.9833364  94.1844217  36.0639296  63.0005249  94.8498617  36.4819884
  65.1474841  94.1827516  36.7120804  65.8114194  93.4775841  36.4256751
  65.5525862  95.1535923  37.8426195  66.6187512  95.0325034  38.0342672
  65.3576148  96.1722739  37.5073983  64.7889925  94.9025485  39.1273092
  64.7059721  95.7939103  39.9829492  64.1854777  93.6905622  39.2545253
  64.3672318  93.0465711  38.4979935  63.2766635  93.2648886  40.3291735
  63.3692984  93.9590750  41.1644119  61.7805527  93.2340239  39.8677258
  61.7008903  92.5731680  39.0045788  61.1772309  92.8381576  40.6846669
  61.2805623  94.6148489  39.4940978  62.1086858  95.1384160  39.0164056
  60.4728308  94.4806550  38.7746092  60.7667952  95.4496472  40.6990398
  59.8155271  95.0557735  41.0568827  61.4942719  95.4340431  41.5106022
  60.5772503  96.8586572  40.2256460  60.4474131  97.4805929  41.1113315
  61.4916414  97.1498224  39.7087215  59.4186936  97.0413870  39.3200207
  58.5712466  96.7720495  39.7989682  59.3562023  98.0111541  39.0447998
  59.5390124  96.4654970  38.4990620  63.6771139  91.8585980  40.8770350
  64.0410738  90.9274402  40.0803805  63.5047113  91.6285685  42.1962142
  63.6434470  92.4227475  42.8045985  63.2831246  90.3167337  42.8070191
  63.7241100  89.5468072  42.1738965  63.9088314  90.2286844  44.1828023
  64.7553781  90.9072981  44.0782014  63.2771276  90.5609356  45.0066103
  64.4549146  88.7215118  44.4900169  63.5789929  88.0887207  44.3470571
  65.6258030  88.1573764  43.6896317  66.5022815  88.7894220  43.8324698
  65.8475304  87.1467261  44.0324492  65.3649258  88.1325560  42.6316018
  64.7032621  88.6042668  45.9603183  63.7742391  88.7831049  46.5016430
  65.0694010  87.6033476  46.1888014  65.4473844  89.3407854  46.2635035
  61.7974207  89.9077016  42.8210061  60.9822608  90.6962699  43.2987753
  61.3904343  88.6536719  42.5497728  62.1269150  87.9785059  42.4019676
  59.9914822  88.1912526  42.4713534  59.3742591  88.8584877  43.0729613
  59.4404150  88.1701838  41.0427667  60.1725427  87.6385795  40.4349138
  58.5127588  87.5988117  41.0757497  59.1620891  89.5877979  40.4098678
  58.5226648  90.1598544  41.0821688  60.1263959  90.0868494  40.3141499
  58.5121121  89.5365033  39.0574996  58.3735408  88.4645082  38.4762893
  58.0616641  90.6052892  38.4884282  57.6283691  90.5447117  37.5781056
  58.1449344  91.4963717  38.9565514  60.0706030  86.7543058  43.0370025
  60.7978040  85.9556715  42.4120874  59.4329142  86.4534405  44.1377255
  59.1328752  87.2546589  44.6744983  59.1574905  85.0900339  44.6853725
  60.0798703  84.5815088  44.9659381  58.1986110  85.0998577  45.9173881
  57.3739386  85.7376960  45.5993034  57.6449442  83.7948126  46.4746138
  58.4690694  83.1565965  46.7933576  57.0001912  84.0077452  47.3272875
  57.0688109  83.2848880  45.7025077  58.9052733  85.7534879  46.8705465
  58.3842210  85.8067825  47.6750740  58.5517182  84.0586557  43.7169589
  57.7430928  84.4199086  42.8916242  58.8979686  82.7946090  44.0010723
  59.4612518  82.6439442  44.8257610  58.5268601  81.6120184  43.1730318
  57.8515115  81.9360367  42.3811887  59.7511812  80.8520575  42.5147254
  60.3927634  80.5594679  43.3459070  59.4308035  79.6062181  41.6452122
  58.7895903  79.8981241  40.8135046  60.3583026  79.1846984  41.2576984
  58.9192855  78.8599909  42.2531562  60.4137462  81.9770536  41.6556959
  60.7210813  82.7970823  42.3046952  61.2863789  81.5753335  41.1406883
  59.6965319  82.3444798  40.9217324  57.7728825  80.6116231  44.0314519
  56.7894194  80.0812730  43.5080311  58.2816460  80.3057435  45.1763341
  59.1885210  80.6901867  45.3996734  57.6947718  79.3193112  46.0994262
  56.6331151  79.5506516  46.1858317  57.8471931  77.9133154  45.4309873
  58.9047897  77.6636173  45.3458972  57.3454040  77.1633966  46.0424853
  57.3977483  77.9318109  44.4381346  58.2435891  79.4011188  47.5063167
  59.2552468  80.0437909  47.8050380  57.5232107  78.8683276  48.4851800
  56.6060672  78.6151824  48.1462632  57.7594595  78.8283164  49.8921209
  58.8394789  78.7877370  50.0335791  57.2094837  79.9952736  50.6904213
  57.6746968  80.0002280  51.6761451  57.4492106  80.9233205  50.1714223
  55.6807544  79.8734668  50.8447808  55.4663186  79.9907315  49.7825346
  55.1810273  78.9801126  51.2193343  55.1565827  81.1353576  51.6282911
  55.6722170  81.3209936  52.7421841  54.1012467  81.7058726  51.3406740
  57.3900873  77.3916211  50.4139522  56.6528627  76.7035398  49.7071616
  57.8735321  76.9876371  51.5827191  58.6340638  77.5216497  51.9783470
  57.4661678  75.7754117  52.2540022  56.4300653  75.5162116  52.0362728
  58.3760246  74.6637013  51.7068958  58.1932877  74.5800769  50.6355820
  59.4097483  74.9651255  51.8761849  58.1237355  73.3082896  52.3749582
  58.6323708  73.2818117  53.3386438  57.0524960  73.1755097  52.5263434
  58.6418362  72.2129289  51.5106282  58.1385171  72.2537063  50.5446540
  59.7136923  72.3496154  51.3673071  58.3801865  70.8320329  52.1726141
  58.9053932  70.0491499  51.6254827  58.7213231  70.8425733  53.2078020
  56.9065809  70.5642422  52.1354688  56.5903523  70.5540064  51.1763054
  56.7162675  69.6688672  52.5622995  56.4197598  71.2893345  52.6427610
  57.5024704  75.9894666  53.7437018  58.5890163  76.1306669  54.3402482
  56.3079941  75.9494953  54.3571548  55.4554232  75.8724219  53.8211680
  56.2107997  75.9940580  55.7803717  56.6213607  76.9221259  56.1781516
  54.7041977  75.9243536  56.1402908  54.2322608  76.6051304  55.4318293
  54.4231292  74.8989109  55.9003577  54.2633659  76.2442291  57.4847535
  54.8071834  75.5365064  58.1104467  54.5412256  77.2612273  57.7615349
  52.7875916  76.0571224  57.6847714  52.1696955  75.1981007  57.0494588
  52.1314102  76.8261367  58.4331243  56.9239515  74.8157334  56.4510599
  56.6292463  73.7147772  56.0373084  57.6940209  74.9868266  57.5425640
  57.9341290  75.9251947  57.8287680  58.1911209  73.8742828  58.3383221
  57.6813440  72.9309526  58.1424781  59.6899564  73.7027200  58.0093840
  60.1842087  73.1811544  58.8290078  59.8462982  72.8657954  56.6851124
  59.3526596  73.3869914  55.8648827  60.9046030  72.7451980  56.4537086
  59.3900266  71.8849265  56.8185824  60.4270298  74.9922517  57.8760160
  60.3624997  75.5467411  58.8122208  61.4730735  74.7912145  57.6447666
  59.9850138  75.5826740  57.0734425  58.0785437  74.0437696  59.8596835
  58.0385535  75.1528951  60.4101509  58.0752985  72.9502216  60.6321420
  58.0109205  72.0817569  60.1205523  58.0353988  72.8995967  62.0735421
  57.5483222  73.7825038  62.4874631  57.2623243  71.7231917  62.4475141
  56.3741771  71.6796246  61.8171208  57.8747347  70.8385106  62.2731786
  56.8320369  71.7714282  63.9522453  57.7083018  71.7646029  64.6004845
  56.2400717  72.6646606  64.1517827  55.9853542  70.5271156  64.2267517
  55.3452579  70.2720452  63.3821720  56.5972898  69.6648641  64.4916226
  55.1122480  70.9250523  65.4298485  55.7545035  71.3520169  66.2001145
  54.3901458  71.6735495  65.1036285  54.3956588  69.7568913  65.9789503
  55.0646045  69.0633774  66.2816876  53.8320176  70.0468153  66.7653043
  53.8001504  69.3613649  65.2654885  59.4215161  72.9455949  62.7342721
  59.8053612  72.1159747  63.5996403  60.2024925  73.9513195  62.4157147
  59.8256191  74.5458903  61.6914555  61.5343535  74.2936462  62.9885827
  61.3893276  74.4784164  64.0529730  62.1757431  73.4224097  62.8556706
  62.2081222  75.5032341  62.3642865  62.0420533  75.6975394  61.1949800
  63.0831909  76.2546969  63.0278709  62.9618566  76.1779027  64.0276108
  64.0266866  77.2475662  62.5187978  63.4222458  77.9856400  61.9915430
  64.6331035  77.9018854  63.7370436  65.2486781  77.1776594  64.2705834
  65.2507563  78.7450435  63.4277061  63.8382540  78.2559580  64.3935084
  65.0623385  76.7312942  61.4594007  65.7902182  75.7276546  61.7011212
  65.1462993  77.3518983  60.2429612  64.5447498  78.1360986  60.0349529
  65.9903343  76.8136049  59.1628028  66.1368173  75.7407769  59.2880300
  65.2943556  77.0647565  57.7893591  65.3952195  78.1255930  57.5601175
  65.9090467  76.2076986  56.6052462  65.8081269  75.1466690  56.8335714
  65.3780430  76.4318446  55.6801008  66.9641032  76.4546152  56.4869686
  63.7718205  76.7336748  57.7943345  63.2668062  77.3548422  58.5340734
  63.3531739  76.9317215  56.8076166  63.6288619  75.6825185  58.0448026
  67.4186667  77.3274172  59.2016044  67.7904706  78.3258979  58.6056982
  68.2198932  76.7128478  60.0990014  67.8934098  75.8795423  60.5670932
  69.5788015  77.1868751  60.3888936  69.5682787  78.2185615  60.7404780
  70.1598038  76.2972888  61.4962930  70.1308183  75.3543921  60.9502115
  71.1864243  76.5142413  61.7913896  69.2386107  76.1848357  62.8073661
  69.0299104  77.2640030  63.7359623  69.2727731  78.2951622  63.4793927
  68.4928978  76.9580214  65.0145845  68.2225035  77.7583141  65.7034388
  68.0624621  75.6427417  65.2614839  67.8271724  75.3105150  66.5393721
  67.9861019  76.0337451  67.1503380  68.1255899  74.6186130  64.3001404
  67.6373430  73.6531713  64.4329477  68.8642809  74.8838248  63.1168318
  69.1380314  74.0658733  62.4504115  70.5411770  77.0719687  59.1700843
  71.4259407  77.9575184  59.1512205  70.5040853  76.0269480  58.2779476
  69.7295133  75.3807212  58.3282320  71.6007538  75.7352112  57.3277746
  72.0658631  76.6631811  56.9951422  72.6895282  74.8523798  58.0279997
  72.9479642  75.2900490  58.9922381  72.2997275  73.8457616  58.1792451
  73.8757702  74.7914185  57.1904511  74.5428851  74.2505359  57.6194076
  71.0379727  75.1237172  56.0917828  70.0902217  74.3364029  56.1911414
  71.6674297  75.4194007  54.9464797  72.5408542  75.9236860  55.0005653
  71.1238802  75.0675133  53.5745631  70.6801496  74.0724554  53.6071524
  70.0660190  76.0547801  53.1268130  70.5941771  77.0069386  53.0763910
  69.8072581  75.7296136  52.1191377  68.7911375  76.2233045  53.9499670
  68.5599359  75.2014188  54.2506267  69.1351671  76.7875084  54.8168117
  67.2754160  77.0125522  53.2789360  68.1666302  78.3733366  52.5199285
  68.8755346  77.9820216  51.7902531  67.4608047  79.0368907  52.0203218
  68.7055000  78.9285916  53.2876605  72.1930183  75.0200666  52.4855110
  73.1470360  75.7240859  52.6216619  72.0515508  74.2439982  51.3914353
  71.1726227  73.7645377  51.2583851  73.0995731  73.9575244  50.5178249
  73.4308254  74.7963046  49.9056004  74.3882133  73.2799847  51.2019882
  74.8640197  74.0110619  51.8556194  73.9888973  72.0529637  52.0172238
  73.5134073  71.3211921  51.3641384  74.8770264  71.6121826  52.4700363
  73.2906829  72.3480076  52.8005164  75.6136812  72.9851101  50.2995945
  75.9779349  73.9160095  49.8650287  76.4038961  72.5297226  50.8964884
  75.3221222  72.3019638  49.5018443  72.5079866  73.1429483  49.3835480
  71.6100441  72.3606368  49.6424185  72.9592863  73.2802913  48.1340515
  73.4236998  74.1672414  48.0008636  72.7592370  72.4015958  46.9459658
  71.7601094  71.9665558  46.9701197  72.9140444  73.2386989  45.6124325
  72.1487449  74.0146196  45.6314860  73.9006039  73.7014442  45.6382649
  72.7685983  72.3968106  44.3058364  72.4732404  71.4909965  44.8353319
  72.0061196  72.6517812  43.5698232  74.0771171  72.1646460  43.6098888
  74.5354462  70.9797252  43.5030515  74.8402454  73.1647412  43.4392021
  73.6951515  71.1735595  47.0366613  74.9014134  71.3556378  46.9618702
  73.1184826  69.9933491  47.1462542  72.1131015  70.0511586  47.0690125
  73.7266435  68.6716789  47.3386810  74.7961940  68.7416553  47.5368331
  73.0348849  68.0539031  48.5745823  73.3572375  68.7162634  49.3779918
  71.9461987  68.0018948  48.5620374  73.5418097  66.6370903  48.9383718
  74.9197927  66.5169713  49.2073519  75.5223396  67.4214046  49.1234620
  75.5176525  65.3141676  49.5663519  76.5844688  65.2426365  49.7782175
  74.7262338  64.1989865  49.6505928  75.1189880  63.2550686  50.0285650
  73.3550832  64.2896582  49.2294674  72.7429912  63.3877963  49.2200463
  72.8195329  65.4782424  48.8464604  71.8012598  65.5178051  48.4596082
  73.4852314  67.7794831  46.1045534  72.3546262  67.3343432  45.8829197
  74.4204202  67.8105716  45.1684549  75.2436480  68.3477818  45.4004042
  74.2856716  67.2975887  43.7945330  74.9328814  67.8318965  43.0990232
  74.7219374  65.8087875  43.8339554  73.8800541  65.1615830  44.0798376
  75.0393222  65.6175310  42.8088760  75.9126189  65.4711047  44.7988559
  77.0553344  65.7572679  44.6026598  75.6397726  64.9067148  45.9806516
  76.3926216  64.6819622  46.6153204  74.6821735  64.7079387  46.2328275
  72.9406632  67.5217987  43.0505468  72.2317023  66.5736365  42.6933747
  72.5755191  68.7878422  42.8385100  73.2923722  69.4797814  43.0041634
  71.2603799  69.2451698  42.3984071  71.4369861  70.2943525  42.1614999
  71.1071119  68.6856695  41.4756028  70.0105497  69.1354575  43.2568135
  68.9026541  69.4009158  42.7482102  70.1161425  68.8128774  44.5018381
  71.0129137  68.4619422  44.8063790  69.0213017  68.8784785  45.4852266
  68.1250048  69.2616656  44.9974574  68.7062123  67.5043299  46.0763276
  69.6377569  67.0618314  46.4292001  68.0278219  67.6414204  46.9184039
  68.0538044  66.5685634  45.0379601  67.2077600  67.0933280  44.5941900
  68.7923790  66.3528214  44.2659077  67.5562751  65.2195139  45.6794367
  68.4309373  64.5834297  45.8153113  67.1290715  65.4616684  46.6525542
  66.5060063  64.4746147  44.8277010  66.3724966  63.4812433  45.2560573
  65.5690060  65.0274810  44.8945484  66.9158969  64.3461823  43.3673498
  67.7839004  63.8335403  43.3051573  66.1964954  63.8532370  42.8578733
  67.0392461  65.2665583  42.9701194  69.3290883  69.8380942  46.6325500
  70.4007053  69.8471945  47.1781187  68.3678191  70.7190039  47.0053900
  67.5633245  70.8950526  46.4206725  68.5063776  71.4805007  48.2312163
  69.4668166  71.9952893  48.2057435  67.3591427  72.5571605  48.4452745
  67.5402277  73.1846356  47.5725876  66.4104445  72.0339925  48.3254123
  67.3038690  73.4319593  49.6993976  67.5113502  72.8062939  50.5674963
  68.3435506  74.5860398  49.6324017  68.1364199  75.2124481  48.7647565
  68.2777014  75.1881480  50.5386193  69.3464531  74.1677599  49.5467931
  65.9196214  73.9846567  49.9887387  65.2217266  73.1601181  50.1342663
  65.9529461  74.5953223  50.8910016  65.5890365  74.5958711  49.1489593
  68.5389656  70.5176046  49.4052219  67.6184722  69.7556901  49.6048943
  69.5493857  70.6283464  50.2408544  70.3988035  70.9909467  49.8320638
  69.5957369  70.1479384  51.5957598  68.7753681  69.4637683  51.8125671
  70.9379890  69.3749396  51.7366613  71.0259992  68.6137047  50.9615002
  71.6446477  70.1802672  51.5362094  71.2492006  68.7496170  53.1061842
  70.5915919  69.1662531  53.8691167  71.0223685  67.2828935  53.0036393
  71.6800011  66.8654437  52.2411736  71.2364219  66.8136017  53.9638722
  69.9842512  67.0934739  52.7306321  72.7394714  68.9345426  53.2918982
  72.9795372  69.9975814  53.2714929  73.0418139  68.5126442  54.2503824
  73.2721156  68.4268045  52.4877892  69.3237393  71.4084042  52.5605963
  69.8333195  72.5188078  52.3390923  68.5346638  71.1428290  53.6462973
  68.0599935  70.2560077  53.5549985  68.2665628  71.9580985  54.8425340
  69.0126030  72.7527706  54.8381195  66.8692896  72.5955211  54.7684663
  66.1110519  71.8125692  54.7811922  66.7243438  73.2549015  55.6242165
  66.7805307  73.1716060  53.8474086  68.3660690  71.1981060  56.1753040
  67.9226256  70.0624295  56.3085969  68.9082310  71.7457647  57.2684185
  69.7295846  72.2856137  57.0359519  68.6101524  71.5093745  58.6824718
  68.0647702  70.5757251  58.8201539  69.9050463  71.4135607  59.4040759
  69.6806858  70.9809436  60.3790652  70.5229209  70.7204931  58.8331220
  70.6151603  72.6555573  59.5817041  71.4338096  72.4911656  60.0554007
  67.5975404  72.4127110  59.3306461  67.4671673  73.5682084  59.0887584
  66.8012319  71.8241308  60.2990592  67.2673789  71.0052239  60.6626494
  65.5166331  72.1985077  60.8722205  65.3767583  73.2731778  60.9889190
  64.3408285  71.6079133  60.0140202  64.4600766  70.5249668  59.9807472
  62.9732488  71.9498092  60.5861137  62.8530741  73.0326569  60.6192709
  62.1965253  71.5177157  59.9551647  62.8889137  71.5443655  61.5943806
  64.4462753  72.0050246  58.5638045  64.4952917  73.0939221  58.5643310
  65.3979219  71.5991709  58.2206558  63.3316788  71.5470072  57.6284882
  62.3797209  71.9528770  57.9707539  63.5353912  71.9022736  56.6183465
  63.2823496  70.4581250  57.6270806  65.4005229  71.5678738  62.3120696
  64.8770256  70.5091660  62.5623462  65.8099617  72.3811645  63.2633066
  66.3218763  73.2259208  63.0525230  65.7283447  71.9404649  64.6848483
  66.2181558  72.7052312  65.2876059  64.2549960  71.7094107  65.2530519
  63.7550639  71.0492833  64.5442509  64.3719372  71.1954803  66.2071485
  63.3668266  72.9680660  65.4718736  63.6094329  73.9574856  64.8977368
  62.3810577  72.9002046  66.2811873  61.7978203  73.7110746  66.4309332
  62.1894949  72.0359957  66.7675487  66.6568098  70.7540547  64.9619861
  67.8709134  70.9576404  65.0283118  66.0406437  69.5735618  65.1508878
  65.0436384  69.4985728  65.2939139  66.8696867  68.3244276  65.2458693
  67.8901241  68.5804457  65.5309332  66.2971332  67.3814514  66.2880263
  66.1735934  67.9700814  67.1970653  65.3185252  67.0756627  65.9180000
  67.0993153  66.1950652  66.5813690  66.6556918  65.6656834  67.2481171
  67.0043412  67.6072364  63.8631206  67.8754006  66.7177002  63.7355310
  66.0753611  67.9155985  62.9142735  65.3632213  68.5651553  63.2159888
  65.9542466  67.3291914  61.6026493  66.1715699  66.2624129  61.5492334
  64.4854946  67.5720627  61.0751932  64.2211164  68.6257253  61.1646337
  64.4423955  67.1721222  59.6507957  64.7062272  66.1183875  59.5605986
  63.4374819  67.3293565  59.2589729  65.1516950  67.7736738  59.0823501
  63.6296292  66.8621828  61.9602915  62.7174567  66.9765586  61.6837778
  67.0526404  67.8537577  60.6397769  67.2383158  69.0573813  60.4482698
  67.5541700  66.9622603  59.8104630  67.3782562  65.9902675  60.0211371
  68.4084420  67.2955813  58.5875544  68.4125881  68.3665665  58.3848905
  69.8900515  66.8236381  58.8280703  69.9005699  65.8221591  59.2582197
  70.6083725  66.8057046  57.4773078  70.5986665  67.8070059  57.0467240
  71.6394067  66.4811488  57.6177808  70.0995196  66.1161643  56.8037319
  70.6376568  67.7027152  59.7847446  70.1306293  67.7042717  60.7496398
  71.6525679  67.3250059  59.9088044  70.6741769  68.7190148  59.3924408
  67.6582100  66.5172790  57.3974224  67.5063556  65.2966921  57.4292505
  67.1000392  67.3169692  56.4373505  67.2623941  68.3092919  56.5324079
  66.2164950  66.8379378  55.2994083  66.2697649  65.7560303  55.1780090
  64.7506066  67.2267243  55.6717552  64.6598009  66.9162420  56.7126463
  64.7524922  68.3153315  55.6167031  63.5502344  66.6698059  54.8592644
  63.6229232  67.0299459  53.8330498  63.5962867  65.5807973  54.8657141
  62.2237164  67.1270875  55.4667565  62.3362213  68.1324329  55.8726162
  61.4524115  67.1309588  54.6965792  61.7927734  66.2035455  56.5770738
  62.4047055  65.4080173  56.6900925  60.7358378  66.2896347  57.3386326
  59.7573572  67.1678307  57.1490187  59.8091435  67.8183429  56.3781412
  58.9661138  67.1809911  57.7766016  60.5866572  65.5483111  58.3847366
  61.3013535  64.8786551  58.6314555  59.7559389  65.6414160  58.9516027
  66.6698212  67.4400006  53.9911462  67.4242684  68.3996302  53.8623425
  66.3285689  66.6925541  52.9613653  65.6512064  66.0008685  53.2492029
  66.7931230  66.6740587  51.5704026  67.4736887  67.5132052  51.4263094
  67.5274917  65.3699239  51.1818577  68.3596191  65.3795171  51.8858258
  66.8286244  64.5799820  51.4569512  68.0634358  65.1096751  49.7538169
  67.2713096  65.1865143  49.0090131  69.1080558  66.2093493  49.5055131
  69.9007955  66.1328588  50.2496984  69.5330613  66.0891408  48.5090087
  68.6322125  67.1870517  49.5814845  68.6535030  63.7041489  49.6336261
  67.8830553  62.9658504  49.8559433  69.0221078  63.5497770  48.6195249
  69.4765676  63.5934783  50.3396116  65.5622526  66.9052772  50.6616820
  64.4703118  66.4412043  51.0923309  65.6580990  67.6607090  49.5373577
  66.5536278  68.0577623  49.2914387  64.4831644  67.9671624  48.6648572
  63.6380712  67.3105317  48.8716246  64.0812107  69.3932530  48.9940634
  64.9467155  70.0009984  48.7301576  63.2356922  69.6739553  48.3660469
  63.7163447  69.6309276  50.4951568  62.3799865  69.3425215  50.9521565
  61.6916162  68.8964467  50.2343381  61.9486178  69.6144057  52.2690460
  60.9458733  69.3359325  52.5931726  62.8452081  70.1961783  53.1806366
  62.3511293  70.4523638  54.4456995  61.4321399  70.1946167  54.5487750
  64.1489008  70.5269853  52.7240000  64.8110003  71.0790285  53.3910630
  64.5932688  70.1562109  51.4364828  65.6416707  70.2800162  51.1651422
  64.8030855  67.8059395  47.1809422  65.6416530  68.5739572  46.7032034
  64.0506538  66.9689342  46.4349161  63.7217244  66.0548281  46.7111672
  63.7984113  67.4124525  45.0596655  64.7365473  67.5777701  44.5298824
  62.9876751  66.2905731  44.3091334  63.4410233  65.3282481  44.5468415
  61.9620782  66.3094275  44.6777737  62.9879701  66.4934025  42.7925051
  62.6799110  67.5054012  42.5297145  64.0381220  66.3554581  42.5351112
  62.1059809  65.4479143  41.9908222  62.1632660  65.5544122  40.7390664
  61.5123515  64.5503382  42.5743721  63.1015064  68.7569988  44.8897371
  62.0631011  68.9978000  45.5090749  63.6738868  69.6638127  44.0395000
  64.6388744  69.5784963  43.7538089  62.8965020  70.8078548  43.5379769
  62.1351122  71.0568590  44.2771532  63.7552738  72.0594479  43.2750397
  64.0154740  72.5117408  44.2320278  64.6622099  71.7155779  42.7777266
  63.1913992  73.1481784  42.4282516  63.4379676  73.4759619  41.1526106
  64.1108964  72.8175841  40.6032425  62.7649904  74.6055938  40.8123524
  62.9476722  75.0885039  39.9442944  61.8765595  75.0076755  41.7748189
  60.9283624  76.0321740  41.8052493  60.8058960  76.6606654  40.9231500
  60.1809810  76.1862549  42.9961138  59.3912764  76.9329796  43.0789928
  60.4603307  75.3538313  44.1107346  59.8737190  75.4268374  45.0265164
  61.5311371  74.3836057  44.0661830  61.8495259  73.9602762  45.0188222
  62.1826220  74.1053875  42.8450732  62.1936842  70.4415936  42.2401414
  62.7905449  69.7830220  41.3964551  60.9435681  70.9194083  41.9965742
  60.5961322  71.6124688  42.6439185  60.0649217  70.4871613  40.9007416
  60.6650354  69.9509620  40.1655864  58.9947354  69.4834043  41.5124010
  58.5021526  69.0733022  40.6307669  59.4372412  68.2852517  42.4832151
  59.9295174  68.6946293  43.3653566  58.5565614  67.7202264  42.7885816
  60.1267189  67.6257013  41.9562291  58.1288765  70.2450534  42.3435977
  57.4672018  69.6673404  42.7309406  59.3192757  71.6327120  40.1672522
  59.2776577  72.7953021  40.5823982  58.6036885  71.2259482  39.0821572
  58.5720032  70.2346054  38.8915404  57.9620863  72.1444376  38.1206765
  58.4978620  73.0930373  38.1553491  58.0608503  71.5793376  36.7043553
  57.3102216  72.0139891  36.0442532  59.4781856  71.9781390  36.2096116
  60.2294149  71.5434383  36.8689973  59.6272877  71.6073265  35.1955279
  59.5738768  73.0639080  36.2166341  57.9673324  70.1535799  36.6260210
  58.0376962  69.8781926  35.7090635  56.5139547  72.5240137  38.3981505
  55.8444167  73.4061072  37.8021817  55.9844379  72.0125122  39.4731004
  56.3968562  71.1450281  39.7853212  54.8428676  72.5476157  40.2202353
  54.0207938  72.7839717  39.5446396  54.3696861  71.5052126  41.2123073
  55.0496464  71.6148415  42.0571355  53.3750486  71.8453342  41.5006017
  54.3053928  70.0445632  40.8008251  55.2471804  69.8047720  40.3072290
  54.2452248  69.5081726  41.7478015  53.1782013  69.6408330  39.9337089
  53.0030803  68.4316501  39.6829992  52.4034518  70.5000339  39.5054765
  55.1494128  73.8692784  40.9717803  54.1938965  74.4398307  41.5191345
  56.4131679  74.2814996  41.0616853  57.0988221  73.7593149  40.5350917
  56.8906556  75.3096884  42.0046063  57.9650951  75.4531365  41.8901450
  56.1727172  76.6668071  41.7185723  55.0950723  76.5034373  41.7090382
  56.4252900  77.3754053  42.5073661  56.6350435  77.2561912  40.3044695
  57.7178320  77.3813672  40.3054841  56.3511274  76.5592074  39.5159854
  55.9460025  78.6491747  40.0466605  54.8892359  78.4480158  39.8709384
  56.0575779  79.2281321  40.9634258  56.5340645  79.4682119  38.8329149
  56.0346354  80.4364766  38.7992297  57.6003942  79.6157449  39.0040120
  56.3271798  78.7416881  37.5029665  55.3391379  78.6052643  37.3440279
  56.7155483  79.2954450  36.7528843  56.7902456  77.8446276  37.5338162
  56.8064003  74.8070039  43.5144140  56.2473941  75.4785986  44.3700767
  57.3932285  73.6012021  43.7074733  57.8895670  73.1740482  42.9385215
  57.3497581  72.8863469  44.9926898  57.1621633  73.5949579  45.7993979
  56.2400563  71.8401223  44.9951390  55.3855443  72.2985169  44.4973612
  56.6042589  71.0056214  44.3959189  55.8147264  71.3312935  46.3703687
  55.1800965  70.4470506  46.3115431  56.7541307  71.0718367  46.8585293
  55.1318743  72.3721112  47.1465166  53.9877533  72.7909679  46.7741471
  55.6899656  72.7406530  48.2425253  58.6862702  72.1228322  45.3164330
  59.2186275  71.4104561  44.5094398  59.2008996  72.2974585  46.5239624
  58.9460679  73.1212627  47.0498017  60.2505109  71.3707185  47.1043114
  60.9464709  71.0231498  46.3408097  61.0396404  72.1939151  48.1568299
  60.3128989  72.3863724  48.9460740  61.7891014  71.4894847  48.5176429
  61.7478310  73.5559300  47.7456958  61.1834058  74.0561204  46.9587177
  61.7901597  74.4515896  48.9935260  62.3548531  73.9522334  49.7808402
  62.2714717  75.3977538  48.7461138  60.7742226  74.6410368  49.3400545
  63.1974916  73.1589340  47.2659047  63.1263109  72.4786726  46.4172133
  63.7403337  74.0557983  46.9674787  63.7287577  72.6676742  48.0810852
  59.7241024  70.0865665  47.6657173  59.2448823  70.0797865  48.8159830
  59.7371219  68.9356664  47.0140497  59.9884750  69.0384681  46.0412431
  59.4095377  67.5766311  47.5170742  58.4639163  67.5673685  48.0591199
  59.2799307  66.6670374  46.2908155  58.8896057  67.2457998  45.4536896
  60.2618501  66.2710989  46.0316498  58.3289330  65.5099137  46.5973295
  58.7332016  64.9213122  47.4208682  57.3557224  65.9104385  46.8811307
  58.1704308  64.6029728  45.3397814  57.5358849  63.7535820  45.5927355
  57.7026277  65.1806169  44.5425443  59.4932651  64.0861369  44.8475182
  59.6909817  64.2903691  43.8783450  60.3348219  63.3076312  45.5147342
  60.0819543  62.6986577  46.5890955  59.1688700  62.7850226  47.0120826
  60.7936614  62.1273234  47.0217037  61.5541578  63.2549586  45.1113170
  61.8413751  63.7974457  44.3092484  62.2192198  62.6713343  45.5983222
  60.4993988  67.0011683  48.5143000  61.6777461  66.9448643  48.1082859
  60.1580786  66.5901812  49.7067228  59.2284899  66.8484610  50.0054797
  61.0159419  65.8325184  50.6519273  61.8920914  66.3985925  50.9681888
  60.0637093  65.6451620  51.8914807  59.1432423  65.1641248  51.5606574
  60.7195332  64.8002893  52.9360357  61.6398960  65.2809417  53.2677060
  60.0456068  64.6824271  53.7845820  60.9519398  63.8206262  52.5184856
  59.7904261  66.8295411  52.4462206  59.2097421  66.7033778  53.2002029
  61.5421590  64.4903860  50.0946605  60.8131682  63.6216280  49.5829447
  62.8593932  64.4135241  50.0536351  63.3999215  65.1389252  50.5027696
  63.5925127  63.3180710  49.3452600  62.9139490  62.8873891  48.6089424
  64.8807553  63.7671765  48.6251243  64.5683666  64.5044989  47.8856189
  65.4941486  64.2522566  49.3844305  65.7054264  62.6543730  47.9284645
  66.6437018  63.1160445  47.6208939  65.9087703  61.8707320  48.6582982
  64.9637544  62.0036827  46.6219414  65.5769107  61.4341432  45.7238700
  63.7323334  62.1632003  46.6146334  63.9445087  62.2405820  50.4268590
  63.9122483  61.0471069  50.1612459  64.4539948  62.6588685  51.6497929
  64.2506660  63.6079683  51.9290174  65.1918485  61.8041237  52.5817394
  64.6681339  60.8633850  52.7515420  66.5601060  61.4978570  51.9529793
  66.4765900  61.2205347  50.9021622  67.2546581  62.3318150  52.0540306
  67.3416575  60.0893993  52.7838837  68.4455527  60.0854204  52.0420631
  65.4574721  62.5655788  53.8968710  65.7419709  63.7836087  53.9044629
  65.5063810  61.8307039  54.9850106  65.4913318  60.8212055  54.9569760
  65.4064526  62.4874807  56.2822772  65.8175270  63.4952794  56.2234661
  63.9261893  62.5825453  56.7138511  63.2795354  63.0524897  55.9728449
  63.6459569  61.5353857  56.8279854  63.7265932  63.2946877  58.0627898
  63.5536776  64.5181548  57.9899236  63.5982681  62.6512649  59.2057984
  63.4693220  63.1705780  60.0624118  63.6294652  61.6418440  59.2198356
  66.3250883  61.8501495  57.3900026  66.3418324  60.6295696  57.5101458
  67.0283997  62.6599827  58.0467096  67.0910667  63.6132033  57.7187726
  67.7868444  62.2845969  59.2579409  67.6294881  61.2263058  59.4661666
  69.2531344  62.5253654  59.0879141  69.6937683  61.9092180  58.3041389
  69.2985643  63.5739285  58.7937177  70.1518142  62.3764218  60.3198099
  70.5696592  63.4093293  61.1709079  71.4749744  62.8393779  61.9918798
  71.9729186  63.4712613  62.7273212  71.5949903  61.5420237  61.7338212
  72.1877825  60.8806282  62.2147091  70.7698381  61.2388620  60.6905849
  70.7145625  60.2156638  60.3189517  67.1815371  63.1635685  60.3742030
  66.8731166  64.3439683  60.1629256  67.2560188  62.6973552  61.6079755
  67.7179170  61.8085881  61.7377542  66.5674505  63.3012349  62.7610896
  66.3445453  64.3540696  62.5880246  65.2426382  62.5412931  62.9389372
  64.6405033  62.7346630  62.0511642  65.4901522  61.4807903  62.9855274
  64.4651952  62.9280644  64.1649227  64.0508381  64.2904735  64.3646112
  64.3163068  65.0613234  63.6411360  63.3071153  64.6207184  65.4893706
  63.0468934  65.6664737  65.6530234  63.0587798  63.6558207  66.5100988
  62.3378031  64.0228765  67.5747869  62.0514577  64.9383711  67.5363718
  63.3912409  62.2963752  66.3081177  63.1014462  61.5191258  67.0152265
  64.1315571  61.9539006  65.1317750  64.4493696  60.9241451  64.9683768
  67.4223624  63.3993780  64.0194531  67.2386904  64.2565892  64.8810936
  68.4492477  62.5601760  64.1891810  68.8471944  62.1138756  63.3752069
  69.0640690  62.3017905  65.4928527  68.3611525  62.4118942  66.3186158
  69.5173082  60.8180055  65.4214024  68.7399211  60.1265266  65.0964016
  70.3064692  60.8556629  64.6704652  70.1074537  60.3074218  66.7178505
  69.3987493  60.4565444  67.7341598  71.2012301  59.6250468  66.7399951
  71.5708207  59.2976151  67.6210689  71.6832414  59.4211877  65.8761621
  70.3477354  63.1979442  65.7570156  71.5193586  62.8268246  65.5846634
  70.0606040  64.3490930  66.3796375  69.0860386  64.4096390  66.6378156
  70.9098182  65.4527934  66.6830523  71.9579527  65.1580097  66.7341992
  70.7293399  66.4974535  65.4793634  69.7056781  66.7991565  65.2575726
  71.3105427  67.3724921  65.7702427  71.3532045  65.8927787  64.2026460
  72.5307424  65.5178534  64.0731835  70.5069600  65.6598343  63.2385655
  70.8336915  65.2644622  62.3684924  69.5286340  65.8758421  63.3663138
  70.5187182  66.0428464  68.0130603  69.4104293  65.8248867  68.4507809
  71.3721873  66.7790276  68.6969899  72.3413764  66.5422774  68.5397605
  71.0551634  67.7252795  69.7613965  70.1832292  67.3535528  70.2995871
  72.2208461  67.9972433  70.7782193  73.0790714  68.4467773  70.2787508
  71.6744371  68.9599996  71.8019066  70.8164101  68.5109522  72.3021532
  72.4463209  69.1855140  72.5377322  71.3650079  69.8805160  71.3069296
  72.6705872  66.6566942  71.3911230  71.7833733  66.0658827  71.6189256
  73.2797876  66.1284366  70.6576938  73.4871657  66.8709456  72.6762899
  72.8784271  67.3987739  73.4104114  73.7879055  65.9048293  73.0815973
  74.3748407  67.4613301  72.4491796  70.4804334  68.9013283  69.0331565
  69.3606236  69.3361789  69.2227640  71.2639422  69.4934706  68.1662888
  72.2153222  69.1659802  68.0783946  70.8609079  70.6562702  67.3920482
  69.8595270  70.5068431  66.9883069  70.8488215  71.8788138  68.2661261
  70.3292700  71.6060326  69.1846879  71.8881934  72.1154422  68.4937508
  70.1799016  73.0882597  67.6485698  70.5529641  73.1497564  66.6262473
  69.1127000  72.8670595  67.6326559  70.4460319  74.6752605  68.4752100
  70.2401693  74.1362265  70.1692793  70.9842265  73.3743325  70.4016483
  70.3693300  74.9858992  70.8397079  69.2413872  73.7196750  70.2997416
  71.7626661  70.8610401  66.1438870  72.8792176  71.3002393  66.2382996
  71.2812111  70.5280336  64.9284081  70.3379504  70.1785026  65.0188884
  71.9116648  70.4153552  63.6907063  72.8660050  69.9457963  63.9291353
  71.1297462  69.4876681  62.7567406  70.1753691  69.9483363  62.5016931
  71.7053995  69.3180221  61.8468265  70.9510272  68.5352842  63.2558634
  72.2913031  71.8191694  63.0959473  71.7956734  72.2540506  62.0316261
  73.2234226  72.5540036  63.7117646  73.7236462  72.1696910  64.5005482
  73.3270281  73.9897126  63.4583231  72.3532637  74.3999153  63.1907117
  73.8181471  74.6860902  64.7162990  73.4056069  74.1642851  65.5797973
  74.8896880  74.4958797  64.6553066  73.5769101  76.1776456  64.8640293
  73.9001922  76.6897592  63.9577572  72.1050154  76.4305406  65.0868389
  71.7810817  75.9190876  65.9932503  71.9318025  77.5014504  65.1929056
  71.5381504  76.0538966  64.2354261  74.2824994  76.7179398  66.1574094
  75.3551090  76.5362452  66.0896226  74.1010667  77.7886905  66.2505571
  73.8821159  76.2047005  67.0316962  74.0196191  74.4217656  62.1563055
  73.5561075  75.3040285  61.4219601  75.1444468  73.7273556  61.8715364
  75.3918845  72.9469197  62.4629700  75.9330859  73.9702612  60.7058236
  75.5199245  74.8079141  60.1439211  77.3583035  74.3081448  61.1021674
  77.7834276  73.3720767  61.4643071  77.8654109  74.6058691  60.1843971
  77.5372546  75.3613740  62.1289092  76.7718361  76.5710611  62.0860511
  76.2281455  76.8036402  61.1704055  76.7093450  77.4504004  63.1851249
  75.9148196  78.1958646  63.2185063  77.4687471  77.1600844  64.3639494
  77.4191128  78.0489534  65.3746157  76.8590677  78.8046009  65.1824022
  78.4783180  76.1301617  64.2888778  79.2416235  76.0197588  65.0591221
  78.4602008  75.2598247  63.1903177  79.1869147  74.4501020  63.1244674
  76.0697461  72.6705979  59.8763880  76.5268005  71.6677701  60.4430331
  75.7827295  72.7849078  58.5391847  75.2711125  73.6290106  58.3250867
  76.0038904  71.8144082  57.4629740  76.3911110  70.8849447  57.8804150
  74.6880392  71.5112586  56.7243415  74.4616376  72.4598637  56.2375255
  74.8814945  70.7517754  55.9668057  73.4482018  71.0647457  57.6187277
  73.1680504  71.8382769  58.3337560  72.3028898  70.8477332  56.6278933
  72.5821392  70.0739580  55.9127774  71.4085392  70.5369525  57.1679425
  72.1008347  71.7774555  56.0960187  73.7108327  69.8159123  58.5074718
  74.5355959  70.0218047  59.1897279  72.8142410  69.5830997  59.0819479
  73.9670034  68.9662722  57.8745522  77.1273886  72.2679958  56.5265740
  77.2469378  73.4501735  56.1457328  77.9185059  71.3397238  56.0383255
  78.0208383  70.4653357  56.5333738  78.7339395  71.5549025  54.8034587
  78.2887587  72.3506352  54.2061960  80.1945868  71.9601810  55.1632419
  80.5150972  71.1922680  55.8672887  80.7387726  71.8430930  54.2260907
  80.4819228  73.3359715  55.7479781  79.8915539  73.4589026  56.6559722
  81.5421812  73.3956316  55.9937315  80.1168963  74.4717940  54.7296358
  80.8348596  74.5204304  53.9109405  79.1136329  74.3384461  54.3249378
  80.1740689  75.7941088  55.5485967  79.8181361  76.6051924  54.9133362
  79.5139867  75.6914590  56.4099060  81.5521799  76.0984553  56.0144907
  82.1638988  76.1940379  55.2165159  81.5470934  76.9609323  56.5400452
  81.8820213  75.3472093  56.6035010  78.6800101  70.3016913  54.0007208
  78.4277436  69.2392156  54.5144963  78.9626718  70.3595384  52.6714831
  79.0306100  71.2714860  52.2427229  78.9793492  69.1760126  51.7989984
  79.2700648  68.2471707  52.2897493  77.5939445  68.9749270  51.1413364
  77.6353660  67.9577210  50.7518799  76.2709613  69.1607349  51.9917762
  76.2286045  70.1779124  52.3812058  75.4027326  68.9782190  51.3585574
  76.2696851  68.4541415  52.8217308  77.4698584  69.8034960  49.9473724
  76.6058510  69.6672693  49.5517289  80.1492189  69.1091198  50.7622245
  80.8048113  70.1490345  50.4810822  80.3597980  67.9250594  50.1970879
  79.7942493  67.1465020  50.5038490  81.4166610  67.6706881  49.2838383
  81.4388628  68.4781544  48.5519883  82.7597026  67.5809665  49.9378134
  82.9245760  68.4522718  50.5716455  82.8202191  66.6759327  50.5422566
  83.8092425  67.5370547  48.8651141  83.6237630  66.6054127  48.3305662
  83.5792747  68.3807027  48.2143647  85.3400062  67.6038349  49.2992994
  85.4369050  68.3931825  50.0447121  85.5966322  66.6453247  49.7504099
  86.2859260  67.8868401  48.1319156  85.9216448  68.7566656  47.5852866
  87.2803084  68.0963677  48.5261248  86.3516267  66.7367357  47.2298722
  85.4303852  66.5426826  46.8641437  86.9802832  66.9429166  46.4667337
  86.6895616  65.9307326  47.7360917  81.0484116  66.4230733  48.4846540
  80.9437434  65.3579280  49.0853928  80.8343886  66.5474383  47.1365047
  81.0278655  67.3693533  46.5823190  80.2700472  65.3600131  46.4570665
  80.0942788  65.6810141  45.4303421  81.0702226  64.6200571  46.4739113
  78.9923657  64.7237057  47.0050427  78.0423061  65.3566801  47.4490688
  79.0372488  63.3949940  47.1225992  79.6456562  62.9169818  46.4734120
  78.0609153  62.5807348  47.9102223  77.0466138  62.9759104  47.8542941
  78.0837555  61.2091172  47.2596960  79.1340424  60.9499861  47.3932918
  77.4725192  60.6021937  47.9276286  77.6602102  60.9337876  45.7634737
  77.8747887  59.8202676  45.2029255  77.1405256  61.8204945  45.0777683
  78.0774642  62.6229287  49.4930163  77.4314680  61.7868422  50.1432425
  78.9255133  63.4781027  50.1261388  79.6646543  63.8069126  49.5214455
  79.0950225  63.6248162  51.5706259  78.2687651  63.1117528  52.0627275
  80.4209018  63.0473975  52.1038618  80.3363962  62.5420701  53.0659441
  80.6510236  62.3161878  51.3289578  81.6407589  63.9831139  52.2031364
  81.9503858  64.7025086  53.4047135  81.2904530  64.7206600  54.2720422
  83.1779396  65.4116072  53.4329235  83.3445372  66.0737347  54.2825900
  84.1636863  65.2919522  52.4256261  85.1424266  65.7694515  52.4721202
  83.8218782  64.5063512  51.3231959  84.6082374  64.3365119  50.5877410
  82.5292844  63.9375028  51.1288724  82.2692527  63.4903577  50.1694222
  78.6225561  64.9669715  52.1990324  78.5403053  66.0110592  51.5736592
  78.2088044  64.8296894  53.5227458  78.3853563  63.9293075  53.9449320
  77.5415322  65.8770380  54.3457511  77.7288345  66.8812009  53.9653908
  75.9683764  65.6363847  54.4587368  75.8051772  64.5955667  54.7383156
  75.3022207  66.5665813  55.5126494  75.4646095  67.6076364  55.2334815
  74.2318963  66.3641642  55.5518137  75.7427082  66.3806735  56.4921944
  75.1939540  65.7433427  53.2134875  74.7911869  66.7536086  53.1410840
  75.8620417  65.5579658  52.3724205  74.0556351  64.7426053  53.1842828
  73.3868258  64.9276602  54.0248473  73.5027589  64.8475614  52.2507886
  74.4576809  63.7320169  53.2561862  78.1749165  65.8146434  55.7408448
  78.1531729  64.7851960  56.3475145  78.7844174  66.9653361  56.0969683
  78.9188894  67.7262997  55.4466215  79.3514089  67.1047911  57.4883514
  79.4606095  66.1372884  57.9783645  80.7328844  67.7312812  57.3336326
  81.2491123  67.1127561  56.5994428  80.6156893  68.7407309  56.9394544
  81.5639249  67.7810165  58.6436861  80.9115964  67.9140084  59.5067512
  82.3029963  66.4449712  58.7638578  82.9559160  66.3114750  57.9013188
  82.9005987  66.4404466  59.6754233  81.5792125  65.6307867  58.8004772
  82.5452808  68.9003958  58.7340684  82.0186891  69.8523237  58.6659962
  83.0734977  68.8452233  59.6859319  83.2619117  68.8229169  57.9164279
  78.4432509  67.9182630  58.3717611  77.8699458  68.8718876  57.9397481
  78.2471943  67.4839844  59.5936121  78.8035010  66.6798128  59.8464564
  77.2696267  67.9855801  60.5638643  76.7845198  68.8913365  60.2000295
  76.1596877  66.8987005  60.8502433  76.6221334  65.9979663  61.2538781
  75.1399243  67.4729832  61.8911929  74.6766990  68.3735371  61.4880479
  74.3698755  66.7288948  62.0948047  75.6625283  67.7167366  62.8161637
  75.4500797  66.5193231  59.5285152  76.1796751  66.1149069  58.8269169
  74.6848073  65.7693884  59.7286546  74.9851927  67.4060592  59.0976090
  77.9041837  68.4388382  61.8547708  78.2574606  67.6166546  62.6461845
  78.0259749  69.8015934  62.1009542  77.7636027  70.3827189  61.3176578
  78.4763132  70.4542353  63.3267258  79.2632855  69.8793833  63.8149049
  78.8346457  71.4643813  63.1284780  77.2391665  70.5311702  64.2769090
  76.4380364  71.4190332  64.1240826  76.9961331  69.4338779  65.0217159
  77.4445944  68.5886842  64.6982512  76.0379533  69.3339056  66.1443819
  75.0600645  69.7370283  65.8810859  75.8859388  67.8341883  66.4465935
  75.9829696  67.2943846  65.5046294  76.7006303  67.5505675  67.1128794
  74.5356932  67.4798886  67.1055613  74.1829294  66.2458096  67.0857915
  73.8343510  68.3532260  67.6291316  76.4106047  70.2041205  67.3509763
  77.4412615  69.8877170  68.0085654  75.7332788  71.3590598  67.6192554
  74.8764688  71.4719444  67.0965384  76.1501610  72.4268334  68.4791523
  76.9628734  72.9699847  67.9968821  74.9853239  73.4370074  68.7898324
  74.6903276  73.7861540  67.8003006  74.1670408  72.8696415  69.2332384
  75.3096983  74.6309371  69.6719317  75.5777180  74.2338922  70.6510239
  76.4186239  75.5065996  69.1670434  76.1511133  75.9044133  68.1881250
  76.5769108  76.3307013  69.8626743  77.3345605  74.9217034  69.0830378
  74.1183622  75.5464281  69.9248453  73.3257728  74.9841663  70.4185691
  74.4256538  76.3758914  70.5617627  73.7501549  75.9351081  68.9753980
  76.7676349  72.0460922  69.8204010  77.7283544  72.6672769  70.2931384
  76.2091992  71.0049838  70.4935435  75.3943352  70.5821666  70.0724478
  76.6476887  70.5160858  71.8660127  77.5306524  71.0502608  72.2169136
  75.4691448  70.7992150  72.8505415  74.9155128  71.6667552  72.4914248
  74.8114404  69.9301476  72.8662549  75.9630750  71.0617607  74.2040734
  76.8683739  70.4700649  74.3398339  76.2107731  72.1218007  74.2594173
  74.7483657  70.6440685  75.5579876  74.8627916  68.8542335  75.4845620
  75.8888086  68.5466444  75.6864950  74.1992993  68.4163248  76.2302929
  74.5698494  68.5113160  74.4922447  77.0885139  69.0725545  71.8625884
  77.0867717  68.4617650  72.8904760  77.4368576  68.5745582  70.6897792
  77.4464950  69.1878607  69.8873663  77.7303097  67.1260250  70.4771823
  78.3013115  66.7392623  71.3212621  76.4313566  66.3218299  70.3549733
  75.6333269  66.8997255  70.8211113  76.2143659  66.1931988  69.2945635
  76.5261056  64.9481119  71.0268293  75.6614796  64.3553765  70.7281862
  77.4377053  64.4572619  70.6860151  76.5548561  65.0743797  72.5428424
  77.4911983  65.5633598  72.8116558  75.7176662  65.7091517  72.8331475
  76.4555914  63.7544722  73.3051701  75.5233704  63.3865181  73.1799778
  77.2914173  63.0829933  74.0240813  78.5004313  63.5086144  74.1544568
  78.7845278  64.3618392  73.6946778  79.1583987  62.9870330  74.7158224
  76.9802137  61.9671871  74.6454498  76.0438909  61.5958010  74.5714764
  77.6788718  61.4864432  75.1939577  78.6307302  66.8393992  69.2618459
  78.7169113  65.7551340  68.6969090  79.4670041  67.8497687  68.9250233
  79.1719654  68.7414651  69.2964113  80.6293363  67.8235636  67.9780475
  81.0154701  68.8305661  67.8201050  81.7850754  66.9284097  68.5981609
  81.3886310  66.1213075  69.2142106  82.4346282  66.5117628  67.8283646
  82.5276714  67.8205511  69.4100069  83.2531492  67.3476830  69.8243466
  80.1998143  67.4143982  66.5053046  79.2334913  67.9808370  66.0013890
  81.0267620  66.6777626  65.8458817  81.7524010  66.2208440  66.3795228
  81.0112722  66.4949175  64.4237897  80.4093865  67.3060135  64.0139653
  82.4185794  66.6135315  63.8784053  82.9615923  65.6754842  63.9937459
  82.2829767  66.9428775  62.3959873  81.7404337  67.8810998  62.2798536
  83.2740198  67.0395728  61.9526094  81.7373881  66.1437565  61.8941502
  83.3042599  67.7939075  64.4547780  83.4126633  67.6745340  65.5327858
  84.2883540  67.7724707  63.9865912  82.8219866  68.7479887  64.2420757
  80.4087193  65.1231909  64.1199801  80.7538647  64.0953929  64.7450280
  79.4235652  65.0808628  63.2527531  78.9525997  65.9489349  63.0412311
  78.9483158  63.8707888  62.6189401  79.4318359  62.9784405  63.0164599
  77.4723197  63.8041017  62.9397929  77.4553650  63.4810555  63.9806833
  77.1408069  64.8405112  62.8761164  76.5575367  62.9383734  62.1348006
  76.7455388  63.1065420  61.0743878  76.7954795  61.4996135  62.4604325
  76.6072162  61.3305633  63.5206578  76.1243227  60.8768741  61.8689556
  77.8287221  61.2403645  62.2295643  75.1037724  63.3004758  62.4478266
  74.9272181  64.3464215  62.1969765  74.4369949  62.6690072  61.8606672
  74.9103049  63.1442448  63.5090812  79.2160116  63.8863061  61.1022317
  79.1005345  64.8933176  60.4154553  79.6787270  62.7378643  60.4954824
  79.8313169  61.9268821  61.0778256  79.9246989  62.6136686  59.0402992
  79.9608451  63.6083075  58.5959053  81.2577812  61.8948767  58.7487790
  82.1082659  62.4979935  59.0666232  81.1928066  61.0026250  59.3714870
  81.4413063  61.4865795  57.2971671  80.5552927  60.9126919  57.0256276
  81.6256835  62.6236783  56.3158102  82.5118300  63.1977853  56.5864471
  81.7476442  62.2204990  55.3104879  80.7505690  63.2729512  56.3426346
  82.7750743  60.7220151  57.2321053  82.7256475  59.8482253  57.8818344
  82.9612816  60.4018101  56.2069727  83.5844398  61.3736443  57.5613560
  78.7714674  61.7577331  58.5018185  78.5106992  60.6341523  59.0326782
  77.9976747  62.2233898  57.5167323  78.2139677  63.1571742  57.1983561
  76.9090386  61.5200311  56.8836273  76.6146076  60.5839547  57.3581487
  75.7991232  62.5703957  57.1307282  76.1426489  63.0869455  58.0269792
  75.8099869  63.2608563  56.2873741  74.3689941  62.0565977  57.3528438
  74.2088195  61.2601838  56.6260908  74.0741158  61.5254078  58.7704919
  74.2336357  62.3214440  59.4978011  73.0394321  61.1868237  58.8242619
  74.7405899  60.6920221  58.9927103  73.3237085  63.0850976  57.0578932
  73.4040682  63.3973367  56.0166687  72.3354357  62.6603870  57.2340721
  73.4688336  63.9481086  57.7077007  77.1368290  61.2219296  55.3894539
  77.8939437  61.8977274  54.6789515  76.4403551  60.2204107  54.8374123
  75.8733273  59.6518694  55.4500618  76.3974030  59.9458376  53.3940413
  76.7886195  60.7563675  52.7791509  77.2080242  58.7043858  53.1267499
  76.8224193  57.8814674  53.7285922  77.1385543  58.4449188  52.0703641
  78.2504152  58.8873054  53.3876344  74.9722175  59.6492162  52.9687591
  74.2532077  59.0650490  53.7136830  74.5692183  59.9613168  51.7138532
  75.1183962  60.6927714  51.2855108  73.3891012  59.4733858  51.0019629
  72.6275262  59.0789058  51.6746354  72.8309569  60.6936911  50.3020122
  72.6597335  61.4497255  51.0682979  73.5484458  61.0714228  49.5735698
  71.5204333  60.3756486  49.6033150  70.3884788  59.9727539  50.3450750
  70.4169273  59.8981395  51.4321458  69.1713121  59.6554806  49.6296779
  68.2491719  59.4680661  50.1798006  69.1565176  59.6915653  48.2293404
  67.9975186  59.2516076  47.5552601  67.3049132  58.9587433  48.1520247
  70.2872205  60.0499668  47.5803316  70.2155379  60.0049102  46.4936247
  71.4701239  60.4502471  48.1805859  72.3012824  60.7993393  47.5678785
  73.7481225  58.2897032  50.1473272  74.6632087  58.4601246  49.3090410
  73.0155822  57.1918631  50.3307932  72.2950614  57.3150024  51.0277766
  73.1736941  55.8951696  49.7377640  73.9436459  55.9636584  48.9692702
  73.5828251  54.7880726  50.7553008  72.7681819  54.7002302  51.4741467
  73.6732457  53.8580990  50.1939868  74.9415604  55.0743977  51.5275619
  75.7865484  54.9451474  50.8512554  74.9398058  56.0930494  51.9154380
  75.0657470  54.0662112  52.7138749  75.9396923  54.3629208  53.2937732
  74.1696926  54.1803673  53.3239195  75.2103721  52.5930821  52.2846919
  74.5127439  52.3964627  51.4705935  76.2300970  52.4294273  51.9361558
  74.9293332  51.7017449  53.3844919  73.9843341  51.8529303  53.7073222
  75.0310684  50.7450993  53.0769546  75.5759364  51.8834827  54.1387960
  71.8482160  55.5453285  49.0192121  70.9884420  54.8317524  49.6068981
  71.7140455  55.9928847  47.7339597  72.7180494  56.8171539  46.9723203
  73.5685695  56.1663067  46.7695553  73.0289039  57.6243736  47.6355434
  72.0705494  57.3238015  45.7209938  72.7730488  57.2898941  44.8882610
  71.7222953  58.3472152  45.8604387  70.8702412  56.3531576  45.4937040
  71.1696586  55.5059459  44.8767108  70.0071173  56.8430937  45.0430607
  70.5231672  55.8759065  46.8919301  69.7406734  56.5018032  47.3209464
  70.0247440  54.4313322  46.7954396  68.8664929  54.2386345  46.8111868
  70.9344019  53.4194901  46.7387119  71.9109697  53.6629887  46.6543128
  70.5632955  52.0132623  46.6530840  69.8712873  51.8616350  45.8246922
  71.7477674  51.1906872  46.4278740  72.3725650  51.2751085  47.3170310
  71.4087536  50.1604703  46.3191412  72.5565695  51.5917658  45.1986888
  71.8488283  51.5731970  44.3699196  72.8714528  52.6187164  45.3839535
  74.0659942  50.5514877  44.7490548  74.5955498  51.3564299  43.1923234
  74.8310367  52.4029785  43.3856652  75.4799563  50.8512735  42.8040671
  73.7913858  51.2949600  42.4590820  69.7578668  51.4940067  47.8078997
  68.5695051  51.0968454  47.6221300  70.3160590  51.6361220  49.0333265
  71.3257380  51.6355123  49.0587656  69.6061876  51.5873284  50.2747176
  69.0432371  50.6612330  50.3910501  70.6638161  51.6463465  51.3478643
  71.6230219  51.3614242  50.9156111  70.7257691  52.6659779  51.7281453
  70.3299564  50.7249782  52.4584859  69.3498789  51.1461319  52.6824917
  70.2161195  49.6865560  52.1473274  71.2226746  50.7898541  53.7265436
  71.0720553  49.8927990  54.6188080  71.9129536  51.7561288  54.0059215
  68.4611776  52.5533881  50.4342626  67.5373632  52.2455840  51.1541943
  68.4489163  53.6585250  49.6593050  69.2446793  53.7705111  49.0474884
  67.3819729  54.7040833  49.6322741  67.5807861  55.4045743  48.8211731
  66.4133858  54.2301525  49.4731261  67.3492575  55.4770667  50.9661389
  66.2435186  55.7883433  51.4237473  68.4991829  55.8387471  51.5648115
  69.3905515  55.6302069  51.1381120  68.4925114  56.4730383  52.9218322
  67.7749601  57.2932565  52.9003527  68.1157115  55.5144949  54.0836898
  68.4038674  56.0892515  54.9638717  67.0432172  55.3218935  54.1112714
  68.8438619  54.1929289  54.1110818  68.2587788  53.1651431  54.5215583
  70.0956220  54.1525200  53.8210458  70.5866074  53.2700583  53.8382059
  70.5821331  55.0034268  53.5773958  69.9261034  57.0940074  53.0935952
  70.9061184  56.6631444  52.5526225  69.9486861  58.1754209  53.8919873
  69.1040128  58.7281269  53.9257864  71.1396605  58.6398730  54.6925335
  71.9120192  58.9463489  53.9871019  70.8576179  59.8068993  55.6485291
  70.0188170  59.5938941  56.3112062  71.7631013  59.9397575  56.2406005
  70.5633440  61.1565069  54.9896921  71.4095092  61.5414702  53.9665392
  72.3202892  60.9983639  53.7143186  71.0473956  62.6998980  53.2310335
  71.6447592  62.9402102  52.3515408  69.9786890  63.5169418  53.5914094
  69.7496733  64.4275364  53.0378127  69.2264028  63.1646473  54.6405138
  68.4354879  63.8499985  54.9452226  69.4298630  61.9307415  55.3618005
  68.7321534  61.6363243  56.1457773  71.7703024  57.5107185  55.5586096
  71.1347299  56.4550987  55.8283697  73.0004905  57.6259785  56.0174933
  73.4126182  58.5224201  55.8015241  73.8145451  56.6391491  56.8024498
  73.1531069  55.9908715  57.3771975  74.6521831  55.7770234  55.8732938
  73.9659270  55.2497276  55.2106394  75.2811866  56.4461876  55.2862045
  75.5310113  54.7646735  56.6057614  76.4041524  54.5254091  55.9987376
  75.8489273  55.2839144  57.5098729  74.7706235  53.4083776  57.0071611
  74.0993194  53.3118431  58.0531491  74.8440162  52.4800265  56.1649783
  74.6877428  57.5954883  57.6642340  75.4281587  58.5084829  57.2021462
  74.7748665  57.1354869  58.9215988  74.0757391  56.5635577  59.3735027
  75.8919723  57.7089158  59.7699101  76.1322449  58.7296403  59.4724379
  75.4027744  57.7245596  61.2157322  75.2116892  56.6877058  61.4923544
  76.2221128  58.1158598  61.8187819  74.1493456  58.5549565  61.4625238
  74.1534968  59.5527626  61.0238135  73.3997228  57.9418071  60.9623111
  73.8215392  58.6525976  62.9226026  72.9804525  59.4943966  63.2930951
  74.2049442  57.8436229  63.7775995  77.2266256  57.0126956  59.4928830
  77.3940944  55.8972021  59.9374024  78.1634298  57.7333888  58.7907519
  77.9949585  58.6555870  58.4148965  79.4726025  57.1325969  58.5837618
  79.4500391  56.0588231  58.3977512  80.1964079  57.8435972  57.4140587
  80.2810291  58.8927964  57.6971145  81.6065299  57.2866984  57.0595266
  81.5226499  56.2375931  56.7759020  82.0237339  57.8550370  56.2282428
  82.2617818  57.3770456  57.9258876  79.3075272  57.8867312  56.1284757
  78.4823179  58.5781311  56.2990524  79.9149817  58.2448305  55.2972938
  78.7415499  56.4783828  55.7876247  78.1335632  56.1197982  56.6182083
  78.1277247  56.5406394  54.8890469  79.5662276  55.7864967  55.6164518
  80.3401973  57.2710260  59.8590127  81.0282276  56.3198940  60.1749355
  80.3163267  58.4302164  60.5548337  79.7487980  59.2081081  60.2500468
  81.1877425  58.6248017  61.6558264  81.1446867  57.6684806  62.1770705
  82.6460608  58.8863762  61.2251858  82.7068946  59.8449036  60.7097980
  83.2875191  58.9068037  62.1062160  82.9754751  58.0924768  60.5548805
  80.7272602  59.7581202  62.6735883  80.1289717  60.7475981  62.3123664
  81.1817423  59.7084268  63.9103573  81.8175478  58.9551606  64.1304499
  80.7143364  60.5702368  65.0081078  80.6396378  61.5925889  64.6375467
  79.3244564  60.1417096  65.5723899  78.5979689  60.3087761  64.7771516
  79.3884209  59.0749919  65.7871501  78.8754875  60.9013132  66.8516753
  78.0554815  60.3285188  67.2848006  79.7244739  60.8932150  67.5352385
  78.4378779  62.2943466  66.6269755  78.7836231  62.8801044  67.4787072
  78.9335060  62.6437012  65.7212141  77.0099903  62.4885652  66.4790770
  76.4693754  61.6569413  66.2887176  76.3843139  63.6704578  66.4782264
  76.9727255  64.7804118  66.6042182  77.9764019  64.8068507  66.7139205
  76.4369017  65.6365086  66.5946954  75.0394187  63.6579907  66.4423023
  74.5461051  62.7770125  66.4174200  74.5292445  64.5296657  66.4403781
  81.7468553  60.6849215  66.0770429  82.1132060  59.7573510  66.7956096
  82.2763879  61.8756758  66.1883867  82.3533427  62.5045509  65.4018160
  82.8469560  62.3104158  67.5039611  83.1880441  61.4279317  68.0452372
  84.0356830  63.2826239  67.3465778  84.7894845  62.7506669  66.7661433
  83.6728932  64.1364130  66.7742773  84.6494623  63.7695545  68.6472544
  84.2198326  63.3662842  69.7463611  85.5903632  64.5902847  68.5985067
  81.6908594  62.9535216  68.2954640  81.0152099  63.7912095  67.7055609
  81.3758537  62.5020846  69.4787569  81.9435530  61.7796328  69.8981378
  80.2251331  63.0205245  70.2442110  79.3882143  63.3209199  69.6137915
  79.7873857  61.7948219  71.1027513  80.7564202  61.3768152  71.3754084
  79.2467268  62.0768440  72.0062177  79.0118790  60.6938279  70.4685664
  77.6150633  60.6393922  70.6654339  77.1453483  61.4548395  71.2154460
  76.8329145  59.5785353  70.1777648  75.7550962  59.5194822  70.3291623
  77.5072794  58.5530659  69.4594304  76.9601531  57.6733075  69.1206416
  78.9261060  58.6788188  69.1773962  79.3805430  58.0142421  68.4426003
  79.7110717  59.6391832  69.8358263  80.7970841  59.5460950  69.8392421
  80.5026995  64.2017727  71.1750770  79.6062587  64.6350049  71.8415039
  81.7888345  64.5855446  71.4559683  82.4907125  64.0909673  70.9241227
  82.2174230  65.4283464  72.5180720  82.0048018  64.9864127  73.4915123
  83.7464099  65.5889559  72.3723892  84.0699391  64.5481077  72.3644401
  83.9650951  66.0442546  71.4064804  84.5267097  66.3333479  73.4495832
  84.7703516  67.5491460  73.4682538  85.0593023  65.5774134  74.3771252
  85.5913456  65.9997222  75.1245776  84.9354782  64.5756973  74.3406139
  81.4440397  66.7060964  72.6898135  81.3150191  67.4989474  71.7445860
  81.0053922  67.0484574  73.9129105  81.0012369  66.2320744  75.1516144
  82.0411971  66.0568859  75.4270996  80.5245010  65.2817419  74.9114267
  80.2145314  67.0365693  76.2469739  80.8549330  67.7078967  76.8190790
  79.6643501  66.3898503  76.9304623  79.2720517  67.8023107  75.3552838
  78.8356059  68.6639471  75.8604539  78.4771699  67.1922748  74.9261932
  80.2639784  68.2930709  74.2039998  79.6635116  68.5447342  73.3298125
  81.2201600  69.4785382  74.5353814  81.5069869  69.7814923  75.7195428
  81.7389639  70.1829066  73.4861333  81.8182431  69.7139402  72.5951313
  82.2665987  71.5532760  73.6034638  82.5370660  71.7980123  74.6306204
  83.5453051  71.6004813  72.7301897  83.6597226  72.6839547  72.6971259
  84.4375522  71.1546730  73.1697920  83.3951290  71.0863988  71.3140448
  82.4069623  71.4560095  70.6507473  84.1521030  70.1369901  70.9660514
  84.0881447  69.7609825  70.0308362  84.8176794  69.7584409  71.6246934
  81.0729278  72.5015271  73.1612347  79.9448133  72.1737012  73.3477336
  81.3856682  73.7161885  72.6546282  82.2973545  74.1115813  72.8351604
  80.4091224  74.5344444  72.0261790  79.5399807  73.9641654  71.6983470
  79.9590640  75.5411923  73.1133902  80.8175508  76.1232246  73.4485588
  79.2135283  76.2094994  72.6825282  79.3326942  74.9356388  74.3567702
  80.0265266  74.4806631  75.4029569  81.1123685  74.5719263  75.3761561
  79.1498103  73.9684097  76.3331106  79.5029228  73.6951897  77.2390697
  77.8439262  74.0894320  76.0030901  76.6322948  73.9537304  76.6183887
  76.6720595  73.5553836  77.6322118  75.4113140  74.3214844  75.9433393
  74.4478602  74.1563752  76.4256212  75.4413081  74.8860214  74.6813138
  74.5617292  75.1874219  74.1124569  76.7360903  75.0868728  74.0818726
  76.6750477  75.6247810  73.1358128  77.9498767  74.7350027  74.6811464
  80.9254543  75.0922251  70.7226457  81.6599565  76.1026933  70.7312742
  80.4504766  74.5917985  69.5797378  79.7891348  73.8448394  69.7371499
  80.8450639  74.8832216  68.2182055  81.9267975  74.9665588  68.1132934
  80.3660817  73.7025346  67.3888893  80.3948352  72.7922377  67.9877483
  79.3466522  73.8790765  67.0458202  81.3036194  73.5445656  66.1633193
  81.3718405  74.5470157  65.7407787  82.2665471  73.2645974  66.5905079
  80.8632842  72.3516524  64.8266069  81.2158544  70.8616633  65.7928355
  80.5781250  70.8417271  66.6765791  81.0203657  69.9786946  65.1843528
  82.2616379  70.8662624  66.1001090  80.3950616  76.2126803  67.7119551
  79.1895497  76.4952908  67.5340750  81.3643002  76.9866690  67.1357510
  82.3216210  76.7043248  67.2904050  81.1148840  78.2595918  66.4267819
  80.1116390  78.6256547  66.6449485  82.1472298  79.3240410  66.9020197
  81.8714468  80.3024666  66.5086672  82.1594318  79.3612185  67.9913172
  83.4050297  78.9783871  66.4382742  84.0443716  79.6326505  66.7294462
  81.0999175  78.0320088  64.8780082  80.4415292  78.8330330  64.2286592
  81.8629002  77.0392060  64.3295083  82.4052443  76.4456553  64.9407854
  81.9831851  76.8409019  62.8815850  80.9873001  76.9972472  62.4670148
  82.9482378  78.0580703  62.3909566  83.9515286  77.9106711  62.7906829
  82.9901404  78.0727937  61.3018617  82.5497143  79.0063539  62.7515623
  82.5136234  75.4957160  62.3335841  83.2802784  74.8717489  63.0165645
  82.1950346  75.0550527  61.1424699  81.5264958  75.6013657  60.6183542
  82.7145799  73.8186258  60.5357679  83.7087985  73.5148956  60.8634513
  81.7152132  72.6568730  60.8320340  81.1787631  72.9963955  61.7180617
  80.6896979  72.1975870  59.7470383  81.2254517  71.8574660  58.8608179
  80.0845634  71.3809955  60.1408540  80.0424307  73.0333450  59.4812275
  82.4788610  71.4301426  61.2986437  83.0327246  71.6698016  62.2063335
  81.7775719  70.6214638  61.5043909  83.1752382  71.1173289  60.5206288
  82.9507106  73.8486873  59.0086619  82.3057832  74.6292362  58.2432588
  83.9019558  72.9779054  58.5673168  84.3846103  72.4729770  59.2968312
  84.4421159  72.9229783  57.2161344  83.6158093  72.8680626  56.5074025
  85.3080357  74.1717132  56.8751797  84.7364942  74.9914952  57.3103772
  86.2126791  74.0089929  57.4610488  85.7061558  74.5394685  55.3727185
  86.3988129  75.3773163  55.2931074  86.1485408  73.6576953  54.9091771
  84.3931480  74.8907438  54.6552722  83.7585840  73.9342318  54.1582809
  84.0202567  76.0742210  54.6686412  85.1043384  71.6146575  56.7168357
  85.5329517  70.7268182  57.4221810  85.1473888  71.4164330  55.4003917
  84.8669419  72.1504905  54.7658775  85.6657592  70.1519308  54.8268470
  85.8319927  69.4381461  55.6336784  84.5428366  69.6190658  53.8850117
  84.2524688  70.4370878  53.2257494  84.9846852  68.3882026  53.0251195
  85.2747788  67.5695602  53.6837324  84.1556510  68.0692675  52.3933891
  85.8317780  68.6673581  52.3985374  83.3382644  69.1133535  54.7630333
  83.6621056  68.1970926  55.2566865  83.1424486  69.8797777  55.5129330
  82.0899278  68.8460289  53.9868862  82.2848535  68.0793200  53.2370454
  81.3077057  68.5014570  54.6632722  81.7651976  69.7620054  53.4932899
  86.9472085  70.3926338  53.9539262  86.9167874  70.9391327  52.8250721
  88.1454266  70.1494949  54.5205784  88.1990996  69.9000103  55.4978072
  89.3826825  70.3799548  53.8011537  89.4212815  71.3857658  53.3828792
  90.5530109  70.2226424  54.8412423  90.4739172  69.1734966  55.1260871
  91.5294496  70.4040170  54.3920532  90.3864614  71.1329444  56.1277571
  89.4249980  70.9347723  56.6014837  91.4964635  70.8090587  57.0914383
  92.4582970  71.0074321  56.6185502  91.3961528  71.4277290  57.9832261
  91.4398889  69.7571396  57.3713771  90.2988780  72.6135967  55.7808870
  89.4394640  72.7852504  55.1327805  90.1854795  73.1954903  56.6955682
  91.2089291  72.9210674  55.2657484  89.6163814  69.5508495  52.5357355
  90.1472768  69.9992970  51.4155275  89.2703104  68.2886218  52.4943589
  88.9269021  68.0881038  53.4227783  89.2410498  67.2604782  51.5366566
  88.7890174  67.6028271  50.6057629  90.7216799  66.8346481  51.2475891
  90.8541890  66.0921422  50.4606802  91.1119862  67.7947353  50.9099596
  91.4670810  66.3957274  52.4832168  91.4565636  65.1923744  52.7715773
  92.2107219  67.2177973  53.0284528  88.4831490  65.9562459  52.0116035
  87.6526478  65.9868870  52.9457137  88.6281750  64.8317344  51.2942476
  89.2720046  64.9027519  50.5193029  87.8608814  63.6018878  51.4445400
  86.7911787  63.7998605  51.5126735  88.1299860  62.7494080  50.1643545
  89.2041156  62.9341007  50.1796296  87.9454821  61.6765937  50.2202816
  87.5421751  63.2962165  48.8797519  86.9089394  64.3625030  48.9419176
  87.4170327  62.6008285  47.8472404  88.1111679  62.8553090  52.7430414
  87.1712305  62.2026181  53.2393501  89.2011437  63.1716390  53.4425771
  89.7344292  63.9505390  53.0833826  89.6839960  62.4960645  54.6700744
  89.0486572  61.6511687  54.9357714  91.0347149  61.9963745  54.3868196
  91.5020288  62.8149975  53.8394866  91.7006263  61.6662098  55.1840982
  90.7703920  60.8464502  53.4434069  89.9832944  59.9328554  53.7389941
  91.4843866  60.7090877  52.4496079  89.7377759  63.4643681  55.8928106
  90.0346385  62.9978167  57.0288301  89.5735827  64.7994817  55.6409109
  89.2699759  65.1198536  54.7324594  89.9171532  65.7914046  56.6395811
  89.9267779  65.3084688  57.6167093  91.3139716  66.4527720  56.3949337
  91.1774733  66.6911493  55.3401144  91.6423054  67.3445088  56.9288834
  92.4053014  65.3764748  56.5182528  92.9504850  65.0569431  57.5378985
  92.9369291  65.0274211  55.4026541  93.6629731  64.3254150  55.3905116
  92.6264876  65.4565513  54.5426692  88.8100222  66.8307394  56.6817977
  88.5989599  67.5389989  55.6864961  88.2935427  67.0742355  57.8953613
  88.7188115  66.5411916  58.6404183  87.2460008  68.0205500  58.2368928
  87.0089436  68.6623019  57.3883307  85.9756716  67.2181245  58.6215512
  86.0091843  66.9762675  59.6838512  85.0671153  67.7803898  58.4059513
  85.8555637  65.8877826  57.8729730  85.6509278  65.8235863  56.4608898
  85.3825115  66.7322180  55.9219639  85.7928660  64.5965941  55.7584387
  85.8619486  64.6185810  54.6708520  85.8441773  63.3805240  56.4349080
  85.8487612  62.4280943  55.9048546  85.8912001  63.4035206  57.8508254
  85.9069964  62.4537895  58.3854855  85.9181780  64.6488010  58.5871425
  85.9856113  64.6373623  59.6749944  87.6706136  68.8828919  59.4715055
  87.9863766  68.2801987  60.4695459  87.5710100  70.2290353  59.3853782
  87.1870446  70.5198839  58.4976412  87.8611761  71.2405669  60.3677857
  88.5646860  70.9189670  61.1357353  88.5499545  72.3687770  59.4894553
  89.4319575  71.8270385  59.1478570  87.9571046  72.6766580  58.6281549
  88.9847135  73.6047892  60.2763164  88.0974819  74.1000388  60.6708400
  89.9203344  73.2125935  61.4470504  90.8080679  72.7176707  61.0532493
  90.2163562  74.1088655  61.9921820  89.3958350  72.5348946  62.1206415
  89.5310997  74.6667738  59.3613847  88.7627157  74.9619761  58.6468633
  89.8321803  75.5338365  59.9493081  90.3948253  74.2750154  58.8241673
  86.6896666  71.8965979  61.0779721  85.7423260  72.3794402  60.4683573
  86.8040420  72.0084920  62.3885715  87.5907680  71.5694912  62.8451236
  85.8156044  72.7609317  63.2373941  85.1422680  73.3223222  62.5896611
  85.2398987  72.0505538  63.8307116  86.5192274  73.7232077  64.1681359
  87.7446632  73.6243285  64.4161578  85.6621736  74.5092936  64.8023140
  84.6733167  74.4683311  64.6008609  86.1204799  75.4459109  65.8117537
  86.9333732  74.9802317  66.3689310  86.6722685  76.6998024  65.0853837
  85.8677495  77.1822348  64.5303088  87.0757353  77.3973771  65.8193486
  87.4617559  76.4024832  64.3951590  85.0368382  75.9463169  66.8136421
  83.8258593  75.7769289  66.5215672  85.4249067  76.3753452  68.0210719
  86.3863032  76.6535532  68.1567787  84.5319017  76.3897138  69.1735270
  83.4995975  76.5858859  68.8837620  84.6098806  74.9666594  69.8070855
  83.8714978  74.9524919  70.6087647  84.3085978  74.2708874  69.0239954
  85.9608707  74.5534601  70.3574219  85.9964685  73.4738593  70.5033527
  86.6139456  74.8293922  69.5295006  86.4370198  75.2657375  71.6507687
  85.7648490  75.0670616  72.7038543  87.5214421  75.9285102  71.7032335
  84.7550695  77.4437311  70.2744932  85.5726534  78.3337622  70.0890256
  83.9154056  77.5186196  71.3313968  83.2452276  76.7630008  71.3304405
  83.6916635  78.6437868  72.2413178  83.6312058  79.5608843  71.6553347
  82.3695350  78.4932512  73.0757154  81.5523982  78.1510265  72.4406809
  82.5923508  77.7311362  73.8224643  81.9134467  79.8105297  73.8192649
  81.5934101  80.7923633  73.1918054  81.8454863  79.7089872  75.1486382
  81.5617928  80.5068389  75.6991383  82.0780733  78.8347755  75.5978132
  84.9141079  79.1273657  73.0721428  84.9045927  80.2388144  73.6335590
  85.9245026  78.2778605  73.1707659  85.7835125  77.3749129  72.7407580
  87.1469311  78.4911104  73.9593507  86.9876045  79.3980720  74.5425614
  87.3876980  77.3223377  74.9256657  87.5579351  76.4086138  74.3562555
  88.2614898  77.5338758  75.5419772  86.5148246  77.1936704  75.5656938
  88.3650311  78.7852795  73.0303831  89.4172489  78.9210615  73.6087298
  88.1446968  78.9494709  71.6992051  87.2752574  78.5618328  71.3616975
  89.1196223  79.4969986  70.6929811  88.5401039  79.7648027  69.8095001
  89.9301461  80.6970688  71.1203551  90.8104960  80.4219087  71.7011908
  90.2411310  81.2192007  70.2154979  89.1721247  81.6773426  71.9369136
  88.0206682  82.3051411  71.4297460  87.7024640  82.0951677  70.4085912
  87.2753986  83.2043567  72.2338563  86.3751394  83.6669722  71.8293552
  87.6833168  83.4958834  73.5228047  87.1825609  84.2746114  74.0980665
  88.7349894  82.7911256  74.0813672  88.9326635  82.8821068  75.1494251
  89.5448358  81.9638341  73.2849222  90.4605410  81.5388155  73.6959490
  90.0541405  78.3997741  70.1468600  91.1827890  78.7453977  69.7614693
  89.6370860  77.1287120  70.0776033  88.7930211  76.8691033  70.5677635
  90.4193088  76.0651049  69.4207034  91.4477014  76.3774556  69.2391964
  90.4325611  74.8789378  70.3695664  89.3935358  74.5712600  70.4872949
  90.9913979  74.0865562  69.8716378  91.0341383  75.1042272  71.7535139
  92.2240412  74.8806708  71.9511670  90.2544258  75.5178770  72.6604423
  90.6095030  75.6807776  73.5918302  89.2808392  75.6831067  72.4484775
  89.8936135  75.7192614  67.9880357  88.7123630  75.5598801  67.7587786
  90.7840653  75.6566444  66.9826200  91.5826122  76.2654288  67.0912652
  90.7080690  74.8107841  65.7752808  89.7213508  74.8729141  65.3163405
  91.7791781  75.3360216  64.7415275  92.7286232  75.0826295  65.2131689
  91.5767564  74.6334926  63.9330855  91.8543570  76.7661678  64.1720892
  91.9432732  77.5249518  64.9495476  93.1538032  76.7328286  63.3336208
  93.0654555  75.9745464  62.5556095  93.3150253  77.7076990  62.8734731
  93.9979052  76.4927130  63.9801010  90.7272068  77.2198191  63.2075049
  89.7666272  77.1669909  63.7199456  90.9122859  78.2455115  62.8884405
  90.7096295  76.5661494  62.3354350  90.9985486  73.3536109  66.1060931
  92.1164306  73.1202806  66.6200869  90.2701221  72.4065651  65.4839250
  89.4450021  72.8411430  65.0960869  90.3906715  70.9539648  65.4021796
  91.4398705  70.6633462  65.4552974  89.6391034  70.2954409  66.5693393
  89.6682870  69.2074983  66.5091029  90.0979888  70.6195338  67.5034100
  88.1770718  70.6863093  66.6460939  87.2970432  69.7660237  65.9610793
  87.7515103  68.8818916  65.5140110  85.8881382  69.9754926  65.8557494
  85.2380752  69.3202854  65.2759026  85.3463002  71.0786544  66.5378004
  84.2691434  71.2426583  66.5072071  86.1889700  71.9821643  67.2667911
  85.7378172  72.8294686  67.7831600  87.5993464  71.7831087  67.3212447
  88.2262952  72.4761057  67.8823064  90.0156036  70.3598163  64.1118566
  89.0600775  70.6995937  63.4518094  90.7105677  69.2381037  63.7397560
  91.3668059  68.8339181  64.3925077  90.4726188  68.5480911  62.4901690
  89.5618445  68.8872096  61.9966227  91.6606620  68.6786005  61.4881526
  92.5093527  68.1550822  61.9283250  91.3759624  68.1093319  60.1014005
  90.5276254  68.6327042  59.6603714  92.2527303  68.2404681  59.4672225
  91.1438623  67.0475806  60.1845596  92.2838924  69.9947607  61.1982831
  92.6856820  70.4177634  62.1190088  93.0903853  69.8644275  60.4767000
  91.5337669  70.6696502  60.7860492  90.3887758  67.0786894  62.8376863
  91.2993278  66.5428116  63.4336325  89.2767687  66.4730419  62.4429849
  88.6222455  67.0630271  61.9494100  88.8919244  65.1284040  62.7314238
  89.6572115  64.6596910  63.3500860  87.5178329  65.0727699  63.5016220
  87.2641480  64.0636456  63.8262930  87.4942523  65.7462315  64.3583562
  86.1626121  65.6061205  62.4010677  85.1898997  65.4562659  63.2956472
  88.8917612  64.3861958  61.3813449  89.0298989  64.9884608  60.3035111
  88.9590090  63.0305962  61.4207102  88.9497132  62.5137231  62.2883824
  89.1345354  62.2932602  60.1819257  88.7885707  62.8683727  59.3230583
  90.6619035  62.0260722  60.0200047  91.0873645  62.9856466  59.7262377
  91.0109039  61.7650659  61.0190915  91.0926978  60.9733489  59.0516091
  91.0402594  60.1222452  59.7305595  90.3443720  60.8585470  58.2674337
  92.4486263  60.9974698  58.4188446  93.3075526  60.1619322  58.6413677
  92.7320403  62.0357601  57.7560997  93.6322189  62.1129109  57.3046270
  92.0569602  62.7832606  57.6811917  88.2924169  61.0002754  60.1859895
  88.2230736  60.3697360  61.2364392  87.7487919  60.5598559  59.0630489
  87.7180227  61.1479804  58.2425234  87.1021232  59.2834489  59.0080324
  86.5763515  59.1007167  59.9451942  86.0870097  59.2286523  57.8571190
  85.6243168  58.2420843  57.8835385  85.3321812  59.9888934  58.0580355
  86.6905105  59.4662731  56.4887688  87.1422732  60.4582464  56.4882812
  87.4639034  58.7153097  56.3274637  85.6739687  59.3800204  55.3905191
  85.0015812  58.5280558  55.4912674  85.0888400  60.2919795  55.2719676
  86.5645790  59.1834777  54.1640110  87.3961415  59.8809351  54.2647952
  86.9406922  58.1614415  54.2096194  85.8985441  59.4011447  52.8784545
  85.5503321  60.3482615  52.8358162  86.5576404  59.2506439  52.1280936
  85.1282304  58.7546754  52.7846813  88.3054267  58.2841290  58.9075606
  89.1950880  58.5148505  58.1621371  88.2469754  57.2267864  59.6566642
  87.4476177  57.0738876  60.2547851  89.3665939  56.3161854  59.7618032
  89.8692313  56.2120649  58.8002349  90.3406183  56.8649789  60.7526550
  90.3489618  57.8875498  60.3753244  89.9497332  56.8568776  61.7701240
  91.7583035  56.3120749  60.7498726  92.1841666  55.6595878  59.7609665
  92.3886626  56.3590545  61.8326105  88.7933930  54.8943106  60.0837265
  88.4265530  54.6820253  61.2355131  88.7945016  54.0119806  59.0527500
  88.9346598  54.3977064  58.1298900  88.2559898  52.6454720  59.1640760
  87.8297197  52.4683160  60.1515013  87.1611212  52.5012306  58.1324761
  86.3608424  53.2020663  58.3701362  87.5710240  52.7379706  57.1506239
  86.6426979  51.1745344  58.1229037  85.9501513  51.1063762  57.4615917
  89.3322590  51.5761356  59.3366976  89.1407975  50.3859918  59.1024044
  90.5444186  51.9872931  59.6709993  90.5828401  52.9903726  59.7825999
  91.7477501  51.2435282  59.8326966  91.9796043  50.6322117  58.9605527
  92.8593866  52.2700655  60.0174629  92.6459767  52.8839694  60.8924934
  93.8099773  51.7556242  60.1582733  92.9182198  52.9056806  59.1339295
  91.6267222  50.2714553  61.0181891  92.0084241  49.0705104  60.8655424
  91.0446295  50.6886565  62.1311025  90.9512512  51.6942799  62.1210341
  90.7203882  49.9720356  63.3704330  91.6923929  49.7108067  63.7888411
  90.0366506  51.0797572  64.3126775  89.0584237  51.3449388  63.9116154
  89.9194684  50.6788628  65.3194805  90.6676246  51.9678988  64.3469632
  89.9696892  48.6394857  63.2584018  89.4031132  48.2571858  62.2400765
  89.9971383  47.9452640  64.4189278  90.4789252  48.3337560  65.2170849
  89.3885349  46.5502572  64.5489090  89.0229139  46.2308140  63.5730113
  90.4252627  45.5211021  65.0483868  89.9561347  44.5415676  65.1407524
  91.5387663  45.4451585  64.0737009  92.0087127  46.4242819  63.9811415
  92.2757936  44.7201538  64.4190386  91.1520522  45.1350975  63.1029203
  90.9192804  45.9406330  66.3042476  91.5651853  45.3056490  66.6223712
  88.1275924  46.2972846  65.4441665  87.6727894  45.2130583  65.7548906
  87.4781479  47.3677181  65.7810049  87.9867640  48.2243965  65.6151406
  86.1237105  47.4561835  66.4384289  85.5841901  46.5090808  66.4347952
  86.3151009  47.8934062  67.8606529  85.3073896  48.0275131  68.2538875
  87.0946900  46.9929958  68.7776393  88.1027266  46.8587833  68.3852761
  87.1481921  47.4419712  69.7694344  86.5992824  46.0243611  68.8441129
  86.9675157  49.1971617  67.8883923  87.0889449  49.4748916  68.7992827
  85.2437012  48.4296361  65.5949316  85.6919715  49.5291415  65.2119242
  83.9829122  48.1127022  65.3634797  83.7016748  47.1654760  65.5726862
  82.9915406  49.0173992  64.7364912  83.2713538  49.2436290  63.7075968
  81.6319868  48.3194333  64.7306433  81.4674674  48.2571689  65.8063551
  80.8530497  48.9340773  64.2794561  81.5855546  46.8718319  64.1075726
  81.3858417  46.8470648  62.8938101  81.5783822  45.8343954  64.7988642
  82.9138202  50.3888010  65.4048255  82.9017715  51.4060282  64.6970679
  82.8910205  50.4125068  66.7026653  82.6999636  49.4906806  67.0684972
  82.9403785  51.5357034  67.6415254  82.0631340  52.1719382  67.5242798
  82.9595208  50.9877635  69.0697801  81.9749064  50.5472693  69.2266191
  83.7134347  50.2005446  69.0703002  83.2746519  52.0336571  70.2547092
  83.2556199  51.5585881  71.2355496  84.3008504  52.2979577  69.9994424
  82.4186878  53.2932246  70.2843247  82.8121656  54.2450589  71.0627151
  81.4761087  53.4374854  69.4699835  84.0595303  52.4959841  67.3051281
  83.8136734  53.7182718  67.1367831  85.3202714  52.0591475  67.3298577
  85.4986114  51.1128834  67.6346175  86.4322759  52.8721239  66.9641455
  86.4006636  53.7970571  67.5399914  87.8134867  52.1502304  67.2419574
  87.7850919  51.7270347  68.2460482  87.9357065  51.3485181  66.5136582
  89.0042791  53.1346513  67.1303953  89.3278680  53.0222416  66.0956223
  88.6196842  54.1431019  67.2827545  90.1630819  52.9014727  68.0418391
  90.6437199  53.8791610  68.6821982  90.5823245  51.7508012  68.0342451
  86.4120656  53.2498924  65.5180710  86.6399059  54.4450031  65.1951156
  86.1061866  52.2550468  64.6217082  85.9140400  51.3090883  64.9189314
  86.0393286  52.5656505  63.1648223  87.0247493  52.8423074  62.7899808
  85.5479917  51.3051603  62.3910293  84.8197254  50.8529224  63.0642368
  85.0330911  51.7161106  61.5226416  86.5867520  50.2014742  61.9168100
  87.4865257  50.6774517  61.5269979  86.8519089  49.5536675  62.7523579
  85.9320120  49.3675360  60.8129097  85.4127362  50.0341607  60.1243873
  86.7058235  48.8206453  60.2741837  84.9612524  48.4001848  61.3561954
  83.9757069  48.5337695  61.1802558  85.3556827  47.2764550  61.9936568
  86.5366653  46.8455099  62.2300959  87.3368033  47.3782692  61.9201820
  86.6633411  45.9745521  62.7255608  84.3806018  46.5757074  62.5303943
  83.4264680  46.8957219  62.4448414  84.5904942  45.7208411  63.0256191
  85.0578202  53.7116912  62.8987618  85.3896585  54.4801753  62.0068669
  84.0003597  53.8931285  63.6823763  83.7205324  53.0158413  64.0973020
  83.0759863  54.9620634  63.6882133  83.1389095  55.5243024  62.7565336
  81.6519804  54.3998486  63.8274777  80.9996577  55.1013280  63.3073805
  81.6525884  53.4458020  63.3003204  81.1409604  54.1921956  65.2599468
  80.1980304  53.6533914  65.3530806  81.9445336  53.5941753  65.6897653
  81.0342933  55.5060586  66.0443516  80.2475370  56.3637153  65.7738989
  81.7138625  55.5884438  67.1387863  81.6762540  56.4335632  67.6905655
  82.2799533  54.8073930  67.4381227  83.3283262  56.3163344  64.4087184
  82.6230032  57.2687688  64.1421135  84.3451579  56.4989437  65.2421260
  84.7003795  55.6906784  65.7326607  84.8540831  57.7976693  65.6062988
  84.0896901  58.4672706  66.0005535  85.8414660  57.4773258  66.7198231
  85.7497873  56.6261148  67.3944593  86.7421437  57.3663696  66.1160281
  86.0404130  58.6380493  67.5463496  85.0368809  59.4542955  68.0328271
  85.6474854  60.3971906  68.7521998  85.0798065  61.1182340  69.3403631
  86.9899798  60.2426720  68.5812616  87.6998572  60.7921355  69.0441479
  87.2263541  59.2706597  67.7229643  88.2301089  59.1296930  67.3220828
  85.3991981  58.6772581  64.4412468  85.9063157  58.1200787  63.4305432
  85.3561686  59.9968714  64.6221393  84.8005699  60.3867413  65.3700770
  86.0903118  60.8887044  63.7919117  86.3289952  60.4293175  62.8326969
  85.1908912  62.1427123  63.5355821  84.7703743  62.5549763  64.4528079
  85.9066643  62.8490816  63.1150928  84.0692749  61.8942153  62.5282176
  83.4938364  61.0179040  62.8266300  83.1551748  63.1141517  62.4926903
  83.7298444  63.9908335  62.1938879  82.3513181  62.9457354  61.7760655
  82.7300003  63.2791831  63.4826860  84.5988312  61.8245344  61.1031847
  85.3192381  61.0105669  61.0221277  83.7716802  61.6467529  60.4159322
  85.0854034  62.7663042  60.8493813  87.3212912  61.2100552  64.6293850
  87.2996382  62.0688790  65.5407773  88.4808632  60.6444323  64.2984886
  88.4864410  60.1286066  63.4301614  89.7567020  60.7240383  65.0878777
  89.5136727  60.5492374  66.1359620  90.8490774  59.6934968  64.6493835
  91.1274957  59.9207601  63.6203383  91.7146025  59.8293099  65.2978595
  90.3763328  58.2700516  64.7372383  89.3803063  58.4000001  64.3139826
  90.9458859  57.5766859  64.1184045  90.2391256  57.6794087  66.1253028
  90.4249210  58.2871621  67.1909865  90.0922850  56.4031477  66.2960094
  90.0024541  56.0286736  67.2297123  90.0683677  55.7890007  65.4945403
  90.4479511  62.1216106  64.9575687  90.6098585  62.6383802  63.8343638
  90.8296745  62.8606075  66.0211681  90.2639536  62.7924976  66.8550867
  91.7675792  63.9845437  65.9061016  91.3586950  64.6998602  65.1924943
  92.0159642  64.6951592  67.2116852  92.5337638  65.6338412  67.0145586
  91.0602189  64.9021767  67.6931358  92.8841714  63.8125012  68.1453050
  93.0503402  62.7879131  67.8125770  93.8271001  64.3588191  68.1224697
  92.3291683  63.8017914  69.5907291  91.1804513  63.4984022  69.8595286
  93.1385174  63.9417226  70.5124744  93.0155064  63.7376593  65.0472799
  93.6944337  62.7374169  65.2859803  93.2922175  64.6753162  64.1035047
  92.4798787  65.1927166  63.7993635  94.5105744  64.7936140  63.3301496
  95.4369526  64.4165799  63.7634713  94.3463392  64.1951614  61.9281124
  95.3268581  64.1454457  61.4546039  93.7065908  62.7178907  61.9939093
  92.7257890  62.7668697  62.4669102  93.6029693  62.3209511  60.9840568
  94.3575972  62.0650269  62.5753396  93.7064458  65.0912108  60.9564077
  94.3043720  65.9959988  60.8471152  93.6303896  64.5879559  59.9925355
  92.7089450  65.3557105  61.3073107  95.2664094  66.1050712  63.3212977
  96.5141300  66.0127743  63.1198242  94.5776771  67.2256397  63.4649472
  93.5729495  67.3025384  63.3963306  95.3490803  68.4380845  63.7446749
  96.3379569  68.1558710  64.1060303  95.4498105  69.0162312  62.8261439
  94.6521099  69.3110281  64.8151271  93.4440915  69.5746668  64.7048768
  95.3388173  69.7611855  65.9049075  96.3391378  69.6228267  65.9226584
  94.7110817  70.5019820  67.0269709  93.6730865  70.7496304  66.8048550
  94.7442803  69.5934280  68.2555162  95.7623972  69.4081632  68.5978818
  94.2213233  70.2080951  68.9881828  94.0096888  68.2580929  68.0918440
  94.4795391  67.6701384  67.3033955  94.0867891  67.4961095  69.4067530
  93.6166958  68.0832732  70.1956445  93.5679804  66.5428252  69.3058202
  95.1309983  67.3156396  69.6620140  92.5123155  68.4739395  67.8975777
  92.3442793  69.0752020  67.0040752  92.0173586  67.5094343  67.7842263
  92.1037243  68.9916520  68.7654060  95.5268902  71.7453092  67.3620470
  96.7557087  71.6518062  67.4159306  94.9159942  72.8694229  67.6854157
  93.9225328  72.8037792  67.8551943  95.5207327  74.1453839  67.7328384
  96.3934697  74.1016700  68.3843891  95.9746005  74.6266094  66.3262298
  96.5672314  73.8542361  65.8359979  95.0594501  74.7964684  65.7590017
  96.7656047  75.8858221  66.2458262  98.1075103  75.7597471  66.3717121
  98.4713504  74.7523165  66.5737117  99.0002828  76.8065943  66.2604361
 100.0735299  76.6810354  66.4035316  98.4766716  78.0719634  65.9497446
  99.1175880  78.9257297  65.7297236  97.0626692  78.2200498  65.9275243
  96.6200732  79.2130459  65.8489896  96.2364320  77.0873092  66.0067318
  95.1593829  77.1879025  65.8727682  94.6425209  75.2149642  68.3599988
  93.5343421  75.6043498  67.9536645  95.1876039  75.8092295  69.4042226
  96.0505675  75.4397070  69.7768435  94.5288457  76.9087935  70.1284248
  93.4451769  76.8431954  70.0311735  94.8995385  76.7955079  71.6306319
  95.1981466  75.8498473  72.0830240  95.7828601  77.4108076  71.4596078
  94.0563363  77.5233224  72.6621381  94.2990594  77.6675149  74.0527980
  93.1774391  78.1306738  74.5717949  93.1985138  78.4458158  75.6150304
  92.1545357  78.1242969  73.6509441  91.1730786  78.3214723  73.7849726
  92.7091453  77.7986052  72.5026797  92.1074800  77.7750575  71.5940843
  94.8310824  78.3140296  69.5511576  95.8498690  79.0084392  69.8282823
  93.9250929  78.7426079  68.6373891  93.1691564  78.0911980  68.4814260
  93.9795745  79.9194238  67.8347098  94.9034349  80.0027314  67.2623105
  92.8408367  79.7531176  66.8817651  93.1273150  78.8201698  66.3963398
  91.8899564  79.6169773  67.3969277  92.6952591  80.8626869  65.8181467
  92.5248332  81.7991309  66.3493044  93.9436111  81.0128871  64.8825616
  94.1144012  80.0769201  64.3506826  93.7649164  81.8117776  64.1628791
  94.8209644  81.2545738  65.4825108  91.3960835  80.6640483  65.0529367
  90.5552723  80.7118567  65.7449269  91.2928105  81.4471868  64.3018508
  91.4076929  79.6905295  64.5628088  93.9482953  81.1959279  68.6759563
  94.5033083  82.2243019  68.2787252  93.2095175  81.2016846  69.7982648
  92.7250082  80.3711199  70.1073155  93.0861463  82.4305014  70.6140558
  92.6020888  82.1818051  71.5584803  94.0822810  82.8271077  70.8103170
  92.2501625  83.5077965  69.8892996  92.4405446  84.7253221  70.0291784
  91.2561010  83.0567250  69.1050100  91.2637766  82.0740341  68.8718600
  90.2383074  83.8883693  68.5204855  89.8964913  84.6512764  69.2199379
  90.8622467  84.5791027  67.3126509  91.6853464  85.1627596  67.7249017
  91.2618893  83.7656144  66.7071572  89.9805214  85.4847473  66.4362576
  90.6290179  86.0079563  65.7335447  89.2326360  84.9150663  65.8846870
  89.2815679  86.5027542  67.3397885  89.8947985  87.1308893  68.2406640
  88.0415781  86.6517742  67.1705010  89.0066885  83.0410868  68.1736021
  89.0330696  81.8412780  67.8476728  87.8580897  83.6746144  68.1662714
  87.9050806  84.6656389  68.3553788  86.5331417  83.0613026  67.9841223
  86.5536899  82.0344685  68.3492096  85.4224869  83.8596931  68.7815981
  85.7053187  84.1224228  69.8009501  85.3109495  84.7685720  68.1903295
  84.0754075  83.2362168  68.8613113  83.0679785  83.5470207  67.8295376
  83.2487430  84.2222411  66.9931756  81.8113571  82.9143555  67.9684024
  81.0975050  83.1437640  67.1772718  81.4609978  82.0835068  68.9741288
  80.4621912  81.6495906  69.0210556  82.4040753  81.7815463  69.9672284
  82.1169681  81.2166586  70.8541171  83.7522727  82.2223294  69.8072660
  84.5449975  81.7820902  70.4121436  86.1572132  82.9598351  66.4920971
  85.4663559  83.8663856  65.9473566  86.6224630  81.8830312  65.8861087
  87.2908165  81.2813555  66.3458797  86.2185770  81.5531447  64.4654779
  86.7513783  82.2291841  63.7967533  86.6130230  80.1340680  64.1317507
  86.1066317  79.4750457  64.8369859  86.2326336  79.7171743  62.6552303
  86.7390487  80.3755031  61.9493636  86.5418632  78.6872958  62.4768264
  85.1543088  79.8008396  62.5198889  88.1265724  79.9813612  64.2219272
  88.4564426  80.2173385  65.2336596  88.4038120  78.9553554  63.9799561
  88.6035985  80.6620115  63.5167590  84.6967764  81.7500531  64.2273179
  83.9550109  81.1719759  65.0148339  84.2241922  82.3629515  63.1456535
  84.9171059  82.6397803  62.4649658  82.8088544  82.6005466  62.8345191
  82.1766001  82.2532988  63.6516926  82.5779341  84.1082995  62.6412036
  83.5126427  84.6178698  62.8752065  82.3575908  84.2237333  61.5799667
  81.4683631  84.7482591  63.4359437  80.6751815  84.1543626  64.1414102
  81.4006716  86.0793803  63.3646470  80.6810120  86.5733125  63.8728014
  82.0694203  86.5866103  62.8028698  82.3623068  81.9798124  61.5451194
  81.1584461  81.8932610  61.2921014  83.3639854  81.6311356  60.7090330
  84.3258075  81.7435793  60.9960068  83.0880874  81.3637139  59.2973018
  82.4712766  80.4748672  59.1646551  82.5033018  82.5041217  58.4333614
  81.5203364  82.7912612  58.8067635  83.4454530  83.6956806  58.5179049
  84.4285680  83.4094224  58.1442177  83.0521919  84.5139894  57.9147325
  83.5315684  84.0185408  59.5554245  82.0995686  82.2375884  57.0010540
  81.3278064  81.4682116  56.9777209  81.7119984  83.1538798  56.5557461
  82.9673985  81.8982277  56.4355396  84.3801707  80.6321537  58.7003686
  85.5071228  81.1460299  58.9721120  84.2133834  79.7305761  57.7539999
  83.2850828  79.4021486  57.5292940  85.3809824  79.2092097  56.9318663
  86.3220393  79.6841569  57.2092405  85.4743573  77.7473702  57.2388049
  84.4397858  77.4047802  57.2586327  86.0266741  77.1900138  56.4822336
  86.0733625  77.3807642  58.5645261  87.3226428  77.9032739  58.8303314
  87.7270340  78.6191112  58.1146886  88.0777431  77.5440620  59.9808567
  89.0765460  77.9579860  60.1192773  87.5511255  76.6731755  60.9234247
  88.0801773  76.3894601  61.8332103  86.2426515  76.1379583  60.6554686
  85.7975952  75.4484774  61.3728536  85.5382606  76.4916128  59.4886439
  84.5534719  76.0657857  59.2963878  84.9934154  79.4180601  55.4345202
  83.8151077  79.2795053  55.1035106  85.9701611  79.4664417  54.5376389
  86.9007129  79.2557695  54.8689843  85.8146286  79.9029700  53.1829383
  84.9198218  79.4572587  52.7484715  85.6763650  81.4217527  53.1328956
  84.7662012  81.7011923  53.6635695  86.5383667  81.8615658  53.6345105
  85.5804360  82.1968152  51.5600962  85.4756166  83.4390781  52.0234472
  86.9517915  79.3592338  52.3919052  88.0703983  79.8060322  52.5880382
  86.7500484  78.3342572  51.5567784  85.8723702  77.8369318  51.6062526
  87.7232430  77.9142162  50.5676925  88.6873623  77.8206432  51.0675098
  87.3938734  76.5743319  49.8768766  86.3856241  76.4460666  49.4830737
  88.1057318  76.5953349  49.0516999  87.6925553  75.3797181  50.6545012
  88.6937160  74.4238639  50.3444463  88.4741420  73.4430955  51.1983396
  89.1258209  72.5727406  51.1215547  87.4593934  73.7081882  52.0264339
  87.1493392  73.1233929  52.7893105  86.8969686  74.9104717  51.6772365
  86.0106248  75.2698523  52.2000572  87.8307102  78.9622300  49.4099504
  86.8071768  79.3091581  48.7920918  89.1035317  79.3683648  49.2304955
  89.8883691  78.9264061  49.6874441  89.3627617  80.4808076  48.3498021
  89.1857440  80.1358866  47.3310806  88.6462605  81.2640469  48.5973131
  90.7547492  81.0440942  48.4409996  91.3343917  80.9387593  49.5198513
  91.2874798  81.5498239  47.3349474  90.7947915  81.3959586  46.4667982
  92.6576901  82.0737426  47.2742669  93.0631926  82.1713614  48.2813108
  93.5586234  81.1166581  46.4715804  93.5785059  80.1305089  46.9354916
  93.2034466  81.0275554  45.4449304  94.8795028  81.6715194  46.4731417
  95.4686031  81.0967346  45.9789928  92.7383103  83.5717070  46.8899288
  91.9821826  84.0282278  46.0161686  93.6864840  84.3461958  47.5195945
  94.1390768  83.9326879  48.3222590  94.0396026  85.7130354  47.1548237
  93.1913644  86.2355924  46.7126413  94.4523331  86.4485665  48.4493269
  95.3097889  85.8604929  48.7764938  94.7586709  87.4836692  48.2982656
  93.3756317  86.3924996  49.4998337  93.2083834  85.3436187  49.7447371
  93.7305659  87.1537370  50.7587731  93.8975187  88.2028635  50.5147259
  92.9129765  87.0735387  51.4751644  94.6372021  86.7338557  51.1944460
  91.9184712  86.7691617  49.1591492  91.5454332  86.1086782  48.3763953
  91.2978747  86.6638274  50.0490177  91.8813683  87.8014153  48.8110472
  95.1462350  85.8589406  46.1139195  95.1586786  86.8847011  45.4674262
  95.9180345  84.7963915  45.9519784  95.7391398  84.0402189  46.5971908
  97.0666144  84.6571649  44.9911818  97.6218603  85.5948541  44.9679434
  98.0652592  83.4845884  45.3919983  97.4913615  82.5690573  45.5353278
  99.1304003  83.2594633  44.2840948  99.7050451  84.1744868  44.1405114
  99.8005791  82.4531536  44.5821309  98.6340960  82.9925453  43.3510683
  98.8329841  83.7397005  46.6872015  98.1284922  83.8578789  47.5105041
  99.4919189  82.8958789  46.8918222  99.4272997  84.6476982  46.5850739
  96.4354648  84.4828316  43.6276781  95.4853984  83.6574068  43.4826349
  96.9509926  85.1541605  42.5615878  97.6448373  85.8604987  42.7610000
  96.6046778  84.8849598  41.1339723  95.5693860  85.1204289  40.8873462
  97.5520208  85.8811983  40.3461397  97.2009408  86.8845015  40.5874378
  98.5503971  85.7370605  40.7591396  97.5978791  85.7151987  38.8763965
  98.2103220  86.5526136  38.5421047  98.1494692  84.7850354  38.7398440
  96.0647553  85.6566392  37.8811276  95.8195807  87.4649934  38.0146098
  96.6759644  87.9812801  37.5808425  94.9143841  87.7500055  37.4784309
  95.7221347  87.7424674  39.0641877  96.8991506  83.4628551  40.6534454
  97.8965209  82.8125582  41.0164005  96.0405532  82.9174234  39.7698703
  95.2618878  83.4690265  39.4389420  96.0681763  81.4765904  39.4417589
  96.5081872  80.9152644  40.2660177  94.6572996  80.9670139  39.2062409
  94.7259616  79.8831495  39.2990988  94.0682286  81.3653389  40.0323357
  93.9541315  81.3378007  37.8259612  92.8856102  81.4339713  38.0186118
  94.3322678  82.2695771  37.4053573  94.1702061  80.2071955  36.7951409
  95.0852558  79.4450588  36.8001153  93.2920214  80.1707021  35.8502383
  93.3563440  79.4632719  35.1322505  92.5445491  80.8497422  35.8331776
  97.0386040  81.1267112  38.3774424  97.0545921  81.8238550  37.3767027
  97.8880902  80.1528316  38.6728584  97.7782675  79.6129969  39.5193906
  99.1203485  79.9855228  37.8969355  99.0051908  80.4608993  36.9228436
 100.2995130  80.6169758  38.6072362  99.9533194  81.5244103  39.1020207
 100.6353883  79.9005420  39.3569098 101.4871951  80.9739343  37.7032131
 101.4517975  81.1846181  36.4925086 102.5646213  81.0655028  38.2874503
 103.3992112  81.2971959  37.7679528 102.6100730  80.9086040  39.2841537
  99.3509539  78.5312784  37.4535840  99.2008512  77.5571595  38.1597359
  99.7649770  78.3246402  36.1667458  99.6544785  79.1142108  35.5466912
 100.2132718  77.0522710  35.5973871  99.5906151  76.2750706  36.0405094
 100.1467413  76.9168909  34.0242457  99.2479652  77.3017840  33.5424178
 101.0146753  77.4733941  33.6705582 100.3202413  75.3954637  33.6697053
 100.0959310  74.8047793  34.5578932  99.3836178  74.9769458  32.5271056
  99.6076529  75.5669159  31.6383748  99.5286514  73.9193807  32.3066015
  98.3487522  75.1470397  32.8241269 101.7122509  75.1325274  33.0536852
 102.4855542  75.4177062  33.7669696 101.8107478  74.0733409  32.8159388
 101.8240608  75.7207421  32.1428608 101.6452389  76.6194142  36.0530910
 101.8614727  75.4302100  36.4186185 102.5699095  77.5487918  36.1671202
 102.3562538  78.5054823  35.9238220 103.8990908  77.2429371  36.6350943
 104.3249427  76.4881016  35.9740552 104.4955608  78.1534588  36.5778828
 103.9267760  76.7225524  38.0624942 103.0845548  77.0584807  38.8856251
 104.8961854  75.8878405  38.3675933 105.4559174  75.6178797  37.5714020
 105.2219327  75.2988842  39.6871141 104.3520675  74.7959664  40.1096155
 106.3267360  74.2823498  39.5049699 107.0505736  74.7897806  38.8672612
 106.7444203  74.1636359  40.5047433 105.9998478  72.8692740  38.9035175
 106.8824273  72.2298587  38.9208993 105.2303420  72.4431130  39.5472153
 105.4635775  72.9684982  37.4551655 106.1633820  73.5947006  36.6449944
 104.4071630  72.3900529  37.1253679 105.6679837  76.3707290  40.7486433
 106.7311191  76.9958674  40.5789967 104.9075968  76.6128781  41.7659484
 103.9778448  76.2310681  41.6665412 105.2026299  77.4277652  42.9518976
 105.4589123  78.4203771  42.5815734 104.0119954  77.5513519  43.8890342
 103.1222272  77.4998573  43.2615303 103.9191203  76.4688635  45.0148455
 104.8083883  76.5200593  45.6430820 103.0337550  76.6521119  45.6236536
 103.8504235  75.4791972  44.5632461 104.1413885  78.7725093  44.5682617
 103.4026041  78.8831302  45.1712219 106.4411998  76.8582842  43.6791569
 106.9499185  75.7729546  43.3801518 107.0200679  77.5988980  44.6277895
 106.6479897  78.5289722  44.7567053 108.1331746  77.1959407  45.4320089
 108.4432514  76.1884075  45.1548298 109.3081125  78.1397021  45.2270689
 109.0098280  79.1574836  45.4785574 110.1381768  77.8367182  45.8652648
 109.7034947  78.0892927  43.9012424 110.4453228  78.6833744  43.7657515
 107.8719922  77.1208932  46.9291537 108.5933848  76.3834303  47.6611853
 106.7352810  77.6090667  47.3748803 106.2354276  78.2751365  46.8033937
 106.2944932  77.4137158  48.7675361 107.1932176  77.5726471  49.3634677
 105.2241629  78.3709782  49.2424199 105.6176544  79.3813755  49.1312350
 103.8610764  78.2444699  48.4439739 103.4667130  77.2344042  48.5550790
 103.1404358  78.9607646  48.8385598 104.0372264  78.4511039  47.3883346
 104.8108072  78.1657640  50.5339609 104.1347736  78.8089367  50.7595882
 105.9549448  75.9280344  49.1220357 105.2612803  75.3353785  48.2989588
 106.2071674  75.3719355  50.3646832 106.9850992  75.9229967  51.4915921
 106.5283421  76.8545940  51.8256574 108.0071301  76.1164158  51.1657994
 106.9096068  74.8318365  52.5361529 106.0431162  74.9714383  53.1825309
 107.8150891  74.8112572  53.1426014 106.7819025  73.5432826  51.6911639
 106.4726612  72.6094796  52.1607176 107.7382586  73.3975336  51.1889292
 105.7359029  73.9874449  50.6912310 105.8973405  73.4406889  49.7622025
 104.3027184  73.7297669  51.1956694 103.9315370  72.8176633  51.9289751
 103.3913549  74.5913529  50.6746202 103.6904028  75.1477070  49.8864959
 101.9864420  74.7797537  51.1911216 101.5852056  74.0459959  51.8901983
 101.8536737  76.1723916  51.8137203 100.7855598  76.3515455  51.9367520
 102.5672375  76.3721506  53.1662960 103.6355323  76.1936087  53.0439491
 102.4074890  77.3925225  53.5147506 102.1637273  75.6717005  53.8974935
 102.1729963  77.2172582  50.8538099 102.0807643  78.0759535  51.2730186
 100.9897267  74.6174754  49.9694255 101.3359537  74.9224032  48.8301473
  99.7485519  74.1237957  50.2308034  99.5441166  74.0477866  51.2169718
  98.7243715  73.6634235  49.2633408  98.7421989  74.2636187  48.3536446
  99.0553242  72.2012611  48.8960993 100.1149372  72.2502388  48.6452591
  98.9309565  71.6807493  49.8456782  98.2995255  71.4373991  47.7882684
  97.8850816  72.1095200  47.0368759  99.0464619  70.7923333  47.3255826
  97.1724718  70.5638830  48.3367659  96.8246215  70.5663335  49.5169948
  96.4862126  69.8296045  47.4608382  95.7331179  69.2384194  47.7824748
  96.7225490  69.8678755  46.4796237  97.3663145  73.8060651  49.8867376
  97.0883278  73.5297539  51.0418071  96.4096875  74.2257036  48.9976250
  96.5893954  74.2684322  48.0046604  95.1019798  74.6218370  49.4761362
  94.4079492  74.6162200  48.6356667  94.7722398  73.9004460  50.2237764
  95.1141257  76.0207681  50.1038602  96.1731159  76.5956878  50.4849602
  93.9310478  76.6129456  50.2287655  93.1968039  76.0647636  49.8039340
  93.5738991  77.9527869  50.8131551  94.2347602  78.1710596  51.6520345
  93.7190892  79.0592499  49.7792260  94.7061853  78.9692384  49.3257521
  92.9545699  78.9103063  49.0167131  93.5742882  80.3633590  50.3512593
  93.6731359  81.0267986  49.6644719  92.1404319  77.7989265  51.3694184
  91.1653929  77.6461719  50.6140113  92.0751275  77.8074214  52.7348155
  92.8670822  77.3869354  53.1996797  90.8136366  78.1170342  53.5721389
  90.0772191  78.5357315  52.8862227  90.1457477  76.9740233  54.3786601
  90.7556905  76.7676451  55.2581356  88.7371087  77.3541896  54.8159778
  88.1264019  77.5602789  53.9369639  88.2964808  76.5315071  55.3791305
  88.7789660  78.2432254  55.4452352  90.0796633  75.6920250  53.5746712
  91.0883854  75.3794035  53.3047645  89.6056202  74.9125153  54.1711168
  89.4973627  75.8602934  52.6687393  91.0073717  79.4190746  54.3980738
  91.7260523  79.4026219  55.3668966  90.4810866  80.5679674  53.8927567
  90.2748589  80.5928156  52.9043479  90.3640479  81.8449220  54.6776019
  91.2916896  82.0340834  55.2177853  90.1066948  82.9739450  53.7791312
  89.0745102  82.8998934  53.4367711  90.2332660  83.8911738  54.3542583
  91.0820187  82.9978578  52.5214947  91.4333649  81.9769303  52.3719494
  90.4390407  83.5088041  51.2328310  90.0878394  84.5299132  51.3814672
  91.1737757  83.4913875  50.4278702  89.5962195  82.8700860  50.9686493
  92.2393290  83.9227415  52.8830164  92.7520157  83.5367427  53.7640707
  92.9392021  83.9729489  52.0488953  91.8551646  84.9205589  53.0948589
  89.3736266  81.5900107  55.7572055  88.3111152  81.1112374  55.4512685
  89.5995702  81.9885618  57.0069749  90.5535443  82.2946459  57.1348236
  88.7395764  81.9118316  58.1731876  87.7470694  81.5643662  57.8863133
  89.3039504  80.9685145  59.1429989  88.6425847  80.6604753  59.9528177
  89.4679173  80.1278743  58.4688039  90.6667192  81.2907102  59.7852675
  90.7693676  82.0188981  60.9706096  89.9091257  82.5577987  61.3676862
  91.9929616  82.0534261  61.6518485  92.0644712  82.6892409  62.5343034
  93.1022049  81.3066559  61.2349714  94.0153043  81.2295674  61.8252313
  93.0033039  80.6314187  59.9842139  93.8859359  80.1332127  59.5831507
  91.7905683  80.6008165  59.2678084  91.7260893  80.0513473  58.3286461
  88.4320558  83.2818053  58.7754401  89.3507036  84.0955851  58.9189799
  87.1274474  83.5887505  59.0139933  86.4131165  82.8799852  58.9274925
  86.7235648  84.9302120  59.3964836  87.5443784  85.6317471  59.2474441
  85.8620702  85.2499127  58.8102090  86.3607093  84.9194094  60.8020416
  85.8641734  83.9245784  61.2844859  86.6853394  86.0518842  61.4171685
  87.0893957  86.8411825  60.9335924  86.5924878  86.1057823  62.8735365
  85.8898458  85.3685070  63.2618901  87.9194205  85.9186051  63.5660849
  87.7004741  85.7016868  64.6116035  88.8035697  84.7941340  62.9812653
  89.0233348  85.0106053  61.9358261  89.7356718  84.7347374  63.5431878
  88.2762073  83.8428042  63.0517012  88.6891892  87.0741570  63.6169272
  89.5161038  86.8882110  64.0677448  85.8932228  87.3777963  63.4291172
  85.7389269  88.4000446  62.7145389  85.4609153  87.3064374  64.7271049
  85.4454650  86.4415603  65.2484956  84.8300269  88.4982335  65.3291371
  84.0787430  89.0162216  64.7330163  84.1716124  88.0044441  66.6285879
  84.9252883  87.4182511  67.1543727  83.6363368  89.1203933  67.5673165
  82.8822290  89.7067621  67.0423460  83.1918502  88.6679728  68.4537971
  84.4588040  89.7706052  67.8654338  83.0615505  86.9987768  66.3543623
  83.4734113  86.1359707  65.8308756  82.6226027  86.6750205  67.2980817
  82.2929191  87.4644532  65.7375543  85.6748533  89.7422834  65.5271204
  85.2070036  90.8684525  65.3973682  87.0065518  89.6375812  65.8550757
  87.4457689  88.7345566  65.9634006  87.7912968  90.8452887  66.1973138
  87.1592691  91.6364239  66.6007309  88.8211041  90.4109901  67.3042491
  89.2212134  89.4629787  66.9446853  89.6359075  91.1237005  67.4316831
  88.1777324  90.1847216  68.6237072  87.3374738  91.0134604  68.9909215
  88.5025450  89.2365949  69.4682819  88.0100181  89.1561999  70.3463786
  89.2438642  88.5907633  69.2370935  88.3850056  91.4506331  64.9483471
  89.3620790  92.2176380  65.0114346  88.0059687  91.1223191  63.6793376
  87.2791835  90.4227184  63.6299264  88.5304842  91.6650019  62.4294801
  87.7156762  91.6132221  61.7073263  88.7742111  92.7088313  62.6272595
  89.7245185  90.9893398  61.8602379  90.0160578  91.3432594  60.7300738
  90.3333405  90.0714484  62.5789139  90.1344924  89.9704980  63.5639864
  91.3813538  89.3017970  62.0245000  92.0323317  89.9261000  61.4124766
  92.2273268  88.6853225  63.1848289  92.7341835  89.4754459  63.7388149
  91.5820799  88.1245788  63.8610855  93.2618945  87.7479877  62.5772879
  93.5272818  88.1530197  61.6007535  94.1356485  87.7693967  63.2285926
  92.7091359  86.0395096  62.3812415  92.9853561  85.2668305  63.9492075
  92.4097743  85.7846570  64.7164495  92.6708955  84.2242666  63.9015023
  94.0457737  85.3149808  64.1967904  90.7842787  88.2899020  61.0340463
  89.7231536  87.7284129  61.2446895  91.5540685  88.0514890  59.9609144
  92.4399310  88.5327975  59.9001754  91.2459784  87.0505101  58.9593923
  90.4681877  86.3519336  59.2678267  90.8766486  87.6582435  57.6376387
  91.7348846  88.2704623  57.3606557  90.5134786  86.6899484  56.4431839
  89.6549824  86.0776872  56.7192657  90.2698766  87.2786291  55.5587554
  91.3646683  86.0445504  56.2263044  89.7435328  88.7051173  57.7860201
  89.0153145  88.2356049  58.4473498  90.2081243  89.5478589  58.2979193
  89.0279286  89.2095620  56.5036940  88.5626696  88.3673886  55.9914657
  88.2625710  89.9362781  56.7761101  89.7554804  89.6796408  55.8420338
  92.5605409  86.3591869  58.7377039  93.5472624  87.0066262  58.3513118
  92.5791851  85.0703458  58.9856861  91.7387815  84.6963625  59.4027682
  93.7206874  84.1253127  58.7073195  94.5677276  84.7599660  58.4468635
  93.9210133  83.6232734  59.6538529  93.5317971  83.0595297  57.6024009
  92.6228024  83.1676760  56.8275544  94.4781643  82.1602207  57.4619966
  95.1925248  82.2110423  58.1741803  94.6128800  81.1624359  56.4275082
  93.6746133  80.9968215  55.8980494  95.6584192  81.7183403  55.4225251
  95.3760335  82.7136157  55.0793277  96.5357733  81.7915251  56.0651710
  95.9821743  80.8383262  54.2185575  96.1649176  79.8110726  54.5339238
  94.7769926  80.8767955  53.2901943  94.5938964  81.9037358  52.9740170
  94.9719419  80.2570027  52.4150072  93.9006769  80.4972419  53.8156562
  97.0449578  81.4083779  53.4406878  97.9385416  81.5007675  54.0579977
  97.2580665  80.7636112  52.5880672  96.7466212  82.3943379  53.0843494
  95.0502302  79.8117441  56.9089981  95.9917682  79.7469493  57.7441735
  94.4015157  78.7560222  56.4791124  93.5247184  78.9438642  56.0143102
  94.8008768  77.3523734  56.6754332  95.6324655  77.3352073  57.3798938
  93.6217879  76.5511489  57.2818207  92.7586966  76.5223911  56.6167300
  94.2082906  75.0748541  57.4570094  95.0711902  75.1027394  58.1223872
  93.4421920  74.4272003  57.8833169  94.5120755  74.6863065  56.4849769
  93.1543926  77.0371499  58.6715465  92.8262878  78.0743274  58.6029029
  92.3264741  76.4166460  59.0145122  93.9801296  76.9639158  59.3792866
  95.2826390  76.7355273  55.3304752  94.5156055  76.9240454  54.4052014
  96.4417042  76.1364433  55.2261050  97.0921117  76.3750943  55.9610302
  96.9038940  75.2452804  54.1454481  96.0423678  75.0732684  53.5002477
  98.0560839  75.8653760  53.2865715  98.1511477  75.2593287  52.3855889
  97.8172763  77.3237392  52.8963489  97.7225664  77.9305221  53.7968733
  98.6576398  77.6838911  52.3029023  96.9010737  77.3983097  52.3105908
  99.2030585  75.8336841  54.1137468  99.9504818  76.2042508  53.6387321
  97.3551703  73.8721228  54.6888440  97.6087166  73.6952535  55.8531831
  97.4604033  72.8808179  53.7733127  96.8040928  72.8681892  53.0057213
  98.3751565  71.7403009  53.9269888  98.2525384  71.2220690  54.8780407
  97.9607516  70.7629682  52.7644449  96.8783421  70.6512773  52.8278001
  98.2196654  71.2660803  51.8328108  98.5587564  69.5072427  52.7946892
  98.2463327  68.9860629  52.0514781  99.8718671  72.0764594  53.9913555
 100.2388531  73.1046118  53.4685067 100.7334962  71.1870822  54.4952539
 100.3601733  70.3890978  54.9891671 102.2012406  71.4110433  54.5267770
 102.5217181  72.1160723  53.7597519 102.5255013  72.0364196  55.9638565
 102.0391549  73.0089158  56.0401294 102.1145825  71.3651255  56.7179189
 104.0469895  72.2013784  56.1946015 104.4877338  71.2046409  56.1756366
 104.7434365  73.0919182  55.1425039 104.3035121  74.0890220  55.1611966
 105.8071372  73.1603329  55.3704534 104.6119107  72.6558368  54.1522341
 104.3425407  72.8462892  57.5322669 103.9393441  72.2256057  58.3324444
 105.4207077  72.9453447  57.6581452 103.8806346  73.8328370  57.5705426
 102.9404184  70.1468535  54.1227639 102.5901271  69.0853896  54.6312383
 103.9792706  70.2624427  53.2205998 104.2111257  71.1637748  52.8282440
 104.7854688  69.1068655  52.8275667 104.1895768  68.4405419  52.2038481
 106.0119164  69.5430482  52.0395901 105.7039543  69.9646331  51.0827595
 106.5653451  70.2927321  52.6050905 106.8227842  68.4391222  51.8186946
 107.5992600  68.7067697  51.3216534 105.2839553  68.3544740  54.1344347
 105.9820791  68.8651029  54.9456081 105.0317881  67.0499188  54.0355737
 104.3157915  66.7284686  53.3998710 105.6471672  66.0670740  54.9533654
 105.3902755  66.3061543  55.9853278 105.1444247  64.6987214  54.6421063
 104.0574569  64.6953847  54.7232797 105.4329591  64.4402347  53.6232674
 105.7436965  63.6510378  55.6344733 106.8003264  63.5935624  55.3730720
 105.6380846  64.1015017  56.6214017 105.1378031  62.2254873  55.6504118
 105.4422983  61.3620433  56.4831525 104.3063589  61.9231760  54.7846176
 107.2288947  66.2169877  54.9490298 107.8728321  66.1632427  55.9914171
 107.7809214  66.4711292  53.7462045 107.1809710  66.3722708  52.9397395
 109.2557439  66.7140241  53.5170873 109.8231311  65.9822054  54.0920762
 109.6587513  66.5926431  52.0269049 109.5526377  67.5804325  51.5784505
 110.7055321  66.2903976  51.9953190 108.8823737  65.6669011  51.3092757
 109.1803100  65.6384048  50.3971235 109.6707893  68.0619306  54.1844660
 110.8584239  68.3036308  54.2240395 108.8320106  68.9192164  54.7333060
 107.8494233  68.6857192  54.7433352 109.2934411  70.2385594  55.4593921
 110.3792486  70.2737236  55.5481874 108.8165225  71.4747904  54.5941848
 107.8614831  71.4747889  54.0688288 108.8242139  72.2761951  55.3329618
 109.8724467  71.8201285  53.5710911 109.6909156  72.0219769  52.2201834
 108.6853195  71.8376994  51.8421383 110.8868520  72.4363856  51.6045929
 111.0188673  72.5395668  50.6085883 111.8693200  72.6260373  52.5754470
 113.2553261  73.0408648  52.5134939 113.5808482  73.4347224  51.5506801
 114.0720752  72.9295380  53.6150965 115.1410385  73.1404141  53.5842980
 113.4819892  72.5180136  54.8508474 114.0967403  72.4491840  55.7483122
 112.1410474  72.1982825  54.9565256 111.8716334  71.7456545  55.9108026
 111.2327613  72.2473499  53.8156707 108.6065349  70.3946803  56.8126745
 109.2040875  71.0211399  57.6830148 107.4927621  69.7033857  57.0869787
 107.1375089  69.1348914  56.3315260 106.7565088  69.7189503  58.3459489
 106.4215626  70.7325119  58.5664098 105.5149231  68.7953683  58.2569028
 105.0353620  69.2039846  57.3674349 105.8109948  67.7635228  58.0678622
 104.5186383  68.8378603  59.4475464 103.4559324  69.7813510  59.4154911
 103.2647938  70.3427299  58.5009316 102.6622105  69.9911723  60.5397480
 101.8376714  70.7036518  60.5644442 102.8945063  69.1184844  61.6631841
 102.1554883  69.2843421  62.8095473 101.5227612  70.0036226  62.7471637
 103.9219076  68.1547042  61.7201778 104.0899266  67.4975706  62.5734336
 104.7610428  68.0676114  60.5839471 105.6144052  67.3894808  60.5873516
 107.5918450  69.2642463  59.5457638 107.7538447  70.0005633  60.5053619
 108.2103782  68.0797088  59.4882365 107.8929531  67.4428750  58.7714497
 109.0552426  67.5301905  60.6094038 108.5378897  67.7054188  61.5526642
 109.3315866  65.9944050  60.4676895 109.9329294  65.7692139  59.5869086
 109.9100257  65.7802123  61.3663717 108.0889373  65.0921367  60.4572729
 107.3712934  65.0416405  61.4432767 107.8028494  64.5084889  59.2973695
 106.9978468  63.9027833  59.2253196 108.3918486  64.6735276  58.4936637
 110.2460939  68.4556056  60.9629431 110.4609058  68.7758829  62.1004703
 110.9164686  69.0302284  59.9893479 110.8140485  68.6426175  59.0623273
 111.9429029  70.0759663  60.2036088 112.6156308  69.7981360  61.0149945
 112.7635637  70.2217749  58.9139291 113.1006401  69.2390183  58.5842804
 112.0841077  70.6402045  58.1713954 113.9724798  71.1471405  59.0779119
 114.3064515  71.0415271  60.1100987 115.1329630  70.8682599  58.1399208
 114.7998553  70.9741402  57.1074832 115.9376760  71.5768437  58.3359998
 115.4958282  69.8532596  58.3017962 113.7594021  72.5716859  58.8209872
 113.0026681  72.9555927  59.5051426 114.6935423  73.1124815  58.9727220
 113.4230310  72.7097500  57.7934213 111.2551392  71.3798863  60.7725586
 111.9417573  71.9792508  61.6104457 110.1162061  71.7806253  60.2119477
 109.7293657  71.3410016  59.3890352 109.5045224  73.0864328  60.6849117
 110.2783800  73.8214009  60.9064191 108.6180398  73.6325733  59.5630288
 107.9992793  72.8210426  59.1800763 107.9779932  74.4213708  59.9582994
 109.4989695  74.2075719  58.4047057 110.3170717  73.5197168  58.1910120
 108.6222627  74.3809605  57.1322189 107.8041581  75.0690895  57.3450150
 109.2318290  74.7814501  56.3221956 108.2153696  73.4140567  56.8361864
 110.0994237  75.5660429  58.7925205 110.7219904  75.4487910  59.6795167
 110.7070774  75.9433994  57.9700485 109.2961761  76.2719237  59.0037656
 108.8323384  72.9940993  62.1031839 108.8993367  73.9289348  62.8213816
 108.3146632  71.8009022  62.4819702 108.1344507  71.1106927  61.7669642
 107.9646096  71.4550234  63.9252787 107.1098561  72.0438891  64.2580441
 107.5942768  69.9311254  64.0258633 106.7511095  69.6678850  63.3872143
 108.5068260  69.4941051  63.6204409 107.3492581  69.3811973  65.4605967
 108.1532281  69.7259417  66.1108923 106.0198658  69.8627623  66.0032579
 105.2153136  69.5179922  65.3536978 105.8711837  69.4652451  67.0072372
 106.0149540  70.9521335  66.0399552 107.1299426  67.8326476  65.4077406
 108.0138081  67.3541763  64.9859035 106.9590303  67.4547564  66.4157528
 106.2640125  67.6088615  64.7846968 109.1264522  71.7573214  64.8825104
 108.8156943  72.2554252  65.9594483 110.3444660  71.3320255  64.5820260
 110.3895394  70.7522776  63.7562173 111.6062264  71.5587187  65.3617631
 111.4727891  71.2587181  66.4011347 112.7423176  70.7053638  64.7417976
 112.4331106  69.6660614  64.8528864 112.8243418  70.9482331  63.6823701
 114.0810350  70.9054514  65.4084208 115.0644453  70.9243504  64.6431880
 114.2246414  71.0140910  66.6441941 111.9312244  73.0557488  65.3750725
 112.3469253  73.6514760  66.3853680 111.8504317  73.7913767  64.1645366
 111.7325786  73.2737295  63.3053211 112.0396042  75.2918774  64.0787683
 113.0110258  75.5886851  64.4741726 111.9710586  75.6868748  62.6067542
 112.7333159  75.0817548  62.1159459 110.9837461  75.3667060  62.2738789
 112.1766640  77.1481523  62.2479264 111.9332081  77.2297538  61.1886005
 111.4425721  77.7024989  62.8326580 113.8110688  77.8460962  62.5349893
 114.4360769  77.7765221  60.8963120 113.8021438  78.3722034  60.2395078
 115.4515633  78.1721472  60.8771080 114.4432122  76.7419453  60.5532360
 111.0083193  76.0806091  64.9732088 111.4445980  77.0611983  65.5749436
 109.7269234  75.6791819  65.1204563 109.2983486  75.0562767  64.4508204
 108.8728638  76.2321097  66.2282433 108.6428383  77.2836486  66.0566232
 107.5339232  75.4258983  66.2555767 107.2848467  75.2329474  65.2121065
 107.7669934  74.4844489  66.7530215 106.3392683  76.0894304  66.9516908
 106.4718189  76.1221963  68.0331054 106.3124644  77.1056868  66.5584905
 105.0125623  75.4151447  66.6453479 104.1061651  76.0506144  66.1649404
 104.8233941  74.0801185  66.8161879 103.9263452  73.6687222  66.6013443
 105.5807196  73.5054362  67.1572154 109.6490933  76.1967031  67.5952141
 109.6924668  77.1842386  68.3430526 110.2292100  75.0528474  68.0147478
 109.9868770  74.1684781  67.5913508 111.0314220  75.0390083  69.2556839
 110.4939363  75.5154474  70.0755705 111.2972857  73.5692208  69.6299236
 111.9420991  73.3942015  68.7687133 111.8701666  73.4289436  70.5465641
 110.1774025  72.5644017  69.6042494 109.0876787  72.7370139  70.1985937
 110.4174166  71.3535984  69.1918328 109.6713382  70.6731186  69.1714859
 111.3486349  71.1001019  68.8940529 112.2295182  75.9247818  69.2799907
 112.3751962  76.7868010  70.1650934 112.9709718  75.8711302  68.1554650
 112.6908900  75.2823949  67.3840738 114.2427294  76.5638795  68.0656593
 114.8983247  76.3079810  68.8980114 114.9072222  76.1067468  66.7592653
 114.1088476  76.1631967  66.0193257 115.6488388  76.8783121  66.5524034
 115.5861793  74.6982756  66.6872919 116.3737397  74.6178470  67.4365454
 114.8485322  73.9125636  66.8504957 116.1866628  74.5470113  65.3065589
 115.4324376  74.7799102  64.5548931 117.0286776  75.2308903  65.1996941
 116.6626961  73.1775335  65.0859400 115.9365081  72.6186194  64.6612456
 117.8772045  72.6127443  65.2899785 118.8593039  73.2832905  65.7004958
 118.7508641  74.2701253  65.8862319 119.7514347  72.8315358  65.8423405
 117.9042559  71.3420251  65.1088430 117.0616601  70.8556112  64.8376717
 118.7680028  70.8348168  65.2383795 114.0201403  78.0882840  68.1811841
 114.8321778  78.8185481  68.5469386 112.8266291  78.5801086  67.8494260
 112.2697375  77.8938201  67.3605710 112.3217450  79.9169875  67.9510325
 113.1452126  80.6278458  67.8826163 111.3361631  80.2044258  66.8265995
 110.6588795  79.3504101  66.8200134 110.7687759  81.1160187  67.0141363
 112.0498366  80.3119500  65.4446159 112.6730285  79.4294778  65.2997864
 111.0188525  80.4039472  64.3058151 110.3955491  81.2864915  64.4497157
 111.5379045  80.4782410  63.3502178 110.3918268  79.5123624  64.3097623
 113.0383049  81.4728265  65.3223568 113.8215163  81.3643662  66.0726339
 113.4850192  81.4671619  64.3281156 112.5137722  82.4153782  65.4790747
 111.7929989  80.1596507  69.3508965 112.2461644  81.0409973  70.0258758
 110.9522383  79.3503250  69.9163897 110.5794520  78.6520661  69.2890427
 110.3954515  79.4309638  71.2914984 109.8607807  80.3696107  71.4369916
 109.4117786  78.2707024  71.4896958 108.6375702  78.4226694  70.7376275
 109.9037807  77.3137523  71.3156833 108.7578902  78.2379977  72.8592784
 109.2625969  78.6138715  73.9119821 107.5953825  77.7070741  72.9191857
 107.1113362  77.6572276  73.8042361 107.1672676  77.3403329  72.0811408
 111.4391049  79.5122776  72.3622788 111.3859042  80.4024753  73.2163612
 112.5039309  78.7487271  72.1315965 112.4350860  78.1650859  71.3101814
 113.6928605  78.6528926  72.9399968 113.4386180  78.3745273  73.9627249
 114.6323174  77.5480875  72.3380802 114.5181661  77.5144994  71.2545948
 115.6704128  77.7684478  72.5868757 114.2545853  76.2383740  72.9144161
 114.3766192  76.2919387  73.9962383 113.2080533  76.0481408  72.6763320
 115.0907932  75.1391317  72.3771269 114.5171632  74.2154228  72.3009070
 115.4923031  75.3987475  71.3975919 116.2057683  74.9498739  73.3328324
 116.9202026  75.7679456  73.2409471 115.8225965  74.9156378  74.3526885
 116.8768364  73.6726760  73.0162141 117.2323416  73.7043539  72.0713796
 117.6418956  73.5259546  73.6590650 116.2151046  72.9144544  73.1017139
 114.4634242  79.9615011  73.0438301 115.2119551  80.1085930  74.0144209
 114.3431307  80.8962250  72.0505095 113.7054132  80.6053975  71.3232989
 115.1774417  82.1174295  71.8164378 115.7751609  82.4117752  72.6791032
 116.1080181  81.9018741  70.6303182 115.5385967  81.4027979  69.8462382
 116.6888236  83.2123274  70.0846352 117.2588074  83.7117820  70.8680665
 117.3440902  82.9963704  69.2407817 115.8769236  83.8614653  69.7567024
 117.2342634  80.9253261  70.9687490 116.8084148  79.9624437  71.2509061
 117.8778213  80.7964101  70.0985114 117.8207903  81.3197834  71.7985023
 114.3945231  83.4420482  71.7905043 114.8786424  84.3682531  72.4602290
 113.2766334  83.5278974  71.0508108 112.8791895  82.6883783  70.6541429
 112.6526025  84.8357915  70.7060969 113.3122565  85.6663299  70.4547770
 111.5820415  84.6377701  69.5431735 110.9622118  83.7753291  69.7883409
 110.6753426  85.8998428  69.3758100 111.2944599  86.7626579  69.1301587
 109.9574059  85.7283101  68.5737850 110.1409486  86.0899599  70.3066042
 112.2235371  84.1269421  68.2905378 112.7418991  83.2052793  68.5549984
 111.4171984  83.9021964  67.5923926 113.2221125  85.1086148  67.6270599
 114.0290389  85.3334829  68.3244865 113.6363967  84.6534924  66.7274313
 112.7043383  86.0304015  67.3618827 112.0525808  85.4667251  71.9702451
 111.4600900  84.7494399  72.7265489 112.2191311  86.7517500  72.2216850
 112.8677355  87.2143898  71.6008982 111.6128889  87.5257725  73.2784255
 111.8036884  87.0562968  74.2434579 112.2297433  88.9962227  73.2962489
 112.2715370  89.4024589  72.2856428 111.6290244  89.6521063  73.9263708
 113.6380401  88.9003102  73.8623353 113.6131844  88.2538651  74.7395991
 114.2845002  88.4583179  73.1041571 114.1764278  90.2613604  74.2534824
 113.4150478  90.8388012  74.7778501 115.0554282  90.1577853  74.8896664
 114.5682958  90.9910644  72.9489102 115.2447687  90.3447282  72.3896834
 113.6610094  91.1561251  72.3678029 115.2342021  92.2979210  73.2114375
 116.0751668  92.1451517  73.7495264 115.4714120  92.7372561  72.3334762
 114.6073757  92.8971352  73.7292502 110.0756297  87.6134005  73.1136060
 109.5326922  87.6866091  71.9801408 109.3013041  87.6937351  74.2129036
 109.6343260  87.3258177  75.0925811 107.9148156  88.1498042  74.1328682
 107.7764414  88.7697170  73.2470580 106.9588886  86.9320217  74.0398072
 107.3215794  86.2521902  73.2688443 106.9436311  86.4165685  75.0001067
 105.6769079  87.3507984  73.7201797 105.0956239  86.5887393  73.6656378
 107.5375490  89.1186869  75.2346600 107.8834560  88.8515528  76.3612792
 106.8029760  90.1608661  74.8090322 106.6565867  90.2949641  73.8187356
 106.2135444  91.1327320  75.7373619 106.9904551  91.6339144  76.3147051
 105.4374152  92.2110168  74.8974908 104.8366249  91.6623961  74.1721180
 104.5276667  93.1553425  75.7085145 105.1278607  93.7046857  76.4338353
 104.0400052  93.8590071  75.0338717 103.7710577  92.5708892  76.2320207
 106.3889085  93.1413726  74.1401253 107.0033696  92.5553787  73.4566409
 105.8101619  93.8706003  73.5732225 107.0315018  93.6613728  74.8506001
 105.2544916  90.4769282  76.7284088 104.5256789  89.6017395  76.2814048
 105.3570375  90.8565390  78.0670055 106.0208833  91.6008376  78.2264661
 104.6448883  90.3209292  79.2010247 104.8182233  90.9593290  80.0673386
 103.5786781  90.2965036  78.9758611 105.1229464  88.8873045  79.5287160
 104.7104420  88.3429251  80.5494521 106.0925333  88.3134954  78.7877115
 106.1816294  88.7403581  77.8766959 106.8437394  87.0750415  79.0550657
 107.4803526  86.8394388  78.2022385 107.7106926  87.2337103  80.2720933
 107.0830503  87.6159706  81.0771035 108.0852466  86.2462451  80.5417632
 108.8662644  88.1640472  80.0550398 109.5811645  87.8060266  79.3142025
 108.5658972  89.1820699  79.8070249 109.5173001  88.1475100  81.4424186
 108.7415022  88.4077523  82.1624954 109.8542826  87.1271242  81.6250523
 110.6967200  89.1083383  81.5949399 111.3039598  89.0199284  80.6940826
 110.2862494  90.1161047  81.6583438 111.5675049  88.8329045  82.8271067
 111.9483012  87.8992877  82.7683397 112.3225002  89.5028598  82.8623455
 111.0051099  88.9151966  83.6619953 105.9697606  85.8364720  79.0453856
 106.3815824  84.8529456  79.6920962 104.8755223  85.8584645  78.3998193
 104.5098343  86.7732962  78.1774355 104.0121362  84.6508169  78.1088607
 103.8255865  84.0659025  79.0095124 102.6576172  85.1271313  77.5105656
 102.7478504  85.4791127  76.4829142 101.7997967  83.8197334  77.5400206
 101.7087253  83.4673797  78.5674706 100.8079046  84.0262287  77.1380127
 102.2840576  83.0531126  76.9351378 102.0055190  86.2970392  78.2923645
 101.9053335  85.9918229  79.3339531 102.6716791  87.1574465  78.2288869
 100.6709711  86.6638438  77.7537836 100.0040785  85.8040113  77.8173609
 100.2575413  87.4874808  78.3358464 100.7704241  86.9696329  76.7122933
 104.7553707  83.5808743  77.2675461 105.7332930  83.8408158  76.5445325
 104.5084858  82.3004961  77.5913676 104.0954296  82.2173527  78.5092843
 104.8366218  81.0591600  76.8542954 105.8593105  81.0682974  76.4773029
 104.6920891  79.8750567  77.8978454 105.3371533  80.1291013  78.7389476
 103.6519449  79.8806935  78.2236800 105.0558950  78.4831092  77.3790503
 105.1293309  77.9489225  78.3263372 104.3897121  77.9412922  76.7076831
 106.4076264  78.5854499  76.7609162 106.5688573  78.0053867  75.6502991
 107.4433834  78.9997893  77.3674385 103.9648907  80.8230713  75.5259739
 102.7354887  80.6221927  75.5987440 104.5784548  80.9056771  74.3711140
 105.5592812  81.1426144  74.3270719 103.8819324  80.5830006  73.1162872
 103.0890282  81.3015239  72.9086184 104.9270450  80.6519703  71.9694856
 105.1179768  81.7136524  71.8130392 105.8679149  80.1400322  72.1714343
 104.4137644  80.1098265  70.6631074 104.5588074  78.8030905  70.2626668
 103.8975919  78.6900890  69.1508603 103.8615121  77.7173432  68.6603882
 103.3586733  79.8665066  68.8087632 102.8226098  80.0326864  67.9690490
 103.6397015  80.8108712  69.7620831 103.2519268  81.8240748  69.6564876
 103.3093518  79.0483984  73.1516932 102.2034284  78.7733162  72.6315545
 104.0573591  78.1158738  73.7987920 105.0072516  78.3015172  74.0874788
 103.5740539  76.7346636  73.8487169 103.1711816  76.5180457  72.8593384
 104.5750354  75.6524326  74.2126249 104.0226287  74.7258668  74.0563498
 105.3476057  75.7473406  73.4495864 105.1733753  75.6321546  75.4850683
 105.7751508  74.8864926  75.5438418 102.2935011  76.6404601  74.6543540
 101.2937092  76.1299614  74.0590076 102.2391514  77.2611489  75.8579870
 103.0827157  77.6775338  76.2255769 101.0420339  77.3384615  76.6471686
 100.7223596  76.3389078  76.9417871 101.2993656  78.1464622  77.8894666
 102.2011035  77.8233140  78.4096044 101.4026688  79.1921573  77.5997249
 100.1853513  78.0865876  78.8865389  99.3974765  79.2296022  79.1396276
  99.7097541  80.1751880  78.6964006  98.2463649  79.1751385  79.9321992
  97.6095529  80.0554078  80.0199326  97.9059004  77.9818107  80.6201349
  97.0670442  77.9366152  81.3146689  98.6741346  76.8536716  80.3882349
  98.3817249  75.9045120  80.8373371  99.8025438  76.9238064  79.5955214
 100.4507489  76.0536360  79.4919185  99.8951649  77.9764455  75.8754538
  98.7589667  77.6082518  76.0965807 100.1178737  78.9381199  75.0188045
 101.0820432  79.2377018  74.9918379  99.1398027  79.6947511  74.2556962
  98.2675813  79.9503703  74.8573505  99.8416571  81.0051178  73.8196360
  99.5990583  81.6717109  74.6472221 100.9244712  80.9276659  73.7215806
  99.3310186  81.6899138  72.5380102 100.1279745  81.8216851  71.4187624
 101.0959792  81.3207634  71.4307735  99.5123388  82.5687558  70.5220306
  99.8945896  82.7860453  69.6127621  98.2665416  83.0157970  71.0165259
  97.2284128  83.8677799  70.5404579  97.4055648  84.3445535  69.5764025
  96.0849893  84.0471621  71.2913285  95.2687402  84.6616232  70.9114933
  95.9505529  83.4321699  72.5772929  95.0845386  83.5623700  73.2262665
  96.9838600  82.6219513  73.0248566  96.8118945  82.1919647  74.0115886
  98.1690416  82.3978393  72.2812322  98.4527009  78.9133710  73.0977370
  97.2364672  78.9895867  72.9972404  99.2388683  78.1284929  72.3099762
 100.2330365  78.2836840  72.3974099  98.7726356  77.2138648  71.2832262
  97.8600290  77.5994765  70.8287462  99.8552261  77.0543009  70.1702001
 100.7068033  76.5905685  70.6680633  99.4256357  76.3516425  69.4561810
 100.3217707  78.3186242  69.4277166 101.1225565  78.8179421  69.9731746
 100.6643986  78.0759628  68.4218221  99.0580725  79.2838113  69.3392931
  98.1513037  78.6943854  69.2034761  98.9759061  79.8702958  70.2543800
  99.1945281  80.1893598  68.2189579 100.1472193  80.2806948  67.8962557
  98.2697096  81.0146023  67.7185027  97.0387531  81.0719053  68.1386686
  96.7355633  80.4667398  68.8883024  96.3927958  81.7212531  67.7130090
  98.5519596  81.6874759  66.5900816  99.4480719  81.5616719  66.1414658
  97.8667068  82.3159581  66.1956995  98.3106779  75.8862022  71.8231633
  97.7919029  75.1196423  71.0235831  98.4759419  75.4509996  73.0640019
  99.0676695  76.0086445  73.6631596  98.0226089  74.1410087  73.5555414
  98.2246063  73.3831798  72.7985794  98.7486124  73.7417415  74.8601282
  99.7441863  74.1851965  74.8434104  98.1846249  74.1477850  75.6998584
  98.8604342  72.3338490  75.0022534  99.3157636  72.1302066  75.8225001
  96.5210161  74.0433090  73.6445063  95.8432479  74.9403972  74.1047271
  95.9700762  72.9183754  73.2545438  96.5832255  72.1430386  73.0471792
  94.5040333  72.7540816  72.9933624  94.0987653  73.6020431  72.4412588
  94.3407731  71.4959780  72.1440643  95.0616326  71.5486145  71.3281659
  94.6110826  70.6805641  72.8149839  93.0553900  71.1361264  71.5444627
  92.2282778  70.1165335  71.9621370  92.5377528  69.4802574  72.7912799
  90.9635513  69.8881877  71.3123902  90.3034376  69.0993281  71.6730164
  90.5862485  70.6655122  70.2351367  89.5992521  70.5142871  69.7980224
  91.4373624  71.6242639  69.7093131  91.2716025  72.1451664  68.7662943
  92.5757087  71.9102157  70.4780329  93.1686150  72.7994516  70.2639730
  93.7775165  72.7439818  74.3494127  94.1228964  71.9250281  75.1823980
  92.7979422  73.6244552  74.5088828  92.7222038  74.3341957  73.7942980
  91.9922156  73.7568002  75.6852770  91.7208819  72.7748264  76.0728395
  92.8171389  74.5330017  76.8007579  93.7481956  74.0565704  77.1077527
  93.0174701  75.5618483  76.5016889  91.9754745  74.6001868  77.9824119
  92.0586942  75.6617738  78.9196459  91.2074203  75.3869707  79.9379361
  91.1308961  76.0230253  80.8197963  90.5749426  74.2802491  79.6149729
  89.8310970  73.8780494  80.1672672  91.0361801  73.7777993  78.4933021
  90.6479540  72.8300093  78.1203734  90.6187322  74.3075469  75.3969726
  90.4143395  75.5204862  75.3989753  89.7612826  73.4039274  74.8852364
  90.1541169  72.5037240  74.6498337  88.3741811  73.6578825  74.5483907
  88.2033551  74.6236346  74.0727432  87.8337705  72.5451526  73.6170678
  86.9246943  72.9441274  73.1670680  88.7942469  72.0615568  72.4994049
  89.7034206  71.6619929  72.9486837  88.3069686  71.2828284  71.9126844
  89.0483169  72.8995059  71.8502590  87.3645944  71.3610966  74.2511113
  87.0546773  70.7428711  73.5852667  87.5058961  73.8364878  75.7964818
  87.9890433  73.8188034  76.9758075  86.2014303  73.9687497  75.5153864
  85.9134046  74.2833280  74.5998641  85.2066989  73.8817187  76.5507226
  85.4535087  74.5539714  77.3724649  83.8231663  74.2938854  75.9694360
  83.5954854  73.6273864  75.1375467  83.0766670  74.1642032  76.7530311
  83.8024040  75.7808018  75.4686739  84.8361118  75.8424893  75.1284628
  83.1324835  75.9693599  74.6297749  83.5618264  76.8247352  76.5561298
  84.3856087  76.8768317  77.4275687  82.4428361  77.4728943  76.6694236
  85.1463153  72.5593750  77.3774190  84.5482230  72.6038757  78.4522879
  85.6733442  71.4072387  76.8766750  86.1221327  71.4727400  75.9742350
  85.6263818  70.0941684  77.5386447  85.4464672  70.1543472  78.6120078
  84.4213678  69.4283386  76.8785440  83.6453300  70.1928629  76.9155194
  84.7358009  69.2801987  75.8454485  83.8658906  68.1054649  77.4407560
  82.9418597  67.8838995  76.9067368  84.6000400  67.3267419  77.2340744
  83.5842006  68.1564313  78.9544515  83.0443096  67.2523108  79.2358458
  84.5373873  68.1888894  79.4821645  82.8089687  69.2907602  79.3405128
  82.4059478  69.7486897  78.5355444  82.6092399  69.7823058  80.4639964
  82.9219672  69.2153717  81.6262960  83.3614905  68.3061108  81.6390979
  82.7184064  69.6968592  82.4904907  82.0334173  70.8722262  80.5188028
  81.7436675  71.3302530  79.6665372  81.8546840  71.3009510  81.4156574
  86.9035249  69.2602299  77.3491689  87.0127762  68.1982325  77.9700455
  87.9039492  69.7499909  76.6027117  87.9191232  70.6974138  76.2530562
  89.0602990  68.8644029  76.2925988  89.1870401  68.0734709  77.0318298
  88.7147454  68.2055012  74.9050033  87.6445527  68.0009655  74.9358542
  88.9160481  68.9729875  74.1576465  89.4509612  66.9542654  74.5450290
  90.5170562  67.1802700  74.5665755  89.2231610  66.2065832  75.3047530
  89.0655148  66.4001202  73.1384690  88.0543643  66.0290379  73.3057161
  89.0239385  67.3077070  72.5362589  89.8563754  65.3720110  72.4265210
  90.8986935  65.6862220  72.3722540  89.7903191  64.4250543  72.9622531
  89.3196942  65.2019196  71.0547261  89.3812089  66.0791715  70.5579920
  89.8583523  64.5003880  70.5670778  88.3539917  64.9103523  71.1047895
  90.4122532  69.6169548  76.1641648  90.4798280  70.6494079  75.4491094
  91.3934799  68.9499924  76.7620958  91.2586253  68.0098862  77.1057729
  92.7073907  69.5495008  76.8966987  92.6267075  70.4994689  76.3683521
  92.9867466  69.8366339  78.3887884  92.7108178  68.9347588  78.9352176
  94.4142899  70.2075229  78.7176768  94.6908068  71.1096346  78.1719364
  94.5055786  70.3890092  79.7885774  95.0776367  69.3918275  78.4300788
  92.3525402  71.0022247  78.8826806  92.5702046  71.1161199  79.8107164
  93.8285468  68.6253713  76.4173493  93.8920030  67.4393588  76.8493211
  94.5745069  69.0710915  75.4013753  94.5535899  70.0536833  75.1686199
  95.3670282  68.1830251  74.5690520  95.7210486  67.3686413  75.2011498
  94.6145996  67.5790851  73.3600004  94.4785637  68.4443611  72.7112394
  95.3614376  66.9141715  72.9261537  93.2686464  66.8222553  73.5005870
  92.6163530  67.4843145  74.0700534  92.8785107  66.7107166  72.4889288
  93.3210457  65.4987791  74.1568142  92.2459070  65.0368656  74.5056216
  94.4170261  64.8727499  74.3549539  96.6280002  68.8542223  74.0288540
  96.6371932  70.0424768  73.7155080  97.7286193  68.1314106  73.8886438
  97.8837389  66.8265854  74.4693616  96.9243346  66.3107199  74.4302915
  98.1919848  66.9412140  75.5085650  98.9444014  66.1488703  73.6229448
  98.4854457  65.6644168  72.7611076  99.4796906  65.4060147  74.2143266
  99.8734258  67.2763369  73.1971974 100.3194066  67.1124582  72.2162061
 100.6609813  67.4639666  73.9270268  98.8932385  68.5016065  73.1398975
  99.3489421  69.3545736  73.6427689  98.5799521  68.8819087  71.6389872
  97.9956349  68.0442799  70.9397386  98.9386641  70.1191089  71.2701726
  99.2949304  70.7563967  71.9680536  98.7886251  70.6115163  69.8800127
  97.7291138  70.5481195  69.6319890  99.2223086  72.0781470  69.8030319
 100.2833264  72.1567477  70.0400197  99.0463518  72.4572419  68.7963410
  98.6463808  72.6658741  70.5178628  99.5820800  69.8120739  68.8266285
 100.7028754  69.4102451  69.0889664  99.0632470  69.5220827  67.6087896
  98.1505646  69.9289560  67.4619422  99.6190479  68.6097647  66.5442394
 100.6867535  68.7881251  66.4166010  99.4108831  67.1570408  66.8829853
  99.8318470  66.9652010  67.8699439  97.8978265  66.7926980  66.8849846
  97.4762435  66.9838479  65.8981568  97.7778692  65.7380165  67.1326870
  97.3781498  67.4006916  67.6255118 100.0720741  66.2612013  65.9779920
  99.9030266  65.3545925  66.2446075  99.0148000  68.9841849  65.1232215
  98.1162202  69.7837990  65.1070139  99.4835599  68.3795084  64.0242246
 100.2053727  67.6825038  64.1394218  99.0148344  68.6681700  62.6835069
  99.6668491  68.0904459  62.0283650  98.0058550  68.2575840  62.6450466
  98.9808644  70.1165139  62.1994697  98.4963416  70.2780888  61.0917165
  99.5572168  71.1061214  62.8458031 100.1412622  70.7845251  63.6044639
  99.5327608  72.5808910  62.5389246  99.4253177  72.6813862  61.4588987
  98.3997358  73.4012481  63.2313383  98.3968768  72.8911542  64.1946115
  98.5387100  74.4709883  63.3876777  97.0041426  73.2241564  62.6393230
  96.4862195  73.9679351  61.5811898  97.2091192  74.6362753  61.1133893
  95.1712881  73.9162797  61.1055721  94.8451819  74.4830748  60.2335063
  94.2615072  73.1005811  61.7912801  93.2260733  73.0115482  61.4625706
  94.7044124  72.3894236  62.9219679  93.9932814  71.7797365  63.4793496
  96.0439157  72.4584277  63.3343697  96.3712399  71.9096804  64.2174525
 100.7363060  73.2078899  63.0708808 101.1764155  72.8256494  64.1307887
 101.1595385  74.2139887  62.2764147 100.7613683  74.3749167  61.3622692
 102.3515394  74.9608659  62.6512121 102.4735314  74.8128323  63.7242000
 103.6493464  74.4905020  61.9083037 103.5538191  74.6258503  60.8309664
 104.8035282  75.3776776  62.4397028 104.8999755  75.2425082  63.5169807
 105.7360177  75.0915128  61.9532115 104.5875491  76.4239015  62.2232132
 104.0304047  72.9994053  62.1900170 104.3143725  72.9398797  63.2406929
 103.1305383  72.4073397  62.0232887 105.1594682  72.4577877  61.3290131
 106.0598626  73.0491020  61.4955578 105.3534870  71.4186707  61.5948925
 104.8760290  72.5165643  60.2781528 102.1030403  76.4349803  62.5490363
 101.5405432  76.9130413  61.5532588 102.5549547  77.2354323  63.5109032
 103.2523010  76.8911499  64.1553231 102.0966635  78.6492991  63.6528084
 101.0389719  78.7602404  63.4138944 102.3043600  79.0137133  65.1019962
 101.9975123  78.2760654  65.8434941 103.3917893  79.0879233  65.0924862
 101.7011075  80.3809142  65.4600091 101.0509207  81.0387033  64.6073341
 101.6760779  80.7138765  66.6239965 102.9681507  79.5832519  62.7523063
 104.1228738  79.8859071  63.0766943 102.3397222  80.0703757  61.6354384
 101.4023595  79.7649803  61.4159294 102.9781134  81.0185557  60.7474996
 103.9118289  80.5541825  60.4302741 102.3146447  81.1226201  59.8889665
 103.2844173  82.4267777  61.3225187 104.2191138  83.0730907  60.9039843
 102.4826096  82.8081002  62.3422866 101.6212105  82.3382674  62.5817609
 102.8340229  84.0004752  63.0678021 103.0605809  84.8218418  62.3880025
 101.6244516  84.3974881  63.9330465 101.3746797  83.5309999  64.5453465
 101.9541195  85.2133876  64.5762627 100.4069002  84.8311177  63.1556513
 100.4511935  85.0591296  61.9405774  99.3070517  84.9586915  63.7856331
 104.1250649  83.8450553  63.9258477 104.7392216  84.9151066  64.0955999
 104.5664327  82.7385024  64.4969704 103.9410030  81.9460367  64.4663925
 105.8639916  82.5998823  65.2656332 106.0580699  83.5416568  65.7789495
 105.8465320  81.4494573  66.3227195 104.9814909  81.7016719  66.9360636
 105.6754944  80.4921447  65.8303794 107.0923157  81.3512115  67.2121309
 107.9457421  81.2621985  66.5399397 107.3110326  82.5164691  68.1530977
 106.4581673  82.6058368  68.8259522 108.2168103  82.3485850  68.7357488
 107.4158462  83.4353082  67.5761669 107.0495997  80.0433353  67.9938879
 107.0303768  79.2042234  67.2984591 107.9333561  79.9691937  68.6275904
 106.1544772  80.0200226  68.6154271 107.0493171  82.4254965  64.3739639
 108.0460872  83.0956887  64.5757573 106.9224976  81.5746299  63.3735400
 106.0382911  81.1104743  63.2224185 108.0876117  81.1697703  62.5316832
 109.0534309  81.0263792  63.0161743 107.7585080  79.9135050  61.6319515
 106.6824657  79.9452244  61.4609919 108.4752589  79.8216841  60.3076312
 109.5514097  79.7894528  60.4778111 108.1630076  78.9164516  59.7869068
 108.2299551  80.6927126  59.6999845 107.8159322  78.6801339  62.5488045
 108.8403545  78.5654570  62.9030768 107.1557157  78.8551337  63.3982683
 107.3920326  77.4331500  61.8361572 108.0521171  77.2572274  60.9867812
 107.4475157  76.5863773  62.5202602 106.3674783  77.5469051  61.4819706
 108.6643676  82.3047488  61.6691687 109.8333948  82.2355307  61.3351293
 107.8270848  83.3120922  61.4115978 106.8396161  83.2875009  61.6223114
 108.3598354  84.4870316  60.7341473 108.8421184  84.2722856  59.7805297
 107.0507536  85.3010122  60.4606214 107.3787537  86.1140628  59.8129610
 106.4282813  84.6114837  59.8903768 106.2592261  85.8604667  61.6012129
 105.2829219  86.0494907  61.1548936 106.1435601  85.1999907  62.4605685
 106.8896188  87.2117546  62.0648636 107.6798488  87.1688728  63.0441837
 106.4218297  88.2511556  61.4971385 109.4056471  85.2484333  61.5492113
 110.1702433  85.9179829  60.9249759 109.5424645  85.0377477  62.8480749
 108.8093332  84.5661649  63.3581999 110.6702522  85.5761184  63.5983768
 110.7248528  86.6537912  63.4443007 110.5284947  85.3082614  65.0689857
 111.3175444  85.8171842  65.6226078 109.5568034  85.6527063  65.4229259
 110.6334239  83.9451256  65.2665575 110.5455490  83.7497322  66.2023456
 112.1182605  85.1307215  63.1468810 113.1437060  85.8479439  63.2923993
 112.2084517  83.9454373  62.4119232 111.3975969  83.3434872  62.4283516
 113.4548763  83.4076038  61.8958556 114.1930200  83.3419450  62.6951878
 113.2242633  82.0078928  61.3280107 112.8294702  81.2829188  62.0398044
 112.5214112  82.1264808  60.5033679 114.5006533  81.3899796  60.7328337
 115.4248742  80.8084530  61.5989009 115.2669069  80.7963445  62.6773255
 116.5802890  80.2295612  61.0525941 117.3410462  79.7970969  61.7024585
 116.7558024  80.2092672  59.6384964 117.6180079  79.7209886  59.1843099
 115.8071603  80.8242913  58.8384105 116.0296210  80.8947093  57.7736792
 114.6228050  81.3363400  59.3319494 113.8457984  81.6716549  58.6449817
 114.1772546  84.3947845  61.0817960 115.4080378  84.3786621  61.0865737
 113.4560171  85.1820972  60.3122681 112.4730352  85.1315464  60.5387424
 113.8586588  85.9696312  59.1534032 114.5059163  85.3732005  58.5104201
 112.6404405  86.4041565  58.3490869 112.0809966  87.1255362  58.9446817
 112.9894492  86.8822755  57.4338300 111.7030429  85.1843174  57.9818481
 111.4876263  84.5728305  58.8580788 110.3817860  85.8101047  57.4489556
 110.5963480  86.4214041  56.5723856 109.6870884  85.0157253  57.1760864
 109.9350779  86.4321670  58.2245784 112.2950533  84.2644407  56.9208667
 113.2391458  83.8548983  57.2801213 111.6002952  83.4496689  56.7170057
 112.4697638  84.8298674  56.0055155 114.7716468  87.1561560  59.5212155
 115.1464730  87.9241731  58.5852999 114.9232169  87.4398409  60.8370556
 114.2629554  86.9863698  61.4522939 115.8507904  88.4340359  61.4153329
 116.6617111  88.6182777  60.7106614 115.1443876  89.7714269  61.7141396
 114.5739747  90.0192971  60.8189923 114.4594050  89.5933040  62.5430974
 116.0720286  90.9296716  62.0619636 117.2318904  90.8765740  61.6482679
 115.5996434  91.8756032  62.7671867 116.6688595  87.9843752  62.6788535
 116.2794665  88.3164825  63.7688570 117.7837618  87.2432332  62.5490831
 117.9824166  86.9906033  61.5915792 118.6943029  86.8366125  63.5528413
 118.7117237  87.5627070  64.3656036 118.3550917  85.4446862  64.1159407
 118.4161383  84.7491268  63.2789396 119.2826633  84.9462469  65.2781013
 119.2217869  85.6411020  66.1156997 118.9594257  83.9572500  65.6029140
 120.3123911  84.8934633  64.9245852 116.8545966  85.3156528  64.6634358
 116.8063600  85.9178871  65.5706777 116.2112359  85.7554751  63.9013709
 116.3656206  83.8433975  64.9810016 117.0082636  83.4030580  65.7433735
 115.3383945  83.8716234  65.3444698 116.4131418  83.2406451  64.0740666
 120.0294576  86.7418529  62.9174528 120.1608345  86.1351951  61.8631514
 121.0310270  87.3322548  63.5185713 120.7786715  87.8522727  64.3468210
 122.4620670  87.3296142  63.0931497 122.6200391  87.9903139  62.2407297
 123.2896870  87.8330698  64.2547975 123.3498331  87.0215679  64.9800190
 124.2857280  88.0486435  63.8681057 122.7649594  88.9943776  64.8858357
 123.3405076  89.2531402  65.6092900 122.9842395  85.9723029  62.6694615
 122.7977611  84.9661767  63.3560597 123.7754363  85.8872332  61.5615650
 123.9597552  86.7134843  61.0107156 124.1941837  84.6376495  61.0547264
 123.3360120  83.9734312  60.9524790 124.8601785  84.8141097  59.6496219
 125.6205256  85.5904797  59.7345986 125.3343061  83.8695896  59.3828170
 123.8362171  85.2098836  58.5466459 123.3184580  86.1121569  58.8721135
 124.3881778  85.4188777  57.6302601 122.7862839  84.0721750  58.2773831
 123.3044985  83.1909286  57.8992861 122.2822260  83.8237985  59.2113715
 121.7829913  84.4806384  57.2986801 121.0249294  85.0771999  57.5979389
 121.7614355  84.0048729  56.0692479 122.5757807  83.0755246  55.5655300
 123.2941757  82.6688953  56.1474760 122.4700385  82.7829845  54.6046250
 120.9871935  84.5132775  55.2047578 120.3866163  85.2840635  55.4602886
 120.9743060  84.1453204  54.2642579 125.0486026  83.7688638  61.9701682
 124.6768486  82.6210794  62.2003116 126.0246557  84.3787154  62.7057695
 126.6204584  85.6881395  62.5224427 126.0767358  86.4138623  63.1272504
 126.5500051  85.9666896  61.4709937 128.1229767  85.5005566  62.9995300
 128.5958927  86.4062057  63.3793314 128.7764250  85.0310219  62.2642451
 127.7886918  84.5306316  64.1293106 127.3716086  85.0654325  64.9826151
 128.6919175  84.0039835  64.4374092 126.7894849  83.5602420  63.6025208
 127.1794571  82.7484207  62.9885452 126.0808791  82.9859495  64.8024725
 126.5388689  81.9275007  65.2642393 124.9636043  83.5964969  65.3009330
 124.9280161  84.5704295  65.0358139 123.8871602  83.0635284  66.2286968
 124.3679216  82.4266746  66.9712497 123.0970170  84.1495392  66.9554060
 122.6824303  84.8300575  66.2116910 122.2846243  83.6747916  67.5056175
 124.0077931  84.9578327  67.9570914 124.2764152  84.3612599  68.8288963
 124.9141642  85.3222522  67.4735711 123.1644330  86.1292423  68.3908347
 122.9616485  86.7610477  67.5260808 122.2236897  85.7587639  68.7980782
 123.9067032  86.9582863  69.4747223 123.9208860  86.3852927  70.4018565
 124.9293560  87.1321473  69.1399796 123.2189262  88.2918778  69.7143628
 122.2714332  88.1309930  70.0249636 123.7221575  88.8078480  70.4219170
 123.2060580  88.8231601  68.8554841 122.8989964  82.1028333  65.4778577
 122.7919801  80.9784250  65.9135772 122.2218776  82.4855049  64.3151860
 122.3484116  83.4539924  64.0580473 121.3382913  81.6529945  63.4842644
 120.4160673  81.3683191  63.9907839 120.9819510  82.5844891  62.2880017
 120.4174019  83.4268957  62.6876700 121.9196096  82.9443651  61.8644624
 120.1628075  81.8939121  61.1979970 120.7187242  80.9840423  60.9717349
 119.2228841  81.6332842  61.6845349 119.8121871  82.7709660  59.6633551
 118.3758298  83.7405890  60.2607152 118.6845922  84.3730737  61.0930180
 117.9965606  84.3649818  59.4517720 117.5910156  83.0610985  60.5930713
 121.9423831  80.3151593  63.0003191 121.1751393  79.3521777  62.9668915
 123.2650410  80.2119263  62.6957010 123.8222647  81.0536911  62.6635592
 123.8631596  78.9726485  62.2336818 123.1942830  78.5057258  61.5107113
 125.2457500  79.2010326  61.5567960 125.4566715  78.2928769  60.9921151
 125.1077982  80.0334856  60.8668023 126.4645974  79.5153474  62.5293592
 126.1940991  80.2901911  63.2466798 126.6832787  78.5892115  63.0609161
 127.7234747  79.9589962  61.7820590 127.7086688  80.0827078  60.5612641
 128.7418765  80.2310958  62.5433347 129.6124826  80.5314216  62.1286652
 128.6575360  80.1408488  63.5457536 123.8754502  77.9365028  63.3576124
 123.9196932  76.7341558  63.1283656 124.0826966  78.4268754  64.5961909
 124.3633376  79.3884407  64.7255436 124.0479272  77.5425323  65.7785281
 124.3964363  76.5454267  65.5094166 124.9616577  78.1012795  66.8807468
 125.9497549  78.2203182  66.4362324 124.5641797  79.0801319  67.1489990
 125.0670008  77.2475218  68.1154198 125.2892610  76.2131212  67.8532812
 125.9683430  77.7266305  68.4976974 123.9829184  77.2781909  69.1857854
 124.1451542  76.6731604  70.2528907 123.0168177  78.0987820  69.0399711
 122.6093419  77.2920350  66.2557402 122.2542568  76.2469697  66.7699680
 121.6319621  78.1378675  65.9592320 121.9267783  79.0466426  65.6316491
 120.1714147  77.8897312  66.1374891 120.0159926  77.6032121  67.1776093
 119.1970390  79.0702046  65.7915693 119.5257837  79.4908176  64.8412478
 117.6846982  78.6427073  65.6811274 117.3550811  78.2223966  66.6312814
 117.0768072  79.5146612  65.4397451 117.5743973  77.8948744  64.8958368
 119.2849099  80.1294894  66.8157174 120.3045694  80.5125561  66.8564169
 118.6026839  80.9402402  66.5600798 119.0124609  79.7190275  67.7880308
 119.7599839  76.6602945  65.3043943 119.0963447  75.8283790  65.9045673
 120.1363097  76.5914294  64.0448418 120.5340070  77.4195810  63.6251978
 119.8633534  75.4414290  63.1846604 119.2186445  74.6673734  63.6009386
 119.2203578  75.9667515  61.8515296 118.8945418  75.1007168  61.2753985
 118.0158526  76.9068506  62.0945933 118.3410087  77.7734089  62.6703113
 117.6134273  77.2376024  61.1371187 117.2433180  76.3727990  62.6478388
 120.2432897  76.6347088  60.8834117 121.0112841  75.9112055  60.6098618
 119.7267901  76.9727201  59.9850376 120.7081147  77.4879431  61.3774055
 121.0607228  74.4692876  62.9265177 121.2436229  73.9191154  61.7840419
 121.7865003  74.1869130  64.0334859 121.6382912  74.7054608  64.8874423
 122.9091156  73.2449965  63.9780062 123.5128437  73.5907308  63.1389119
 123.7637795  73.3394678  65.2793052 123.1757491  72.9880304  66.1271331
 124.6552538  72.7210389  65.1748092 124.0584570  74.3754477  65.4466666
 122.4908573  71.7676303  63.6501800 121.3769993  71.3747256  64.0022430
 123.4492343  70.9930043  63.1451075 124.2891458  71.3461727  62.7093093
 123.1718457  69.5951914  63.0471855 123.8890767  69.1171851  62.3799608
 123.2798822  68.9392680  64.4378852 124.2114730  69.3476122  64.8296668
 122.4619516  69.1880950  65.1140321 123.4024955  67.4662637  64.3659590
 123.8193506  66.9130692  63.3595930 122.9210973  66.7247204  65.3604455
 123.0001918  65.7186289  65.3201520 122.4788205  67.1713671  66.1510141
 121.8252070  69.2087178  62.2956595 121.0120009  68.6107076  62.9386352
 121.5713696  69.5336997  61.0304661 122.3333143  69.9048025  60.4810826
 120.2378558  69.4915001  60.4282891 119.6886144  68.6273545  60.8020343
 119.4272890  70.8056673  60.7963598 119.6437823  71.1042466  61.8220694
 119.7719860  71.5811437  60.1123128 117.8999156  70.6101518  60.6272967
 117.7406741  70.2099767  59.6259961 117.2612860  69.6778278  61.6554728
 117.4197238  70.0776099  62.6570568 116.1916201  69.5997983  61.4609809
 117.7162451  68.6899740  61.5829633 117.2310581  71.9714980  60.8206260
 117.6076770  72.6711735  60.0744947 116.1520995  71.8661576  60.7072546
 117.4559194  72.3489906  61.8181407 120.2949563  69.2599764  58.9158585
 121.2084401  69.5493432  58.2353519 119.2992694  68.5880887  58.3181231
 118.5201073  68.4296496  58.9409416 119.1983766  68.1015209  56.9466558
 119.8664283  68.6240053  56.2619543 119.6384839  66.6306054  57.0359816
 118.9806724  66.2055166  57.7940600 119.3803232  66.2197837  56.0599290
 121.1194492  66.2749436  57.3743607 121.4373836  66.9831780  58.1394899
 121.2591923  65.2579427  57.7408074 121.9365339  66.4590975  56.2122657
 121.7547904  65.6907812  55.2439943 122.9358839  67.3543393  56.1687838
 123.4870599  67.4508881  55.3279599 123.1320510  67.9272806  56.9770895
 117.7395813  68.2021095  56.4278879 116.8209646  68.2078421  57.1934122
 117.5856616  68.1750893  55.1160035 118.3886947  68.5435172  54.6266181
 116.3558595  67.9151360  54.3450658 115.7844154  67.1381496  54.8528482
 115.4604122  69.1728260  54.1980048 114.4863090  68.8216187  53.8576000
 115.3429311  69.7156489  55.1358969 116.0741644  70.1178468  53.1257730
 117.0336408  71.0885880  53.4797555 117.3398117  71.1418945  54.5245126
 117.6068870  71.9927957  52.5132194 118.3969274  72.6784934  52.8194167
 117.1276387  72.0161356  51.1866666 117.5203917  72.9584788  50.3416907
 118.1362906  73.5814197  50.7343901 116.2447652  70.9758448  50.7975297
 116.0125253  70.8362191  49.7417505 115.6515884  70.1000824  51.7939596
 114.8582548  69.4090069  51.5091149 116.7135609  67.1537031  53.0609973
 117.8964247  67.0648819  52.7246627 115.7302792  66.5007707  52.3957579
 114.9604179  66.4058652  53.0426008 115.7274853  65.6671801  51.1772441
 116.3266982  64.7633019  51.2870041 114.2522953  65.2601448  50.9839885
 113.8562598  64.8711055  51.9220202 113.8019693  66.2304555  50.7746951
 113.9231314  64.2955861  49.8567544 112.7551749  64.0182417  49.5117693
 114.9061098  63.8635708  49.1936101 116.6666051  66.1256256  49.9796871
 116.6605724  67.2826692  49.5644585 117.3997305  65.1762428  49.3696303
 117.5332869  64.3338828  49.9106401 118.2143472  65.3681872  48.1801451
 117.8535430  66.2447672  47.6420680 119.6665258  65.5722542  48.5121212
 119.6453748  66.2952226  49.3275772 120.0712811  64.6275609  48.8752023
 120.5688709  66.1158408  47.3577569 121.6775631  65.5796344  47.1472595
 120.1757563  67.1162016  46.7118488 117.9307315  64.3588951  47.0242180
 118.6235396  64.3944389  45.9713217 116.9875959  63.4048609  47.1837361
 116.6036091  63.2630950  48.1070756 116.4826979  62.5487132  46.0670637
 115.3961561  62.5269521  46.1510428 116.7649032  63.0422648  45.1370819
 117.0055765  61.1229618  46.0483057 118.2342369  60.9507935  46.1361267
 116.1055609  60.1445383  45.9672104 115.1359122  60.4080943  46.0692843
 116.4477411  58.6749744  45.9321558 115.5378640  58.0749505  45.9460904
 117.2370350  58.3536420  44.6247743 118.0642877  59.0633388  44.6338610
 117.6210432  57.3466988  44.7881857 116.5935445  58.4093485  43.3962313
 117.2148153  58.1862688  42.6991962 117.1102249  58.2489903  47.2392846
 117.8079711  57.2376282  47.2912360 116.8128407  58.9448775  48.3153035
 116.2873785  59.8055595  48.2586005 117.2537270  58.4685869  49.6677400
 116.3813827  58.5225976  50.3190444 117.5552813  57.4276831  49.5507624
 118.4027120  59.2510155  50.3082585 118.8309894  59.0504596  51.4726063
 118.9450244  60.1449141  49.4454471 118.7302976  60.0130628  48.4673842
 119.8807750  61.1860086  49.8075217 120.6274737  60.8034442  50.5033555
 120.6036843  61.6835740  48.5291459 119.8712968  61.7805642  47.7277092
 121.0479868  62.6575097  48.7344375 121.6964835  60.7053905  48.1039356
 122.6336733  61.1316139  48.4618597 121.4915405  59.7784294  48.6395134
 121.8403414  60.3532533  46.3465713 120.8012567  58.8552327  46.2974689
 119.7936965  59.1001249  46.6335483 120.7607310  58.4738128  45.2771860
 121.2274414  58.0951784  46.9522860 119.2837809  62.3730771  50.5958811
 118.1285597  62.7015236  50.4573572 120.1112017  62.9985603  51.4390979
 120.9304982  62.4846984  51.7303000 119.8127235  64.3178153  52.1181869
 118.9544098  64.7976302  51.6478950 119.4874448  64.0743291  53.6048887
 120.3707027  63.6259510  54.0597642 119.3002551  65.0476664  54.0584022
 118.2294425  63.1273744  53.8430570 117.4124862  63.4885778  53.2183847
 118.5035563  62.1185858  53.5343349 117.7746994  63.1085133  55.3316375
 118.6907336  63.0975658  55.9222817 117.2494989  64.0497256  55.4940669
 116.8465383  61.9028161  55.7745960 116.1498845  62.2389192  56.5425861
 116.2879333  61.5343898  54.9141766 117.7036808  60.7983141  56.3251222
 118.2210569  61.1393785  57.1226789 117.1171121  60.0267390  56.6092155
 118.3489993  60.4864381  55.6135067 120.8919410  65.3792956  51.8770413
 121.9611079  65.0873361  51.3982117 120.6529540  66.6065511  52.3141616
 119.7527639  66.6669981  52.7681477 121.4219972  67.8636349  52.1012507
 122.4859016  67.6265841  52.1049317 121.0759955  68.5559755  50.7673964
 121.8621417  69.2841387  50.5677674 121.0866314  67.7890609  49.9929101
 119.6999129  69.2691932  50.7688737 118.9452936  68.5553686  51.0991842
 119.7462687  70.0999973  51.4729460 119.3220562  69.8075739  49.3536830
 119.3908426  69.0180012  48.6053900 118.3143164  70.2229698  49.3512287
 120.2962599  70.9009624  48.9933611 121.2654713  70.7597253  49.2398985
 119.9752910  71.9679211  48.2754481 118.8166544  72.1307392  47.6361262
 118.1121899  71.4084382  47.6820727 118.6487395  72.9756305  47.1088096
 120.8569881  72.9273934  48.3487147 121.6841237  72.8067848  48.9156365
 120.7080458  73.7860200  47.8381510 121.2473067  68.7881016  53.3863213
 120.2171246  68.8279929  54.0397413 122.2511468  69.5832792  53.7160900
 123.0622989  69.5593196  53.1147934 122.3332182  70.3292371  54.9410530
 121.8417212  69.7565002  55.7275022 123.7637817  70.6177421  55.3713551
 123.7584255  70.7402091  56.4544397 124.3638600  69.7468375  55.1076671
 124.3708028  71.8814879  54.7121064 124.3265036  71.5846310  53.6642446
 123.7719487  72.7801128  54.8602493 125.8197916  72.1664929  55.0990812
 126.2675703  73.2784735  54.8758177 126.6180524  71.2447172  55.4893979
 121.4687799  71.5751533  54.8963191 121.2833740  72.2106601  53.8758222
 120.7034090  71.8074083  55.9706966 120.8911791  71.2323172  56.7794685
 119.5465447  72.7156151  56.0139423 119.1811012  72.9036153  55.0043849
 118.4223508  72.1939489  56.8370294 118.7705324  72.0094247  57.8533072
 117.6156593  72.9267091  56.8573166 118.0560526  71.2629720  56.4043552
 120.1364861  74.0214624  56.4510443 119.9898579  74.4988451  57.5995228
 121.0317548  74.5631289  55.6390121 121.3291382  74.0833089  54.8014948
 121.7299881  75.7317468  56.0266674 122.0668070  75.6290510  57.0582224
 122.9316585  76.0426222  55.1526721 123.6064532  75.1910435  55.2396549
 122.6098096  76.3036036  53.6341482 121.9353853  77.1553898  53.5463311
 123.5344649  76.5161178  53.0975391 122.1363838  75.4202855  53.2055252
 123.6968106  77.1859495  55.5576264 124.4327775  77.3087261  54.9535743
 120.8306724  76.9501245  56.1950958 119.7936255  76.9757103  55.5490493
 121.2777286  77.9816465  56.9413425 122.0793372  77.7465644  57.5090215
 120.7223556  79.2959036  57.0620571 119.8391127  79.2886165  57.7007496
 121.7984310  80.1333294  57.7313595 122.6861897  80.1576375  57.0993835
 121.4301802  81.1485775  57.8788819 122.0522190  79.6955684  58.6967901
 120.2786235  79.8654521  55.7311813 119.1334432  80.3351601  55.7672723
 121.1470866  79.8468869  54.6731353 122.1105132  79.5867535  54.8288242
 120.7696789  80.3678414  53.3476170 120.5830387  81.4393778  53.4188523
 121.8676467  80.1349767  52.3346635 122.1437479  79.0812725  52.3743473
 121.4068357  80.3532605  51.3712812 123.1373511  81.0088236  52.5099869
 124.2825352  80.5485102  52.2281201 122.9807601  82.2179590  52.9080231
 119.3650919  79.8344998  52.8920316 118.4349950  80.6221121  52.7308184
 119.2619904  78.5237703  52.7163183 120.1014371  78.0600317  53.0331386
 118.1471801  77.6879133  52.2018097 117.9907211  77.9874690  51.1655249
 118.3294946  76.2038778  52.2480912 118.7459073  75.9995152  53.2344662
 117.3888738  75.6653490  52.1326824 119.3385596  75.7324446  51.1482391
 119.7872721  76.4551405  50.2431585 119.6121977  74.5539361  51.1711482
 116.8504863  77.8614419  53.0010432 115.7144009  77.9986676  52.5236765
 117.0342309  77.9806417  54.3232423 117.9835108  77.8616563  54.6469851
 115.9572984  78.2446472  55.3464801 115.1040674  77.5891323  55.1721348
 116.4910781  77.9806114  56.7226593 117.4509702  78.4534577  56.9303196
 115.7260369  78.4145694  57.3664701 116.5914269  76.5102519  56.9884302
 117.2145335  75.9931455  56.2587453 117.2632791  76.4555988  58.3623984
 116.6404929  76.9721367  59.0927576 117.3900743  75.4159519  58.6643224
 118.2384624  76.9397281  58.3100839 115.3048140  75.7503480  57.1971290
 114.6809795  75.8399193  56.3077995 115.5284967  74.6991688  57.3790345
 114.7741380  76.1621878  58.0555403 115.4143837  79.6966786  55.2997101
 114.1649982  79.8801891  55.2066139 116.3297721  80.6502953  55.1851801
 117.2983386  80.4492561  55.3890466 115.9505852  82.0613728  54.8649124
 115.2575241  82.4831895  55.5928110 117.1712221  83.0216545  54.6911120
 118.0456008  82.3949446  54.5156213 117.0277748  84.0341850  53.5424176
 116.1538126  84.6616028  53.7174532 117.9194838  84.6592416  53.4948776
 116.9082158  83.5003485  52.5996432 117.5084617  83.7164638  55.9902908
 117.8600457  82.9186963  56.6445511 118.3408102  84.3746442  55.7411042
 116.4074595  84.5288685  56.7136287 115.5749185  83.8712156  56.9635647
 116.8152780  84.9611882  57.6273480 116.0556813  85.3271626  56.0601163
 115.0350211  82.0671727  53.5913777 114.1096119  82.9031562  53.5049458
 115.2694059  81.2287129  52.6208629 116.0697832  80.6290834  52.7620721
 114.6202856  81.2073221  51.3402306 114.3944787  82.2212439  51.0099687
 115.5698021  80.5442837  50.2983651 116.5475684  81.0231207  50.3511621
 115.6717112  79.4845262  50.5320928 114.9954335  80.7038483  48.8748435
 114.0843337  80.1159742  48.7634789 114.7788815  81.7516242  48.6665815
 116.1263093  80.1613437  47.8232093 116.9470903  80.8754736  47.7566060
 116.5108359  79.1964330  48.1536424 115.4614950  80.0031966  46.4239329
 116.2920890  79.7456933  45.7667372 114.8089860  79.1378403  46.5400787
 114.7072677  81.1048372  45.8433856 115.3118255  81.9066618  45.7352795
 114.3494408  80.8287527  44.9401484 113.9373206  81.3433192  46.4519961
 113.2939948  80.6335240  51.4520982 112.3052143  81.3718753  51.1800807
 113.1832393  79.3910550  51.9917777 114.0326881  78.9194504  52.2676857
 111.9169241  78.6270578  52.0175278 111.4654511  78.8895961  51.0607912
 112.0947496  77.0506384  52.0790105 112.8217248  76.7838173  51.3119299
 112.5462754  76.5350274  53.3839633 111.8195262  76.8010767  54.1515271
 112.6403288  75.4502524  53.3337866 113.5133476  76.9719222  53.6329531
 110.7607149  76.3620383  51.9422388 110.3093157  76.6297468  50.9868996
 110.9023911  75.2821984  51.9866587 110.1044803  76.6755675  52.7541232
 111.0248605  79.1903467  53.1122630 109.8325337  79.3909486  52.8956306
 111.5833251  79.7501259  54.2676697 112.5466703  79.5352623  54.4819099
 110.7526938  80.3693021  55.3212140 109.8566965  79.7486088  55.3159290
 111.3223263  80.3907845  56.7357593 112.2208837  81.0060482  56.6894528
 110.3913943  80.9268213  57.8328537 109.4927578  80.3117413  57.8800769
 110.9046916  80.8936298  58.7938556 110.1149289  81.9561650  57.6045554
 111.5804679  78.9566046  57.1897891 112.2932036  78.4837626  56.5141189
 111.9880377  78.9627707  58.2007038 110.6447718  78.3976212  57.1792421
 110.1281233  81.6960908  54.9578266 109.0947288  82.0819739  55.4561679
 110.7264588  82.4209550  54.0047224 111.7233520  82.3066610  53.8896567
 110.0616063  83.4748495  53.2532176 109.5394957  84.1583811  53.9227580
 111.1739794  84.2986579  52.4460492 112.0189101  84.4507690  53.1176545
 111.4872933  83.6838424  51.6022859 110.6712053  85.6762872  51.9252138
 111.3349291  85.9786707  51.1151917 109.6644368  85.5300347  51.5338999
 110.6462932  86.8199316  53.0512071 111.8292025  87.2317060  53.3341762
 109.6164245  87.2855503  53.6165245 108.9141116  83.0702914  52.3857968
 107.7889276  83.5167689  52.6262564 109.1267328  82.1478778  51.4395123
 110.1036074  81.9721762  51.2525781 108.1257957  81.4507731  50.6233587
 107.7028549  82.1367075  49.8893871 108.7671527  80.2799170  49.8838059
 109.2744033  79.6376935  50.6037676 107.9897442  79.7105434  49.3743456
 109.7711695  80.7890707  48.8648492 110.4627176  81.5156764  49.2913537
 110.3053006  79.8641584  48.6472703 109.1968191  81.3303181  47.6173934
 108.0180420  81.7201731  47.5360632 109.8548906  81.5569109  46.6600097
 106.9660276  80.9940429  51.4481136 105.8202068  81.3345169  51.1197583
 107.1858086  80.2683902  52.5103365 108.1326691  79.9465435  52.6516493
 106.1643888  79.8425970  53.4548272 105.4618350  79.1224148  53.0354765
 106.9809900  79.1467264  54.5628726 107.5063505  78.3519893  54.0332610
 107.7065634  79.8333082  54.9990477 106.1066755  78.5264556  55.6954923
 105.3561636  79.2339976  56.0479368 105.4256950  77.3394584  55.0843341
 106.1756119  76.6312083  54.7320483 104.7942630  76.8578745  55.8309741
 104.8112428  77.6647861  54.2448636 107.0891716  78.2530858  56.8658987
 107.5479176  79.1898887  57.1822086 106.5453080  77.8147338  57.7026550
 107.8651287  77.5624164  56.5357998 105.2932934  81.0352165  53.9593511
 104.0803128  80.9451702  54.0184270 105.9341176  82.0848807  54.5245514
 106.9431655  82.0509673  54.4967737 105.2952242  83.1865139  55.2519334
 104.3131655  82.9295049  55.6489301 106.1548624  83.6882089  56.3820100
 105.6327840  84.5266438  56.8430537 106.4436315  82.6408622  57.4266929
 106.9661487  81.8022566  56.9664583 107.0672873  83.0709217  58.2104029
 105.5065892  82.2908985  57.8597954 107.4210519  84.2906344  56.0027227
 107.8889067  84.5752662  56.7912003 104.8629204  84.3837109  54.3686465
 104.0987830  85.2796340  54.8043723 105.0982127  84.3434986  53.0654755
 105.6822417  83.5575649  52.8178512 104.8371126  85.3942490  52.0221519
 104.4110689  86.2867848  52.4803722 106.1737066  85.7791326  51.3364209
 106.9098377  85.9400734  52.1240175 106.4799245  84.9332487  50.7209447
 106.0749417  87.0460595  50.4575541 105.4453875  86.8395535  49.5920383
 105.6378496  87.8580768  51.0386569 107.4789938  87.4536931  49.9837520
 107.4190733  88.4386369  49.5207245 108.1400970  87.4992424  50.8491809
 108.0441204  86.5071894  49.0077251 107.3776851  85.8430500  48.6404620
 109.2282304  86.5463794  48.4865863 110.2514182  87.2067049  48.9536924
 110.1540474  87.7512538  49.7987281 111.1363266  87.1704044  48.4681834
 109.5285354  85.7663574  47.5036791 108.8368620  85.1252096  47.1422686
 110.4538644  85.8005975  47.1003276 103.6254144  84.9789514  51.1495755
 103.7806266  84.4955740  50.0164716 102.4839528  85.0768460  51.7908930
 102.6224126  85.2602820  52.7743966 101.1848291  84.9117164  51.3284174
 101.0845006  84.0096730  50.7248024 100.0607046  84.9352780  52.4246118
 100.0412988  85.9371247  52.8535954  98.7115538  84.5970587  51.8932431
  98.7300539  83.5951001  51.4644806  97.9824463  84.6318883  52.7027428
  98.4330926  85.3162363  51.1229560 100.4332419  84.0501565  53.6561901
 101.3262990  84.5142457  54.0747244  99.6017708  84.1719802  54.3503905
 100.6925725  82.5599020  53.4282292 101.5242711  82.4372702  52.7344435
 100.9387495  82.0840490  54.3774710  99.7997429  82.0950050  53.0101072
 100.9023765  86.0125804  50.2786356 100.4196019  85.6270776  49.1920458
 101.0974640  87.3161221  50.5605181 101.3611886  87.5280691  51.5121626
 100.8312561  88.4621352  49.6217123 100.0425324  88.1692726  48.9287147
 100.3895528  89.7493308  50.3581839 101.1930133  90.3326081  50.8080039
  99.8557894  90.3649434  49.6341550  99.4274323  89.4424527  51.4457578
  98.2688704  88.6395466  51.3023207  97.6610307  88.5424453  52.5056998
  96.7759318  87.9272166  52.6675415  98.3812394  89.3408934  53.3737096
  98.1691302  89.4655470  54.3532866  99.4255311  89.9390587  52.7113071
 100.0566210  90.6617346  53.2285752 102.0251465  88.7167895  48.7165455
 103.1247520  88.9941768  49.2969816 101.8881744  88.6487425  47.5126036
  53.1599611  46.7616330  86.6149105  52.1885235  47.2460247  85.6834108
  53.0510316  47.9795736  84.3338379  53.9740317  48.9834753  84.5733396
  54.7025596  49.5001092  83.5153970  52.8528492  47.4959293  83.0506099
  53.5913329  48.0256383  82.0059310  54.5237206  49.0289535  82.2220761
  55.3920284  49.5282471  81.0931202  56.5234131  48.6440264  80.8478214
  56.6172554  47.8938751  79.7471436  57.8036912  46.9860278  79.6425187
  58.8219472  47.0086248  80.5893947  59.8702320  46.1076609  80.5215925
  57.8664483  46.0387676  78.6249782  58.9164067  45.1389207  78.5607749
  59.9386820  45.1521574  79.5081313  61.0178410  44.1311730  79.4912885
  61.0553183  43.1333859  78.5167475  62.0188866  42.1392142  78.5447808
  62.9790158  42.1097966  79.5515045  63.9815062  41.0276177  79.6373806
  64.6502333  40.9550419  80.7299363  65.2714616  39.6673418  81.0752430
  65.9595713  39.7744938  82.4392230  65.8264355  41.1375676  83.0550523
  66.6121254  42.0192147  82.4443724  66.5652758  43.3718165  82.9544140
  65.1042133  41.4144078  83.9752081  64.1964195  38.5853164  81.0643500
  63.7382749  37.8724483  82.0691323  62.8063300  36.9768219  81.5537132
  62.7267970  37.1709332  80.2603079  61.8518718  36.4223710  79.3231662
  63.5890287  38.1842318  79.8924432  63.8817776  38.7975630  78.6692515
  64.0969082  40.1293265  78.5298648  64.4475697  40.4591183  77.1718490
  64.7717797  41.8419905  76.6910599  64.4751202  39.3663793  76.3619943
  64.7974037  39.2836397  74.9012481  64.0814351  37.9154420  77.2135453
  62.9500433  43.1038699  80.5240768  61.9867224  44.0958125  80.4921744
  55.7763353  47.9345443  78.8532144  51.3965230  48.4461892  86.4600249
  50.0424575  48.8669910  86.3041676  49.1109900  48.1120241  85.5945406
  47.8132659  48.5648519  85.4372759  47.3820049  49.7749068  85.9697053
  45.9674687  50.2394979  85.7366807  48.3056016  50.5427453  86.6962252
  49.6244679  50.0830042  86.8583079  50.3084235  51.0088839  87.6066477
  49.4653744  52.0466037  87.9266901  48.2230642  51.8040639  87.3873518
  47.0868987  52.6756838  87.5062411  46.1534217  53.3351786  87.5705927
  51.2176266  46.3420263  85.1475795  54.1210603  49.3337322  85.4757761
  55.3530786  50.2090976  83.6938894  52.2005827  46.7878138  82.8746044
  53.4487898  47.6810279  81.1010453  54.8666671  49.5951991  80.2693612
  55.7251904  50.4287368  81.2841762  57.1584186  48.6175360  81.4593729
  58.8183235  47.6613677  81.3187879  60.5724543  46.1488664  81.2028589
  57.1651492  46.0028521  77.9433078  58.9291260  44.4866538  77.8311722
  60.3934651  43.1266894  77.7954379  62.0103752  41.4558152  77.8441616
  65.9372638  39.4544078  80.3901761  66.9160730  39.5802958  82.3889669
  65.6036902  39.1218880  83.0757003  67.2510324  43.9234912  82.5248573
  65.6747743  43.7588136  82.8285524  66.7503265  43.3384005  83.9149064
  61.6470982  36.9799418  78.5448240  62.2992594  35.6179297  78.9902301
  61.0002012  36.1849494  79.7409546  65.0376093  41.8370286  75.7484301
  63.9993795  42.4379537  76.7594101  65.4970792  42.2273160  77.2231087
  64.8457167  38.3499103  74.6095198  64.1220483  39.7263221  74.3476713
  65.6630387  39.7067430  74.7288803  63.6164918  43.1069742  81.2410299
  61.9997728  44.7788362  81.1933001  51.6605724  48.4747707  87.3014605
  49.3484861  47.2514683  85.1957357  47.1871374  48.0068741  84.9329816
  45.5769256  50.6304812  86.5430238  45.9485570  50.9289823  85.0410317
  45.4110877  49.4837299  85.4577956  51.0962546  50.8486137  87.9716363
  49.7976699  52.7974542  88.4608036  92.5997749  57.1575848  72.3223079
 109.8981890  91.8278316  58.6504378  73.7842736 123.9264691  79.6783963
  73.4478468  79.8079428 104.1627991  60.2943414  97.4274873  74.7397675
  79.8680582  32.2465951  83.5988028  93.6348688  55.1071895  56.0561465
  94.6014437 116.3511614  59.7221476  74.4278723 106.2730971  46.3717770
  51.2439421  78.0281819  46.4466779 122.5223148  64.4493698  41.0568329
 112.1912175 114.6905475  73.9024919  80.0806845 131.3336911 102.9303484
  90.8386081  89.9430707  28.5276124 100.5188004  71.6730142  40.5738526
  55.2141495 103.1476082  52.0090421  86.0299594  97.6922294  81.2067860
  50.4462452  86.7046463  76.1045535 100.6849406 122.2105080  82.9093761
  61.6298787  49.1331800  51.3072815  86.7765920 120.0678203 109.5738211
  78.7091215  62.3084985 150.4541485  77.8018277  62.0774239 150.6532634
  79.2062247  61.5122604 150.6415467  80.0577702  60.0390540 150.8969141
  81.0036807  59.9096748 150.9657559  79.6791947  59.3005202 151.3738569
  81.0373432  43.7257001 141.3747421  80.3861411  44.3111081 140.9881434
  81.8317795  44.2563196 141.4342458  87.3040156  40.2181937 142.6352257
  86.5269598  39.8793096 142.1907419  87.9831637  40.2234560 141.9607222
  78.7091217  39.3147108 137.1786792  77.8018278  39.0836361 137.3777941
  79.2062249  38.5184727 137.3660774  81.6159296  48.0244615 140.0983478
  80.9420994  48.3276312 140.7068436  82.0025118  48.8273695 139.7488935
  79.5855538  40.9568446 139.0398861  79.1474968  40.2404305 138.5804498
  80.3265979  41.1844561 138.4783952  79.8150511  48.1924287 142.3130557
  79.9902266  47.7212331 143.1276180  79.1283299  48.8190054 142.5411818
  83.7066766  39.8152828 138.6330918  83.0895936  39.0899656 138.5363971
  83.2383254  40.5762188 138.2897993  84.5304451  43.1392000 142.7523558
  84.8064295  43.0248594 143.6617432  83.6608950  42.7409485 142.7135731
  81.5000680  46.3146536 143.6571420  82.0288447  45.8038990 143.0441582
  81.7628900  45.9989066 144.5216953  84.5940864  46.2863334 144.2726403
  84.7677741  45.7209757 143.5200256  85.0869755  47.0864229 144.0905893
  85.5816036  45.6030098 141.3723301  86.2766941  46.2236791 141.5910616
  85.9239186  44.7525450 141.6475679  87.4807459  43.0529804 142.9010632
  88.0058784  43.3917077 142.1759952  87.3929812  42.1176819 142.7173767
  79.6730905  45.7091850 140.2798395  79.1004872  46.3282037 139.8268867
  80.2463698  46.2591212 140.8138317  82.8928165  45.9929000 141.4106977
  83.8258838  45.9274562 141.6139853  82.8051377  46.8285267 140.9521510
  85.5216181  45.3094871 138.3710925  85.4429813  44.9754734 139.2646683
  86.3425848  45.8016638 138.3702397  80.0577703  37.0452663 137.6214448
  81.0036808  36.9158871 137.6902866  79.6791948  36.3067325 138.0983876
  83.0920133  42.6262866 137.9920903  83.7955983  42.8312868 138.6078559
  82.3682782  43.1939628 138.2569987  85.0006830  43.0645395 140.0419363
  85.8352434  42.6326594 139.8596838  84.8391173  42.8927409 140.9696258
  84.6552723  39.5677509 141.4075703  84.6001526  39.4021780 140.4664147
  84.0298778  40.2753541 141.5637892  93.6291106  53.5815046 150.1374540
  94.2669515  53.4621794 149.4337880  93.5111948  54.5295890 150.1962492
  90.4380812  53.5342474 150.0736065  90.0999323  53.4183539 149.1856600
  91.3070580  53.1333639 150.0537071  86.2967627  55.3877951 146.0632956
  85.7332493  55.2967888 145.2949243  86.1820023  54.5677855 146.5435448
  83.8432059  56.8829142 148.9017176  84.6353351  56.5419967 148.4863475
  84.0828710  56.9924117 149.8219329  91.8767186  59.0548919 141.3747421
  91.2255166  59.6402999 140.9881434  92.6711549  59.5855113 141.4342458
  85.8022813  56.1438056 141.7734555  86.5753689  55.5967043 141.6347431
  86.1548212  57.0082305 141.9849016  88.5664063  54.8491286 151.5702814
  89.1627635  54.6247309 150.8559777  88.6239034  54.1076032 152.1728262
  88.1389091  52.3030722 139.4053005  88.3914612  51.7812243 138.6436468
  87.2013650  52.1396867 139.5079688  93.1832374  51.3066500 147.2127748
  93.9695463  50.8885923 146.8618165  93.4471078  52.2112592 147.3809396
  93.3542451  56.7439350 141.9116405  92.7188284  56.8173977 142.6237310
  93.0239858  57.3332949 141.2335484  87.8585380  54.2058828 141.6077380
  87.7421638  53.5303731 142.2758464  87.9687640  53.7191202 140.7909533
  90.2016921  53.6668975 145.3124069  89.8375128  53.1399596 146.0236991
  91.0584037  53.2767444 145.1390554  89.8422408  48.6958875 140.3085418
  90.0096810  49.5639111 140.6755889  89.6519577  48.8586156 139.3846707
  86.0510222  53.6089650 148.0087952  85.1260719  53.4765864 148.2165644
  86.2994636  54.3883870 148.5057895  89.8211629  51.1516532 141.2932084
  89.7011254  51.5973583 142.1317565  89.1264217  51.5001850 140.7345623
  83.4119034  53.2522924 148.8431741  83.5411415  53.5057403 149.7571153
  82.7316485  53.8450632 148.5236396  87.5818521  63.9220174 144.9422216
  87.5042551  64.8727999 145.0210696  86.9780164  63.5766046 145.5997142
  95.5196695  51.6238005 142.1212418  96.4314551  51.8565392 141.9460116
  95.0106342  52.2075049 141.5587497  89.6794239  56.3438232 146.7776085
  90.1432585  56.6225935 145.9880707  89.4151037  55.4421676 146.5949176
  86.5718320  55.8909713 149.7155848  87.1419677  56.3196982 149.0773333
  87.1626432  55.6092298 150.4140034  88.6163125  52.4661384 143.5865650
  89.3187168  52.9182428 144.0539576  88.2843754  51.8245203 144.2145543
  84.3103204  51.0889516 145.8466260  83.5134368  51.2008210 146.3649756
  84.0828797  51.4276168 144.9807151  89.8556890  59.2802327 143.6627755
  89.7202565  60.1253862 144.0912603  90.3966702  59.4821604 142.8993689
  83.3086287  56.7977765 144.2355680  83.8210808  57.5921015 144.3861245
  83.9609000  56.1004055 144.1689282  85.1181172  59.9143521 146.3178434
  85.2947800  60.8361486 146.1299418  85.9138005  59.6001940 146.7472813
  81.2735204  55.1266419 145.0115251  82.1110426  55.5363427 144.7948959
  81.4513472  54.1865861 144.9815445  93.1699636  52.7941500 140.6999084
  92.6546259  53.5646104 140.9387471  92.8976944  52.1206636 141.3232145
  90.7546747  47.6391201 145.7584322  89.8988343  47.2498051 145.5789961
  91.1673699  47.7183161 144.8984108  98.1433910  55.5473854 142.6352257
  97.3663353  55.2085014 142.1907419  98.8225391  55.5526478 141.9607222
  92.9585939  50.6668592 142.5258865  92.6536075  50.9814741 143.3769008
  93.9116381  50.7450012 142.5686198  91.4032371  56.8258815 144.1751819
  90.8753733  56.0911575 143.8625057  90.9019874  57.6033492 143.9291787
  86.1351099  47.4878481 146.5358431  86.7094851  47.2653663 145.8031624
  86.7222081  47.5567176 147.2887032  95.1930676  53.3752208 147.3422807
  95.7062558  54.0082200 147.8444517  95.8431900  52.7753404 146.9766167
  86.4620686  49.5182942 140.5554316  85.6257998  49.8557629 140.8763591
  86.3225455  49.3831922 139.6181453  88.4373766  44.3619730 145.2633500
  87.7838179  44.0468748 144.6390115  88.3954240  43.7395471 145.9893323
  89.5484971  54.6439025 137.1786792  88.6412033  54.4128279 137.3777941
  90.0456003  53.8476645 137.3660774  92.4553050  63.3536533 140.0983478
  91.7814749  63.6568229 140.7068436  92.8418872  64.1565613 139.7488935
  91.6711507  50.8501664 149.5881148  90.7534068  51.0716611 149.4302836
  92.0871650  50.9247974 148.7292855  92.4546554  52.2493080 144.7183828
  93.2018373  52.7614477 144.4090950  92.7238144  51.9277132 145.5788221
  90.7273205  54.7451620 141.7010782  89.8184424  54.4610653 141.7983252
  90.7568288  55.1650699 140.8414089  95.9592472  58.3558210 145.4701950
  95.5054799  57.5149120 145.5267140  95.3286439  58.9919608 145.8076730
  94.9025392  49.2850196 146.7002617  94.1648148  48.7727582 147.0312860
  95.1552165  48.8450577 145.8885894  94.4025411  60.1934706 146.4051768
  94.6948386  60.7539764 145.6864134  94.9124032  60.4863267 147.1604927
  81.2961375  52.4657134 145.6825984  81.0985775  51.8726495 144.9577051
  80.7408039  52.1609345 146.4001923  89.2758099  52.3580241 147.8020578
  89.3306708  51.4054077 147.7263054  88.4649301  52.5139680 148.2861876
  90.4249292  56.2860364 139.0398861  89.9868722  55.5696223 138.5804498
  91.1659733  56.5136479 138.4783952  87.2150459  50.9757301 145.5610956
  86.4018324  51.2751471 145.9676149  87.7109453  50.5812989 146.2785439
  89.3659036  60.9715058 147.4945221  89.3235215  61.1975904 146.5653753
  90.2821735  60.7378432 147.6431022  98.5422407  54.5617561 145.0975179
  98.4040306  54.7519157 144.1696369  98.1858626  55.3236944 145.5543230
  87.4824837  57.8478087 147.2907184  88.2765436  57.3528407 147.0889759
  86.7716530  57.3195950 146.9274889  83.7907601  51.9921168 143.3666937
  82.8605189  51.9305624 143.5836899  83.8865073  51.4697121 142.5703578
  83.7093150  48.5175981 145.9545178  83.9699967  49.4321314 145.8454339
  84.5310322  48.0500424 146.1041791  90.6544265  63.5216205 142.3130557
  90.8296021  63.0504248 143.1276180  89.9677053  64.1481971 142.5411818
  91.6101328  57.7988711 148.3593859  91.2751161  57.7589481 149.2551509
  91.1105274  57.1333427 147.8864269  94.5460520  55.1444746 138.6330918
  93.9289691  54.4191574 138.5363971  94.0777009  55.9054106 138.2897993
  86.3359066  49.3630170 137.7552223  85.4588532  49.2418971 137.3914469
  86.8116819  48.5716248 137.5031111  77.8561206  54.1507330 147.8493730
  78.5432246  53.8369060 147.2614745  77.7009335  55.0548694 147.5760981
  89.5222992  61.7156460 145.0014743  88.7390514  62.2578140 145.0952968
  90.2215737  62.2330440 145.4008984  92.8319642  47.5251090 147.6448949
  93.3288342  46.7721052 147.3250019  92.0606624  47.5615406 147.0792158
  93.9149423  56.2822777 145.2187372  92.9805702  56.4024239 145.0492076
  94.0926091  55.3795244 144.9547382  89.4154611  49.6668473 147.3720633
  89.0452398  49.1139513 148.0601539  89.9113703  49.0626606 146.8195633
  97.3021974  52.1240096 145.7537406  97.7682426  52.9568088 145.6797709
  97.7529475  51.6585078 146.4582665  95.3698205  58.4683918 142.7523558
  95.6458049  58.3540512 143.6617432  94.5002704  58.0701402 142.7135731
  92.0052269  62.7170268 146.3956372  92.1874664  61.8991924 146.8584124
  92.8285255  62.9337961 145.9581262  92.3394435  61.6438453 143.6571420
  92.8682201  61.1330908 143.0441582  92.6022654  61.3280984 144.5216953
  82.8411528  59.6602323 151.4006754  83.4264964  58.9146011 151.5334658
  82.6436366  59.9706279 152.2843418  85.6950183  62.6953570 146.4169196
  85.0260558  63.1799698 145.9333236  85.5563052  62.9422791 147.3312575
  81.0637760  50.9572025 143.1965128  81.3591201  50.0482704 143.1432182
  80.1625796  50.9359765 142.8746131  82.7925601  48.6386123 143.3204453
  82.4638308  47.7583502 143.1379559  83.1464972  48.5833792 144.2080843
  92.0405180  60.2741026 147.8299439  91.8930143  59.3457733 148.0107009
  92.8658674  60.2961116 147.3456514  85.9067425  48.9259093 143.6879931
  86.2463497  49.4545014 142.9658540  86.3539545  49.2639499 144.4638498
  87.8935572  47.4233714 141.8873224  88.6143934  47.8014967 141.3836941
  87.2700876  48.1422591 141.9908202  92.0366695  48.1278863 142.8231556
  92.2530309  49.0103501 142.5220384  91.5560762  47.7365077 142.0937198
  95.4334618  61.6155252 144.2726403  95.6071496  61.0501674 143.5200256
  95.9263510  62.4156147 144.0905893  88.0399195  46.9581505 144.7170761
  88.1615106  46.0298151 144.9161648  87.7501237  46.9720191 143.8049076
 101.2874009  54.3791675 145.8916703 101.7305156  53.6299000 145.4935826
 100.4100520  54.3701811 145.5090435  96.4209791  60.9322016 141.3723301
  97.1160695  61.5528709 141.5910616  96.7632941  60.0817367 141.6475679
  98.3201214  58.3821722 142.9010632  98.8452538  58.7208994 142.1759952
  98.2323566  57.4468737 142.7173767  82.4834214  60.6405246 147.2630514
  83.3092234  60.3409018 146.8829157  82.1328266  59.8712868 147.7120302
  87.4515747  59.9931714 149.3328187  86.8295756  59.3302419 149.0330415
  88.1220614  60.0192846 148.6501835  80.6842819  58.5591572 148.2219447
  79.8474727  58.1313747 148.0403448  80.6566464  58.7524016 149.1590238
  87.0129254  58.5435637 142.8086648  87.1617374  59.2271102 142.1553320
  87.8195697  58.5240727 143.3236103  84.7681887  54.5700815 143.8147717
  84.5227929  53.6663145 144.0127927  84.9377801  54.5717965 142.8727195
  84.0377534  50.3029173 141.3133878  83.3446779  50.3773528 140.6573914
  83.7929286  49.5389516 141.8355395  90.5124659  61.0383768 140.2798395
  89.9398626  61.6573955 139.8268867  91.0857453  61.5883129 140.8138317
  93.7321919  61.3220918 141.4106977  94.6652592  61.2566480 141.6139853
  93.6445132  62.1577185 140.9521510  96.3609936  60.6386788 138.3710925
  96.2823567  60.3046652 139.2646683  97.1819603  61.1308556 138.3702397
  90.8971458  52.3744581 137.6214448  91.8430562  52.2450789 137.6902866
  90.5185703  51.6359242 138.0983876  89.0814375  50.2994557 137.5569333
  88.1745830  50.0027670 137.6332046  89.3590356  50.0024375 136.6903619
  90.6976441  44.8431447 143.7113574  89.8877169  44.4978532 144.0868820
  91.3860858  44.5338990 144.3001186  92.6266989  43.9209493 145.3337871
  93.1798028  44.3404947 145.9927894  92.8637075  42.9945242 145.3760827
  87.8513160  47.1581492 137.6981312  88.7132324  47.4836390 137.9577129
  88.0363504  46.3712988 137.1854378  96.0045796  46.0310019 144.8416535
  95.4244465  46.6894823 144.4594587  95.7381729  45.2087363 144.4303952
  81.7817318  55.1722086 147.8527516  81.7588006  55.2709773 146.9009399
  82.0917954  56.0187236 148.1744682  94.7870674  48.1910109 143.8972883
  93.8996529  48.4759760 143.6793078  95.2024663  48.0303872 143.0500160
  82.7954924  62.7717860 148.9844328  82.6609392  62.0118261 148.4182326
  82.3786987  63.4958760 148.5173117  93.9313888  57.9554784 137.9920903
  94.6349738  58.1604786 138.6078559  93.2076536  58.5231546 138.2569987
  94.7611698  53.7064645 144.1123173  94.7046899  54.1633196 143.2730806
  95.3140040  52.9455330 143.9346016  95.8400585  58.3937313 140.0419363
  96.6746189  57.9618511 139.8596838  95.6784928  58.2219327 140.9696258
  95.4946477  54.8969426 141.4075703  95.4395281  54.7313698 140.4664147
  94.8692532  55.6045459 141.5637892  88.8042603  44.3977535 140.9861021
  88.7921272  45.3419375 141.1429292  89.6966024  44.2147681 140.6920482
  98.9782846  67.6322639 139.4053005  99.2308366  67.1104161 138.6436468
  98.0407405  67.4688785 139.5079688 100.6816162  64.0250792 140.3085418
 100.8490565  64.8931029 140.6755889 100.4913331  64.1878074 139.3846707
  97.3014440  64.8474860 140.5554316  96.4651752  65.1849547 140.8763591
  97.1619210  64.7123840 139.6181453  99.2767521  59.6911648 145.2633500
  98.6231933  59.3760665 144.6390115  99.2347995  59.0687388 145.9893323
 100.3878726  69.9730943 137.1786792  99.4805787  69.7420197 137.3777941
 100.8849758  69.1768562 137.3660774  94.6301355  67.3213086 143.3666937
  93.6998943  67.2597541 143.5836899  94.7258827  66.7989039 142.5703578
  97.1752820  64.6922088 137.7552223  96.2982287  64.5710888 137.3914469
  97.6510574  63.9008166 137.5031111  91.9031514  66.2863943 143.1965128
  92.1984955  65.3774621 143.1432182  91.0019550  66.2651682 142.8746131
  93.6319356  63.9678040 143.3204453  93.3032062  63.0875419 143.1379559
  93.9858727  63.9125709 144.2080843  98.7329326  62.7525632 141.8873224
  99.4537689  63.1306885 141.3836941  98.1094630  63.4714509 141.9908202
  98.8792949  62.2873422 144.7170761  99.0008860  61.3590069 144.9161648
  98.5894992  62.3012108 143.8049076  94.8771289  65.6321090 141.3133878
  94.1840534  65.7065445 140.6573914  94.6323041  64.8681434 141.8355395
 101.7365212  67.7036498 137.6214448 102.6824317  67.5742706 137.6902866
 101.3579457  66.9651160 138.0983876  99.9208129  65.6286475 137.5569333
  99.0139585  65.3319587 137.6332046 100.1984110  65.3316293 136.6903619
 101.5370195  60.1723364 143.7113574 100.7270923  59.8270449 144.0868820
 102.2254612  59.8630908 144.3001186  98.6906914  62.4873410 137.6981312
  99.5526078  62.8128308 137.9577129  98.8757258  61.7004906 137.1854378
  99.6436357  59.7269453 140.9861021  99.6315027  60.6711293 141.1429292
 100.5359779  59.5439598 140.6920482  81.0373433  20.7319123 128.0992727
  80.3861413  21.3173204 127.7126741  81.8317796  21.2625318 128.1587765
  87.3040157  17.2244059 129.3597564  86.5269600  16.8855219 128.9152726
  87.9831638  17.2296682 128.6852529  78.7091218  16.3209230 123.9032099
  77.8018280  16.0898484 124.1023248  79.2062250  15.5246850 124.0906080
  81.6159297  25.0306738 126.8228785  80.9420996  25.3338434 127.4313743
  82.0025119  25.8335818 126.4734242  79.5855539  17.9630569 125.7644167
  79.1474969  17.2466428 125.3049805  80.3265980  18.1906684 125.2029259
  79.8150512  25.1986410 129.0375864  79.9902268  24.7274453 129.8521487
  79.1283300  25.8252176 129.2657125  83.7066767  16.8214951 125.3576225
  83.0895937  16.0961779 125.2609278  83.2383255  17.5824311 125.0143299
  84.5304452  20.1454122 129.4768865  84.8064296  20.0310717 130.3862739
  83.6608951  19.7471607 129.4381038  81.5000682  23.3208658 130.3816727
  82.0288448  22.8101113 129.7686889  81.7628901  23.0051189 131.2462260
  84.5940865  23.2925457 130.9971710  84.7677743  22.7271879 130.2445562
  85.0869756  24.0926352 130.8151200  85.5816038  22.6092221 128.0968608
  86.2766942  23.2298914 128.3155923  85.9239188  21.7587572 128.3720986
  87.4807461  20.0591927 129.6255939  88.0058785  20.3979199 128.9005259
  87.3929813  19.1238942 129.4419074  79.6730906  22.7153973 127.0043702
  79.1004873  23.3344160 126.5514174  80.2463700  23.2653334 127.5383624
  82.8928166  22.9991123 128.1352284  83.8258839  22.9336685 128.3385160
  82.8051379  23.8347390 127.6766817  85.5216182  22.3156993 125.0956232
  85.4429814  21.9816857 125.9891989  86.3425849  22.8078761 125.0947704
  80.0577705  14.0514785 124.3459754  81.0036809  13.9220994 124.4148172
  79.6791949  13.3129447 124.8229182  83.0920134  19.6324989 124.7166210
  83.7955984  19.8374991 125.3323865  82.3682783  20.2001750 124.9815293
  85.0006832  20.0707518 126.7664670  85.8352436  19.6388716 126.5842145
  84.8391175  19.8989531 127.6941564  84.6552724  16.5739631 128.1321009
  84.6001528  16.4083903 127.1909453  84.0298779  17.2815664 128.2883199
  93.6291107  30.5877169 136.8619847  94.2669517  30.4683916 136.1583187
  93.5111950  31.5358013 136.9207799  90.4380813  30.5404597 136.7981371
  90.0999325  30.4245662 135.9101906  91.3070581  30.1395762 136.7782377
  86.2967629  32.3940073 132.7878262  85.7332494  32.3030010 132.0194550
  86.1820024  31.5739978 133.2680755  83.8432061  33.8891265 135.6262483
  84.6353353  33.5482090 135.2108782  84.0828711  33.9986240 136.5464636
  91.8767187  36.0611041 128.0992727  91.2255167  36.6465122 127.7126741
  92.6711550  36.5917236 128.1587765  85.8022815  33.1500178 128.4979862
  86.5753691  32.6029165 128.3592737  86.1548213  34.0144428 128.7094323
  88.5664064  31.8553409 138.2948121  89.1627636  31.6309431 137.5805083
  88.6239036  31.1138155 138.8973568  88.1389092  29.3092844 126.1298311
  88.3914613  28.7874366 125.3681774  87.2013652  29.1458990 126.2324995
  93.1832375  28.3128623 133.9373055  93.9695464  27.8948046 133.5863472
  93.4471080  29.2174715 134.1054703  93.3542453  33.7501473 128.6361712
  92.7188286  33.8236100 129.3482616  93.0239859  34.3395072 127.9580791
  87.8585381  31.2120950 128.3322686  87.7421639  30.5365854 129.0003771
  87.9687641  30.7253324 127.5154839  90.2016922  30.6731097 132.0369376
  89.8375129  30.1461718 132.7482297  91.0584038  30.2829567 131.8635861
  89.8422409  25.7020997 127.0330724  90.0096811  26.5701234 127.4001195
  89.6519578  25.8648279 126.1092013  92.5997742  34.1637976 138.6996555
  92.2998465  35.0663015 138.5912362  92.2548802  33.8970159 139.5517707
  86.0510224  30.6151773 134.7333259  85.1260720  30.4827987 134.9410951
  86.2994637  31.3945992 135.2303201  89.8211630  28.1578655 128.0177391
  89.7011255  28.6035705 128.8562871  89.1264218  28.5063972 127.4590929
  83.4119035  30.2585046 135.5677048  83.5411416  30.5119525 136.4816460
  82.7316486  30.8512754 135.2481703  87.5818522  40.9282296 131.6667522
  87.5042552  41.8790121 131.7456003  86.9780166  40.5828169 132.3242449
  95.5196696  28.6300128 128.8457725  96.4314552  28.8627515 128.6705423
  95.0106343  29.2137172 128.2832804  94.1266278  33.6125946 136.2371307
  93.4975141  33.7771660 135.5347374  93.7391941  34.0267556 137.0082271
  98.0055510  34.5480384 133.5915670  97.3206548  34.9279285 133.0412704
  98.0899360  35.1575711 134.3247618  89.6794240  33.3500354 133.5021392
  90.1432586  33.6288057 132.7126014  89.4151038  32.4483799 133.3194482
  86.5718321  32.8971836 136.4401155  87.1419678  33.3259104 135.8018639
  87.1626433  32.6154421 137.1385341  88.6163126  29.4723507 130.3110957
  89.3187170  29.9244550 130.7784883  88.2843755  28.8307326 130.9390850
  84.3103206  28.0951639 132.5711567  83.5134369  28.2070333 133.0895063
  84.0828798  28.4338291 131.7052458  90.1408873  34.6196342 140.5194082
  90.2053306  35.0816749 141.3552253  89.4319797  33.9893707 140.6476392
  89.8556891  36.2864449 130.3873062  89.7202566  37.1315985 130.8157910
  90.3966703  36.4883727 129.6238996  83.3086288  33.8039887 130.9600987
  83.8210809  34.5983138 131.1106552  83.9609001  33.1066178 130.8934589
  85.1181173  36.9205644 133.0423740  85.2947801  37.8423608 132.8544724
  85.9138007  36.6064063 133.4718120  86.2412489  38.4383817 139.0434083
  86.7919914  38.3100881 138.2711077  85.4023964  38.7378706 138.6928975
  81.2735205  32.1328542 131.7360558  82.1110427  32.5425550 131.5194265
  81.4513473  31.1927984 131.7060751  93.1699637  29.8003622 127.4244391
  92.6546261  30.5708227 127.6632778  92.8976946  29.1268758 128.0477452
  90.7546748  24.6453323 132.4829629  89.8988345  24.2560174 132.3035268
  91.1673700  24.7245284 131.6229414  98.1433911  32.5535977 129.3597564
  97.3663354  32.2147136 128.9152726  98.8225392  32.5588600 128.6852529
  92.9585940  27.6730714 129.2504172  92.6536076  27.9876864 130.1014315
  93.9116383  27.7512134 129.2931505  91.4032372  33.8320938 130.8997126
  90.8753734  33.0973697 130.5870363  90.9019875  34.6095614 130.6537094
  96.3825218  32.0269958 136.0164172  95.7248893  32.7169220 136.1044301
  97.1865618  32.4166390 136.3598158  86.1351100  24.4940604 133.2603737
  86.7094852  24.2715786 132.5276930  86.7222082  24.5629299 134.0132339
  95.1930677  30.3814331 134.0668114  95.7062559  31.0144323 134.5689823
  95.8431901  29.7815526 133.7011474  86.4620687  26.5245065 127.2799623
  85.6257999  26.8619752 127.6008897  86.3225457  26.3894045 126.3426759
  88.4373768  21.3681853 131.9878807  87.7838180  21.0530870 131.3635421
  88.3954242  20.7457593 132.7138630  89.5484972  31.6501148 123.9032099
  88.6412034  31.4190401 124.1023248  90.0456004  30.8538767 124.0906080
  92.4553051  40.3598655 126.8228785  91.7814750  40.6630352 127.4313743
  92.8418873  41.1627736 126.4734242  91.6711508  27.8563786 136.3126454
  90.7534069  28.0778733 136.1548142  92.0871652  27.9310097 135.4538162
  92.4546556  29.2555202 131.4429135  93.2018375  29.7676599 131.1336257
  92.7238145  28.9339255 132.3033528  90.7273206  31.7513743 128.4256089
  89.8184425  31.4672776 128.5228559  90.7568290  32.1712821 127.5659396
  95.9592473  35.3620332 132.1947256  95.5054800  34.5211242 132.2512447
  95.3286440  35.9981731 132.5322037  94.9025393  26.2912318 133.4247924
  94.1648150  25.7789705 133.7558166  95.1552166  25.8512700 132.6131201
  94.4025413  37.1996829 133.1297075  94.6948387  37.7601886 132.4109440
  94.9124033  37.4925390 133.8850234  81.2961376  29.4719257 132.4071291
  81.0985776  28.8788618 131.6822358  80.7408040  29.1671467 133.1247230
  89.2758100  29.3642363 134.5265884  89.3306710  28.4116200 134.4508361
  88.4649302  29.5201803 135.0107183  90.4249294  33.2922487 125.7644167
  89.9868724  32.5758345 125.3049805  91.1659735  33.5198601 125.2029259
  87.2150460  27.9819423 132.2856263  86.4018325  28.2813594 132.6921455
  87.7109454  27.5875112 133.0030745  89.3659038  37.9777180 134.2190528
  89.3235217  38.2038026 133.2899060  90.2821737  37.7440555 134.3676329
  98.5422408  31.5679684 131.8220486  98.4040307  31.7581280 130.8941675
  98.1858627  32.3299066 132.2788537  87.4824839  34.8540209 134.0152490
  88.2765437  34.3590529 133.8135065  86.7716531  34.3258072 133.6520196
  92.3019683  37.2358305 138.3664858  92.3556705  37.8049241 139.1342574
  91.4334464  37.4060190 138.0018895  83.7907602  28.9983291 130.0912243
  82.8605190  28.9367746 130.3082205  83.8865074  28.4759244 129.2948884
  83.7093151  25.5238104 132.6790485  83.9699968  26.4383437 132.5699645
  84.5310323  25.0562546 132.8287098  91.2607783  31.4018567 139.9251790
  92.1899843  31.5529726 139.7520757  90.8398813  31.4902588 139.0700436
  90.0596115  35.4269231 137.6950328  89.9207200  35.0588016 138.5676266
  89.2710711  35.9416871 137.5234285  90.6544266  40.5278328 129.0375864
  90.8296022  40.0566371 129.8521487  89.9677055  41.1544094 129.2657125
  91.6101330  34.8050834 135.0839165  91.2751162  34.7651604 135.9796815
  91.1105275  34.1395550 134.6109576  94.5460521  32.1506868 125.3576225
  93.9289692  31.4253696 125.2609278  94.0777010  32.9116228 125.0143299
  85.2205352  43.6767690 135.8115724  85.4601950  44.3086215 136.4894743
  84.3774548  43.3255730 136.0981084  86.3359067  26.3692293 124.4797529
  85.4588534  26.2481093 124.1159776  86.8116820  25.5778371 124.2276418
  77.8561207  31.1569452 134.5739036  78.5432247  30.8431182 133.9860052
  77.7009336  32.0610817 134.3006288  89.7333214  39.4846813 138.2157228
  89.6603385  40.2901784 138.7276533  89.2910607  39.6838779 137.3905250
  89.5222993  38.7218583 131.7260050  88.7390515  39.2640263 131.8198274
  90.2215738  39.2392563 132.1254291  92.8319643  24.5313212 134.3694255
  93.3288343  23.7783175 134.0495325  92.0606625  24.5677529 133.8037465
  92.1931897  39.3833647 140.3715387  92.9059869  40.0181112 140.2991288
  91.7021926  39.4797513 139.5555389  93.9149424  33.2884900 131.9432679
  92.9805703  33.4086362 131.7737383  94.0926093  32.3857366 131.6792688
  89.4154612  26.6730595 134.0965940  89.0452400  26.1201636 134.7846845
  89.9113705  26.0688729 133.5440940  97.3021975  29.1302219 132.4782713
  97.7682428  29.9630210 132.4043015  97.7529476  28.6647200 133.1827971
  87.2443811  37.1328090 141.1920958  87.9453270  37.7664573 141.3450352
  86.7738926  37.4742822 140.4316597  95.3698207  35.4746040 129.4768865
  95.6458050  35.3602635 130.3862739  94.5002705  35.0763525 129.4381038
  92.0052271  39.7232391 133.1201678  92.1874665  38.9054047 133.5829431
  92.8285257  39.9400083 132.6826568  92.3394436  38.6500576 130.3816727
  92.8682202  38.1393031 129.7686889  92.6022656  38.3343106 131.2462260
  82.8411529  36.6664445 138.1252060  83.4264966  35.9208133 138.2579965
  82.6436367  36.9768402 139.0088724  85.6950184  39.7015693 133.1414503
  85.0260559  40.1861820 132.6578543  85.5563054  39.9484913 134.0557881
  89.8355453  41.7359436 139.7397161  90.3873761  41.8991058 140.5046246
  90.1761646  42.3263874 139.0677186  81.0637761  27.9634148 129.9210435
  81.3591202  27.0544826 129.8677489  80.1625797  27.9421887 129.5991437
  92.9723840  39.6841412 136.7260843  92.8474979  38.8831152 136.2171789
  93.6302931  40.1787605 136.2374813  95.0358748  37.4850432 138.3540393
  94.0889084  37.3655783 138.2818720  95.3841521  36.5972930 138.4366655
  82.7925603  25.6448245 130.0449760  82.4638309  24.7645624 129.8624866
  83.1464973  25.5895914 130.9326149  92.0405182  37.2803148 134.5544746
  91.8930144  36.3519856 134.7352316  92.8658675  37.3023239 134.0701821
  85.9067426  25.9321215 130.4125238  86.2463498  26.4607136 129.6903846
  86.3539546  26.2701621 131.1883804  95.6439303  38.1031707 135.6409618
  96.5685851  37.8974568 135.5034070  95.4754607  37.8548108 136.5498960
  87.8935573  24.4295837 128.6118531  88.6143935  24.8077090 128.1082247
  87.2700877  25.1484714 128.7153508  92.0366696  25.1340986 129.5476863
  92.2530310  26.0165624 129.2465691  91.5560763  24.7427199 128.8182505
  95.4334620  38.6217374 130.9971710  95.6071497  38.0563797 130.2445562
  95.9263511  39.4218269 130.8151200  88.0399196  23.9643627 131.4416067
  88.1615107  23.0360273 131.6406955  87.7501238  23.9782313 130.5294383
 101.2874011  31.3853797 132.6162010 101.7305157  30.6361122 132.2181133
 100.4100521  31.3763934 132.2335742  96.4209792  37.9384139 128.0968608
  97.1160697  38.5590831 128.3155923  96.7632942  37.0879490 128.3720986
  98.3201215  35.3883844 129.6255939  98.8452539  35.7271117 128.9005259
  98.2323568  34.4530860 129.4419074  89.9821264  39.3017918 141.7545816
  90.2908390  39.0567065 142.6268515  90.7796746  39.5064556 141.2664686
  90.0041876  41.4555828 133.9851192  89.5646866  40.9632206 134.6784049
  90.7549993  40.9128795 133.7443267  82.4834215  37.6467368 133.9875820
  83.3092235  37.3471140 133.6074464  82.1328267  36.8774991 134.4365609
  87.4515748  36.9993837 136.0573494  86.8295757  36.3364542 135.7575722
  88.1220615  37.0254968 135.3747142  80.6842820  35.5653695 134.9464754
  79.8474728  35.1375869 134.7648755  80.6566465  35.7586138 135.8835545
  87.0129255  35.5497760 129.5331954  87.1617375  36.2333224 128.8798627
  87.8195698  35.5302850 130.0481410  84.7681888  31.5762938 130.5393023
  84.5227930  30.6725268 130.7373233  84.9377803  31.5780088 129.5972501
  84.0377536  27.3091295 128.0379185  83.3446780  27.3835650 127.3819221
  83.7929287  26.5451639 128.5600702  90.5124661  38.0445890 127.0043702
  89.9398628  38.6636078 126.5514174  91.0857454  38.5945252 127.5383624
  93.7321920  38.3283041 128.1352284  94.6652593  38.2628602 128.3385160
  93.6445133  39.1639307 127.6766817  96.3609937  37.6448911 125.0956232
  96.2823569  37.3108774 125.9891989  97.1819604  38.1370679 125.0947704
  90.8971459  29.3806703 124.3459754  91.8430564  29.2512911 124.4148172
  90.5185704  28.6421365 124.8229182  89.0814376  27.3056680 124.2814639
  88.1745832  27.0089792 124.3577353  89.3590357  27.0086498 123.4148926
  90.6976442  21.8493569 130.4358881  89.8877170  21.5040654 130.8114127
  91.3860859  21.5401113 131.0246492  92.6266990  20.9271616 132.0583177
  93.1798029  21.3467069 132.7173200  92.8637077  20.0007364 132.1006133
  87.8513161  24.1643615 124.4226619  88.7132325  24.4898513 124.6822436
  88.0363505  23.3775111 123.9099684  96.0045797  23.0372141 131.5661842
  95.4244466  23.6956945 131.1839894  95.7381730  22.2149486 131.1549259
  81.7817319  32.1784208 134.5772822  81.7588007  32.2771895 133.6254705
  82.0917956  33.0249359 134.8989988  94.7870675  25.1972232 130.6218190
  93.8996530  25.4821882 130.4038385  95.2024664  25.0365995 129.7745467
  82.7954926  39.7779983 135.7089635  82.6609394  39.0180384 135.1427633
  82.3786988  40.5020883 135.2418423  93.9313889  34.9616906 124.7166210
  94.6349739  35.1666909 125.3323865  93.2076538  35.5293668 124.9815293
  94.7611699  30.7126768 130.8368480  94.7046900  31.1695319 129.9976112
  95.3140042  29.9517452 130.6591323  85.9524052  40.6749300 135.9208077
  85.8356436  41.6194732 135.8186767  85.1316498  40.3722861 136.3093876
  95.8400586  35.3999435 126.7664670  96.6746190  34.9680634 126.5842145
  95.6784929  35.2281449 127.6941564  95.4946478  31.9031549 128.1321009
  95.4395282  31.7375820 127.1909453  94.8692534  32.6107582 128.2883199
  88.8042604  21.4039658 127.7106328  88.7921274  22.3481498 127.8674598
  89.6966026  21.2209803 127.4165789  86.9778566  41.3277562 139.1364006
  87.8805812  41.3601172 139.4530501  86.7515936  40.3978013 139.1510341
  88.7332168  40.0808548 135.7974084  87.7827799  40.0810410 135.6838457
  89.0364654  39.3341283 135.2810119 104.4684861  45.9169087 136.8619847
 105.1063271  45.7975834 136.1583187 104.3505704  46.8649931 136.9207799
 101.2774568  45.8696515 136.7981371 100.9393079  45.7537579 135.9101906
 102.1464336  45.4687680 136.7782377  97.1361383  47.7231991 132.7878262
  96.5726248  47.6321928 132.0194550  97.0213778  46.9031896 133.2680755
  94.6825815  49.2183183 135.6262483  95.4747107  48.8774007 135.2108782
  94.9222465  49.3278158 136.5464636 102.7160942  51.3902959 128.0992727
 102.0648922  51.9757039 127.7126741 103.5105305  51.9209154 128.1587765
  96.6416569  48.4792096 128.4979862  97.4147445  47.9321083 128.3592737
  96.9941968  49.3436345 128.7094323  98.4801612  49.8068478 141.7046761
  98.1891478  50.7114109 141.5893427  99.1158596  49.8485006 142.4190830
  99.4057819  47.1845327 138.2948121 100.0021391  46.9601349 137.5805083
  99.4632790  46.4430072 138.8973568  98.9782847  44.6384762 126.1298311
  99.2308368  44.1166283 125.3681774  98.0407406  44.4750908 126.2324995
 104.0226130  43.6420540 133.9373055 104.8089219  43.2239964 133.5863472
 104.2864834  44.5466633 134.1054703 104.1936207  49.0793391 128.6361712
 103.5582040  49.1528017 129.3482616 103.8633614  49.6686990 127.9580791
  98.6979136  46.5412868 128.3322686  98.5815394  45.8657771 129.0003771
  98.8081396  46.0545242 127.5154839 101.0410677  46.0023015 132.0369376
 100.6768884  45.4753636 132.7482297 101.8977793  45.6121484 131.8635861
 100.6816164  41.0312915 127.0330724 100.8490566  41.8993151 127.4001195
 100.4913333  41.1940197 126.1092013 103.4391497  49.4929894 138.6996555
 103.1392220  50.3954933 138.5912362 103.0942556  49.2262077 139.5517707
  96.8903978  45.9443691 134.7333259  95.9654475  45.8119905 134.9410951
  97.1388391  46.7237910 135.2303201 100.6605384  43.4870572 128.0177391
 100.5405010  43.9327623 128.8562871  99.9657973  43.8355890 127.4590929
  94.2512789  45.5876964 135.5677048  94.3805170  45.8411443 136.4816460
  93.5710241  46.1804672 135.2481703  98.4212277  56.2574214 131.6667522
  98.3436306  57.2082039 131.7456003  97.8173920  55.9120087 132.3242449
 106.3590451  43.9592046 128.8457725 107.2708307  44.1919432 128.6705423
 105.8500098  44.5429090 128.2832804 104.9660033  48.9417864 136.2371307
 104.3368895  49.1063578 135.5347374 104.5785695  49.3559474 137.0082271
 108.8449265  49.8772302 133.5915670 108.1600303  50.2571203 133.0412704
 108.9293114  50.4867628 134.3247618 100.5187995  48.6792272 133.5021392
 100.9826340  48.9579975 132.7126014 100.2544793  47.7775717 133.3194482
  97.4112076  48.2263754 136.4401155  97.9813433  48.6551022 135.8018639
  98.0020188  47.9446338 137.1385341  99.4556881  44.8015424 130.3110957
 100.1580924  45.2536468 130.7784883  99.1237509  44.1599243 130.9390850
  93.1982215  43.0598977 135.6128090  92.4081269  43.3156506 135.1368201
  93.6893462  43.8747315 135.7180131  95.1496960  43.4243556 132.5711567
  94.3528123  43.5362251 133.0895063  94.9222552  43.7630209 131.7052458
 100.9802628  49.9488260 140.5194082 101.0447060  50.4108667 141.3552253
 100.2713552  49.3185624 140.6476392  91.4819918  43.3129468 138.0443081
  91.7327956  44.1976477 138.3100657  92.0179466  43.1334069 137.2718173
 100.6950645  51.6156367 130.3873062 100.5596320  52.4607903 130.8157910
 101.2360458  51.8175645 129.6238996  94.1480043  49.1331805 130.9600987
  94.6604563  49.9275055 131.1106552  94.8002756  48.4358096 130.8934589
  95.9574928  52.2497561 133.0423740  96.1341556  53.1715526 132.8544724
  96.7531761  51.9355981 133.4718120  95.2427284  44.2962193 142.9185903
  95.1280799  43.3947450 143.2193002  94.3871802  44.5425890 142.5670720
  97.0806243  53.7675735 139.0434083  97.6313668  53.6392798 138.2711077
  96.2417719  54.0670624 138.6928975 100.8773414  50.0326863 143.3878314
 101.4101751  49.2715151 143.1577622 100.3487495  49.7400515 144.1302468
  92.1128960  47.4620459 131.7360558  92.9504182  47.8717468 131.5194265
  92.2907227  46.5219902 131.7060751 104.0093392  45.1295540 127.4244391
 103.4940015  45.9000145 127.6632778 103.7370700  44.4560676 128.0477452
 101.5940503  39.9745241 132.4829629 100.7382099  39.5852091 132.3035268
 102.0067455  40.0537202 131.6229414  99.3682535  37.5930314 135.8887370
 100.2335532  37.3973122 135.5293260  99.4360044  37.3640666 136.8156727
 108.9827666  47.8827895 129.3597564 108.2057109  47.5439054 128.9152726
 109.6619147  47.8880518 128.6852529 103.7979695  43.0022632 129.2504172
 103.4929831  43.3168781 130.1014315 104.7510137  43.0804052 129.2931505
 102.2426127  49.1612855 130.8997126 101.7147488  48.4265615 130.5870363
 101.7413630  49.9387532 130.6537094 107.2218973  47.3561876 136.0164172
 106.5642647  48.0461137 136.1044301 108.0259372  47.7458308 136.3598158
  96.9744854  39.8232522 133.2603737  97.5488606  39.6007703 132.5276930
  97.5615837  39.8921216 134.0132339 106.0324432  45.7106249 134.0668114
 106.5456313  46.3436240 134.5689823 106.6825655  45.1107444 133.7011474
  97.3014441  41.8536983 127.2799623  96.4651754  42.1911669 127.6008897
  97.1619211  41.7185963 126.3426759  99.2767522  36.6973771 131.9878807
  98.6231934  36.3822788 131.3635421  99.2347996  36.0749511 132.7138630
 100.3878727  46.9793066 123.9032099  99.4805789  46.7482319 124.1023248
 100.8849759  46.1830685 124.0906080 103.2946806  55.6890573 126.8228785
 102.6208505  55.9922270 127.4313743 103.6812628  56.4919653 126.4734242
 102.5105262  43.1855704 136.3126454 101.5927824  43.4070651 136.1548142
 102.9265406  43.2602015 135.4538162 103.2940310  44.5847120 131.4429135
 104.0412129  45.0968517 131.1336257 103.5631900  44.2631173 132.3033528
 101.5666960  47.0805661 128.4256089 100.6578180  46.7964693 128.5228559
 101.5962044  47.5004739 127.5659396 106.7986228  50.6912250 132.1947256
 106.3448555  49.8503160 132.2512447 106.1680195  51.3273648 132.5322037
 105.7419147  41.6204236 133.4247924 105.0041904  41.1081622 133.7558166
 105.9945921  41.1804618 132.6131201 105.2419167  52.5288747 133.1297075
 105.5342141  53.0893804 132.4109440 105.7517788  52.8217308 133.8850234
  92.1355131  44.8011175 132.4071291  91.9379531  44.2080535 131.6822358
  91.5801795  44.4963385 133.1247230 100.1151854  44.6934281 134.5265884
 100.1700464  43.7408118 134.4508361  99.3043056  44.8493720 135.0107183
 101.2643048  48.6214404 125.7644167 100.8262478  47.9050263 125.3049805
 102.0053489  48.8490519 125.2029259  98.0544214  43.3111341 132.2856263
  97.2412080  43.6105511 132.6921455  98.5503209  42.9167030 133.0030745
 100.2052792  53.3069098 134.2190528 100.1628971  53.5329944 133.2899060
 101.1215491  53.0732472 134.3676329 109.3816163  46.8971601 131.8220486
 109.2434062  47.0873197 130.8941675 109.0252382  47.6590984 132.2788537
  97.5458289  40.8829696 137.9017498  98.1857668  40.7418456 137.2040461
  96.7135820  40.5964210 137.5256100  98.3218593  50.1832127 134.0152490
  99.1159192  49.6882447 133.8135065  97.6110285  49.6549990 133.6520196
 103.1413437  52.5650222 138.3664858 103.1950460  53.1341159 139.1342574
 102.2728219  52.7352107 138.0018895  94.6301356  44.3275209 130.0912243
  93.6998945  44.2659664 130.3082205  94.7258828  43.8051161 129.2948884
  94.5486906  40.8530021 132.6790485  94.8093723  41.7675355 132.5699645
  95.3704078  40.3854464 132.8287098  96.0211831  42.2667779 139.8489309
  96.6934884  42.0585141 139.2001958  95.1941617  42.0689865 139.4094542
 102.1001537  46.7310484 139.9251790 103.0293597  46.8821644 139.7520757
 101.6792567  46.8194505 139.0700436 100.8989869  50.7561149 137.6950328
 100.7600955  50.3879933 138.5676266 100.1104465  51.2708788 137.5234285
 101.4938021  55.8570245 129.0375864 101.6689777  55.3858288 129.8521487
 100.8070809  56.4836012 129.2657125 102.4495084  50.1342752 135.0839165
 102.1144917  50.0943522 135.9796815 101.9499030  49.4687467 134.6109576
  96.4239328  45.5410382 140.6091747  96.2859126  44.8090620 141.2103286
  97.3344252  45.4519282 140.3275934 105.3854276  47.4798786 125.3576225
 104.7683446  46.7545614 125.2609278 104.9170764  48.2408146 125.0143299
  99.0521629  45.2530341 140.0975426  99.7621247  44.6123533 140.0562045
  99.0090937  45.5043236 141.0201607  96.0599106  59.0059608 135.8115724
  96.2995704  59.6378132 136.4894743  95.2168303  58.6547648 136.0981084
  97.1752822  41.6984210 124.4797529  96.2982288  41.5773011 124.1159776
  97.6510575  40.9070288 124.2276418  88.6954962  46.4861370 134.5739036
  89.3826002  46.1723100 133.9860052  88.5403091  47.3902735 134.3006288
  93.4989684  41.3751566 139.0024060  93.4147873  40.7677236 138.2674470
  92.6772390  41.8660585 139.0033556 100.5726968  54.8138731 138.2157228
 100.4997140  55.6193702 138.7276533 100.1304361  55.0130696 137.3905250
 100.3616748  54.0510501 131.7260050  99.5784270  54.5932181 131.8198274
 101.0609493  54.5684480 132.1254291 103.6713398  39.8605130 134.3694255
 104.1682097  39.1075092 134.0495325 102.9000379  39.8969447 133.8037465
 103.0325652  54.7125565 140.3715387 103.7453624  55.3473029 140.2991288
 102.5415680  54.8089431 139.5555389 104.7543179  48.6176817 131.9432679
 103.8199457  48.7378280 131.7737383 104.9319847  47.7149284 131.6792688
 100.2548367  42.0022513 134.0965940  99.8846154  41.4493553 134.7846845
 100.7507459  41.3980646 133.5440940 108.1415730  44.4594136 132.4782713
 108.6076182  45.2922128 132.4043015 108.5923230  43.9939118 133.1827971
  98.0837565  52.4620008 141.1920958  98.7847025  53.0956491 141.3450352
  97.6132680  52.8034740 140.4316597 106.2091961  50.8037958 129.4768865
 106.4851805  50.6894552 130.3862739 105.3396460  50.4055443 129.4381038
 102.8446025  55.0524309 133.1201678 103.0268420  54.2345965 133.5829431
 103.6679011  55.2692001 132.6826568 103.1788191  53.9792494 130.3816727
 103.7075957  53.4684948 129.7686889 103.4416410  53.6635024 131.2462260
  93.6805283  51.9956363 138.1252060  94.2658720  51.2500051 138.2579965
  93.4830122  52.3060320 139.0088724  96.5343938  55.0307610 133.1414503
  95.8654314  55.5153738 132.6578543  96.3956808  55.2776831 134.0557881
  88.2722938  44.5661963 136.8456504  88.3107037  44.0325554 137.6393622
  87.7663231  44.0397169 136.2267481 100.6749207  57.0651354 139.7397161
 101.2267515  57.2282975 140.5046246 101.0155401  57.6555792 139.0677186
  95.6513700  39.4126504 140.3419046  95.7155027  40.2741335 139.9296444
  95.5880821  38.8000505 139.6091404  91.9031516  43.2926065 129.9210435
  92.1984957  42.3836744 129.8677489  91.0019551  43.2713805 129.5991437
 103.8117594  55.0133329 136.7260843 103.6868734  54.2123069 136.2171789
 104.4696685  55.5079523 136.2374813  95.4325763  41.3682062 135.9037984
  94.7112348  41.9818030 135.7645457  96.2219018  41.9039827 135.8254629
 105.8752503  52.8142350 138.3540393 104.9282838  52.6947701 138.2818720
 106.2235276  51.9264848 138.4366655  93.6319357  40.9740163 130.0449760
  93.3032063  40.0937542 129.8624866  93.9858728  40.9187832 130.9326149
 102.8798936  52.6095066 134.5544746 102.7323898  51.6811773 134.7352316
 103.7052430  52.6315157 134.0701821  96.7461180  41.2613133 130.4125238
  97.0857253  41.7899054 129.6903846  97.1933301  41.5993539 131.1883804
 106.4833058  53.4323625 135.6409618 107.4079605  53.2266486 135.5034070
 106.3148361  53.1840026 136.5498960  98.7329327  39.7587754 128.6118531
  99.4537690  40.1369007 128.1082247  98.1094632  40.4776631 128.7153508
 102.8760450  40.4632903 129.5476863 103.0924065  41.3457541 129.2465691
 102.3954517  40.0719117 128.8182505  97.6159672  43.4218617 136.1247607
  97.4704252  43.7358920 137.0171889  97.1384875  44.0403517 135.5718506
  99.4756055  40.4121165 136.1728497  99.4617623  39.5162258 135.8360795
 100.1928483  40.4191828 136.8066783 106.2728374  53.9509292 130.9971710
 106.4465252  53.3855714 130.2445562 106.7657265  54.7510187 130.8151200
  92.0905334  45.9623961 139.0635269  91.5458802  46.7383769 139.1955543
  92.9684684  46.3094766 138.9054390  98.8792951  39.2935545 131.4416067
  99.0008862  38.3652191 131.6406955  98.5894993  39.3074231 130.5294383
 101.7484141  36.9790455 134.5782787 101.7705838  37.0429788 133.6234767
 102.1652200  36.1394964 134.7723293 112.1267765  46.7145715 132.6162010
 112.5698911  45.9653040 132.2181133 111.2494276  46.7055851 132.2335742
 107.2603547  53.2676056 128.0968608 107.9554451  53.8882749 128.3155923
 107.6026697  52.4171408 128.3720986  92.8771356  45.0893857 141.9565426
  92.1353092  45.2376493 142.5430056  92.5564100  45.3502123 141.0932175
 109.1594970  50.7175762 129.6255939 109.6846294  51.0563035 128.9005259
 109.0717322  49.7822777 129.4419074 100.8215018  54.6309836 141.7545816
 101.1302145  54.3858982 142.6268515 101.6190500  54.8356474 141.2664686
 100.8435630  56.7847745 133.9851192 100.4040621  56.2924124 134.6784049
 101.5943747  56.2420713 133.7443267  93.3227969  52.9759286 133.9875820
  94.1485989  52.6763058 133.6074464  92.9722021  52.2066908 134.4365609
  98.2909503  52.3285754 136.0573494  97.6689512  51.6656459 135.7575722
  98.9614369  52.3546886 135.3747142  91.5236574  50.8945613 134.9464754
  90.6868483  50.4667787 134.7648755  91.4960220  51.0878056 135.8835545
  97.8523009  50.8789678 129.5331954  98.0011130  51.5625142 128.8798627
  98.6589453  50.8594768 130.0481410  95.6075642  46.9054855 130.5393023
  95.3621684  46.0017185 130.7373233  95.7771557  46.9072006 129.5972501
  94.8771290  42.6383213 128.0379185  94.1840535  42.7127568 127.3819221
  94.6323042  41.8743556 128.5600702 101.3518415  53.3737808 127.0043702
 100.7792382  53.9927995 126.5514174 101.9251209  53.9237170 127.5383624
 104.5715675  53.6574958 128.1352284 105.5046348  53.5920520 128.3385160
 104.4838888  54.4931225 127.6766817 107.2003691  52.9740829 125.0956232
 107.1217323  52.6400692 125.9891989 108.0213358  53.4662596 125.0947704
 101.7365214  44.7098621 124.3459754 102.6824318  44.5804829 124.4148172
 101.3579458  43.9713283 124.8229182  99.9208131  42.6348597 124.2814639
  99.0139586  42.3381710 124.3577353 100.1984112  42.3378415 123.4148926
  90.8386071  43.9554961 134.7313686  90.5188855  43.1020269 134.4388060
  90.2919499  44.1703539 135.4871653  94.6165979  46.6717402 138.4483192
  94.8351988  47.6034509 138.4671226  95.0291752  46.3125376 139.2337996
 101.5370196  37.1785487 130.4358881 100.7270925  36.8332572 130.8114127
 102.2254613  36.8693031 131.0246492 103.4660745  36.2563534 132.0583177
 104.0191783  36.6758987 132.7173200 103.7030831  35.3299282 132.1006133
  98.6906915  39.4935532 124.4226619  99.5526079  39.8190431 124.6822436
  98.8757259  38.7067028 123.9099684  90.7074331  47.5757872 136.7006807
  90.0137802  47.1611825 136.1876762  91.4547322  47.6178409 136.1040226
 106.8439552  38.3664059 131.5661842 106.2638221  39.0248863 131.1839894
 106.5775484  37.5441403 131.1549259  92.6211074  47.5076126 134.5772822
  92.5981762  47.6063813 133.6254705  92.9311710  48.3541277 134.8989988
  95.2798451  49.5652281 138.6919437  96.2341705  49.5336223 138.6249368
  95.0810975  49.1042905 139.5069663  95.8697834  48.1353397 141.2590234
  96.6890723  48.6297476 141.2825072  96.1434641  47.2185365 141.2307802
 105.6264430  40.5264149 130.6218190 104.7390285  40.8113800 130.4038385
 106.0418419  40.3657913 129.7745467  93.6348680  55.1071900 135.7089635
  93.5003148  54.3472301 135.1427633  93.2180743  55.8312800 135.2418423
 104.7707643  50.2908824 124.7166210 105.4743493  50.4958826 125.3323865
 104.0470292  50.8585586 124.9815293 105.6005454  46.0418685 130.8368480
 105.5440655  46.4987237 129.9976112 106.1533796  45.2809370 130.6591323
  96.7917806  56.0041217 135.9208077  96.6750190  56.9486650 135.8186767
  95.9710252  55.7014779 136.3093876 106.6794341  50.7291353 126.7664670
 107.5139945  50.2972552 126.5842145 106.5178684  50.5573367 127.6941564
 106.3340233  47.2323466 128.1321009 106.2789037  47.0667738 127.1909453
 105.7086288  47.9399499 128.2883199  91.1232748  42.4691531 141.9582431
  91.7691611  41.9590485 142.4469657  90.9149899  43.2060212 142.5325857
  99.6436358  36.7331575 127.7106328  99.6315028  37.6773415 127.8674598
 100.5359780  36.5501721 127.4165789  97.8172320  56.6569479 139.1364006
  98.7199567  56.6893090 139.4530501  97.5909690  55.7269930 139.1510341
  99.5725922  55.4100466 135.7974084  98.6221553  55.4102327 135.6838457
  99.8758408  54.6633200 135.2810119 115.3078616  61.2461004 136.8619847
 115.9457026  61.1267752 136.1583187 115.1899459  62.1941848 136.9207799
 112.1168322  61.1988432 136.7981371 111.7786834  61.0829497 135.9101906
 112.9858090  60.7979597 136.7782377 107.9755138  63.0523909 132.7878262
 107.4120003  62.9613846 132.0194550 107.8607533  62.2323813 133.2680755
 105.5219570  64.5475100 135.6262483 106.3140862  64.2065925 135.2108782
 105.7616220  64.6570075 136.5464636 113.5554696  66.7194876 128.0992727
 112.9042676  67.3048957 127.7126741 114.3499059  67.2501071 128.1587765
 107.4810324  63.8084014 128.4979862 108.2541200  63.2613001 128.3592737
 107.8335722  64.6728263 128.7094323 110.2451573  62.5137244 138.2948121
 110.8415145  62.2893267 137.5805083 110.3026545  61.7721990 138.8973568
 109.8176601  59.9676680 126.1298311 110.0702122  59.4458201 125.3681774
 108.8801161  59.8042825 126.2324995 114.8619884  58.9712458 133.9373055
 115.6482973  58.5531881 133.5863472 115.1258589  59.8758550 134.1054703
 115.0329962  64.4085308 128.6361712 114.3975795  64.4819935 129.3482616
 114.7027368  64.9978907 127.9580791 109.5372890  61.8704786 128.3322686
 109.4209148  61.1949689 129.0003771 109.6475150  61.3837160 127.5154839
 111.8804431  61.3314933 132.0369376 111.5162638  60.8045554 132.7482297
 112.7371547  60.9413402 131.8635861 111.5209918  56.3604832 127.0330724
 111.6884320  57.2285069 127.4001195 111.3307087  56.5232114 126.1092013
 107.7297733  61.2735608 134.7333259 106.8048229  61.1411822 134.9410951
 107.9782146  62.0529827 135.2303201 111.4999139  58.8162490 128.0177391
 111.3798764  59.2619541 128.8562871 110.8051727  59.1647808 127.4590929
 105.0906544  60.9168882 135.5677048 105.2198925  61.1703361 136.4816460
 104.4103995  61.5096590 135.2481703 109.2606031  71.5866132 131.6667522
 109.1830061  72.5373957 131.7456003 108.6567675  71.2412004 132.3242449
 117.1984205  59.2883963 128.8457725 118.1102061  59.5211350 128.6705423
 116.6893852  59.8721007 128.2832804 111.3581749  64.0084190 133.5021392
 111.8220095  64.2871893 132.7126014 111.0938547  63.1067634 133.3194482
 108.2505830  63.5555671 136.4401155 108.8207187  63.9842940 135.8018639
 108.8413942  63.2738256 137.1385341 110.2950635  60.1307342 130.3110957
 110.9974679  60.5828386 130.7784883 109.9631264  59.4891161 130.9390850
 104.0375969  58.3890895 135.6128090 103.2475023  58.6448423 135.1368201
 104.5287217  59.2039233 135.7180131 105.9890715  58.7535474 132.5711567
 105.1921878  58.8654168 133.0895063 105.7616307  59.0922126 131.7052458
 102.3213672  58.6421385 138.0443081 102.5721711  59.5268395 138.3100657
 102.8573221  58.4625987 137.2718173 111.5344400  66.9448285 130.3873062
 111.3990075  67.7899820 130.8157910 112.0754212  67.1467562 129.6238996
 104.9873797  64.4623723 130.9600987 105.4998318  65.2566973 131.1106552
 105.6396510  63.7650013 130.8934589 106.7968682  67.5789479 133.0423740
 106.9735310  68.5007444 132.8544724 107.5925516  67.2647898 133.4718120
 106.0821039  59.6254111 142.9185903 105.9674554  58.7239368 143.2193002
 105.2265556  59.8717808 142.5670720 102.9522714  62.7912377 131.7360558
 103.7897936  63.2009385 131.5194265 103.1300982  61.8511819 131.7060751
 114.8487146  60.4587458 127.4244391 114.3333770  61.2292062 127.6632778
 114.5764455  59.7852594 128.0477452 112.4334257  55.3037158 132.4829629
 111.5775854  54.9144009 132.3035268 112.8461209  55.3829119 131.6229414
 110.2076290  52.9222231 135.8887370 111.0729287  52.7265040 135.5293260
 110.2753799  52.6932583 136.8156727 119.8221420  63.2119812 129.3597564
 119.0450863  62.8730972 128.9152726 120.5012901  63.2172436 128.6852529
 114.6373449  58.3314550 129.2504172 114.3323585  58.6460699 130.1014315
 115.5903892  58.4095970 129.2931505 113.0819881  64.4904773 130.8997126
 112.5541243  63.7557533 130.5870363 112.5807384  65.2679449 130.6537094
 107.8138609  55.1524439 133.2603737 108.3882361  54.9299621 132.5276930
 108.4009591  55.2213134 134.0132339 116.8718186  61.0398166 134.0668114
 117.3850068  61.6728158 134.5689823 117.5219410  60.4399362 133.7011474
 108.1408196  57.1828900 127.2799623 107.3045508  57.5203587 127.6008897
 108.0012966  57.0477880 126.3426759 110.1161277  52.0265688 131.9878807
 109.4625689  51.7114705 131.3635421 110.0741751  51.4041429 132.7138630
 111.2272481  62.3084983 123.9032099 110.3199543  62.0774237 124.1023248
 111.7243513  61.5122603 124.0906080 114.1340560  71.0182491 126.8228785
 113.4602259  71.3214187 127.4313743 114.5206382  71.8211571 126.4734242
 113.3499017  58.5147622 136.3126454 112.4321578  58.7362569 136.1548142
 113.7659161  58.5893932 135.4538162 114.1334065  59.9139038 131.4429135
 114.8805884  60.4260435 131.1336257 114.4025654  59.5923090 132.3033528
 112.4060715  62.4097578 128.4256089 111.4971934  62.1256611 128.5228559
 112.4355799  62.8296657 127.5659396 117.6379982  66.0204168 132.1947256
 117.1842309  65.1795078 132.2512447 117.0073949  66.6565566 132.5322037
 116.5812902  56.9496154 133.4247924 115.8435659  56.4373540 133.7558166
 116.8339675  56.5096535 132.6131201 116.0812922  67.8580664 133.1297075
 116.3735896  68.4185722 132.4109440 116.5911542  68.1509225 133.8850234
 102.9748885  60.1303092 132.4071291 102.7773285  59.5372453 131.6822358
 102.4195549  59.8255303 133.1247230 110.9545609  60.0226199 134.5265884
 111.0094219  59.0700035 134.4508361 110.1436811  60.1785638 135.0107183
 112.1036803  63.9506322 125.7644167 111.6656233  63.2342181 125.3049805
 112.8447244  64.1782437 125.2029259 108.8937969  58.6403259 132.2856263
 108.0805834  58.9397429 132.6921455 109.3896963  58.2458947 133.0030745
 111.0446547  68.6361016 134.2190528 111.0022726  68.8621862 133.2899060
 111.9609246  68.4024390 134.3676329 120.2209917  62.2263519 131.8220486
 120.0827816  62.4165115 130.8941675 119.8646136  62.9882902 132.2788537
 108.3852044  56.2121614 137.9017498 109.0251423  56.0710373 137.2040461
 107.5529574  55.9256127 137.5256100 109.1612348  65.5124045 134.0152490
 109.9552946  65.0174365 133.8135065 108.4504040  64.9841908 133.6520196
 105.4695111  59.6567126 130.0912243 104.5392699  59.5951582 130.3082205
 105.5652583  59.1343079 129.2948884 105.3880660  56.1821939 132.6790485
 105.6487477  57.0967272 132.5699645 106.2097832  55.7146382 132.8287098
 106.8605585  57.5959696 139.8489309 107.5328639  57.3877058 139.2001958
 106.0335372  57.3981782 139.4094542 112.3331775  71.1862163 129.0375864
 112.5083531  70.7150206 129.8521487 111.6464564  71.8127929 129.2657125
 113.2888839  65.4634669 135.0839165 112.9538671  65.4235439 135.9796815
 112.7892784  64.7979385 134.6109576 107.2633083  60.8702299 140.6091747
 107.1252881  60.1382538 141.2103286 108.1738006  60.7811199 140.3275934
 116.2248030  62.8090704 125.3576225 115.6077201  62.0837532 125.2609278
 115.7564519  63.5700064 125.0143299 109.8915383  60.5822259 140.0975426
 110.6015002  59.9415451 140.0562045 109.8484691  60.8335153 141.0201607
 108.0146576  57.0276128 124.4797529 107.1376043  56.9064929 124.1159776
 108.4904329  56.2362206 124.2276418  99.5348716  61.8153288 134.5739036
 100.2219756  61.5015018 133.9860052  99.3796845  62.7194652 134.3006288
 104.3383438  56.7043484 139.0024060 104.2541627  56.0969154 138.2674470
 103.5166145  57.1952502 139.0033556 111.2010502  69.3802418 131.7260050
 110.4178024  69.9224098 131.8198274 111.9003247  69.8976398 132.1254291
 114.5107152  55.1897048 134.3694255 115.0075852  54.4367010 134.0495325
 113.7394134  55.2261364 133.8037465 115.5936933  63.9468735 131.9432679
 114.6593212  64.0670197 131.7737383 115.7713602  63.0441202 131.6792688
 111.0942121  57.3314431 134.0965940 110.7239909  56.7785471 134.7846845
 111.5901214  56.7272564 133.5440940 118.9809484  59.7886054 132.4782713
 119.4469937  60.6214046 132.4043015 119.4316985  59.3231036 133.1827971
 117.0485716  66.1329875 129.4768865 117.3245559  66.0186470 130.3862739
 116.1790214  65.7347360 129.4381038 113.6839780  70.3816226 133.1201678
 113.8662174  69.5637882 133.5829431 114.5072766  70.5983919 132.6826568
 114.0181945  69.3084411 130.3816727 114.5469711  68.7976866 129.7686889
 114.2810165  68.9926942 131.2462260 104.5199038  67.3248281 138.1252060
 105.1052475  66.5791969 138.2579965 104.3223876  67.6352237 139.0088724
 107.3737693  70.3599528 133.1414503 106.7048068  70.8445656 132.6578543
 107.2350563  70.6068749 134.0557881  99.1116692  59.8953881 136.8456504
  99.1500792  59.3617472 137.6393622  98.6056985  59.3689086 136.2267481
 106.4907455  54.7418421 140.3419046 106.5548781  55.6033252 139.9296444
 106.4274575  54.1292423 139.6091404 102.7425270  58.6217983 129.9210435
 103.0378711  57.7128662 129.8677489 101.8413306  58.6005723 129.5991437
 106.2719517  56.6973980 135.9037984 105.5506103  57.3109947 135.7645457
 107.0612773  57.2331744 135.8254629 104.4713112  56.3032081 130.0449760
 104.1425818  55.4229460 129.8624866 104.8252482  56.2479749 130.9326149
 113.7192691  67.9386983 134.5544746 113.5717653  67.0103691 134.7352316
 114.5446184  67.9607074 134.0701821 107.5854935  56.5905051 130.4125238
 107.9251007  57.1190972 129.6903846 108.0327055  56.9285457 131.1883804
 109.5723082  55.0879672 128.6118531 110.2931444  55.4660925 128.1082247
 108.9488386  55.8068549 128.7153508 113.7154205  55.7924821 129.5476863
 113.9317819  56.6749459 129.2465691 113.2348272  55.4011035 128.8182505
 108.4553426  58.7510534 136.1247607 108.3098007  59.0650837 137.0171889
 107.9778630  59.3695435 135.5718506 110.3149809  55.7413082 136.1728497
 110.3011378  54.8454176 135.8360795 111.0322237  55.7483746 136.8066783
 117.1122129  69.2801210 130.9971710 117.2859006  68.7147632 130.2445562
 117.6051020  70.0802105 130.8151200 102.9299088  61.2915879 139.0635269
 102.3852556  62.0675687 139.1955543 103.8078438  61.6386683 138.9054390
 109.7186705  54.6227463 131.4416067 109.8402616  53.6944109 131.6406955
 109.4288747  54.6366149 130.5294383 112.5877895  52.3082373 134.5782787
 112.6099592  52.3721706 133.6234767 113.0045954  51.4686882 134.7723293
 122.9661520  62.0437633 132.6162010 123.4092666  61.2944958 132.2181133
 122.0888030  62.0347769 132.2335742 118.0997301  68.5967974 128.0968608
 118.7948206  69.2174667 128.3155923 118.4420451  67.7463325 128.3720986
 103.7165110  60.4185775 141.9565426 102.9746846  60.5668410 142.5430056
 103.3957855  60.6794041 141.0932175 119.9988724  66.0467680 129.6255939
 120.5240048  66.3854952 128.9005259 119.9111077  65.1114695 129.4419074
 104.1621724  68.3051204 133.9875820 104.9879744  68.0054976 133.6074464
 103.8115776  67.5358826 134.4365609 109.1303257  67.6577672 136.0573494
 108.5083266  66.9948377 135.7575722 109.8008124  67.6838804 135.3747142
 102.3630329  66.2237530 134.9464754 101.5262237  65.7959705 134.7648755
 102.3353974  66.4169974 135.8835545 108.6916764  66.2081595 129.5331954
 108.8404884  66.8917060 128.8798627 109.4983207  66.1886685 130.0481410
 106.4469397  62.2346773 130.5393023 106.2015439  61.3309103 130.7373233
 106.6165312  62.2363923 129.5972501 105.7165044  57.9675131 128.0379185
 105.0234289  58.0419485 127.3819221 105.4716796  57.2035474 128.5600702
 112.1912170  68.7029726 127.0043702 111.6186137  69.3219913 126.5514174
 112.7644963  69.2529087 127.5383624 115.4109429  68.9866876 128.1352284
 116.3440102  68.9212438 128.3385160 115.3232642  69.8223143 127.6766817
 118.0397446  68.3032746 125.0956232 117.9611077  67.9692610 125.9891989
 118.8607113  68.7954514 125.0947704 112.5758968  60.0390539 124.3459754
 113.5218073  59.9096747 124.4148172 112.1973213  59.3005200 124.8229182
 110.7601885  57.9640515 124.2814639 109.8533341  57.6673628 124.3577353
 111.0377866  57.6670333 123.4148926 101.6779826  59.2846878 134.7313686
 101.3582610  58.4312186 134.4388060 101.1313254  59.4995456 135.4871653
 105.4559733  62.0009319 138.4483192 105.6745743  62.9326427 138.4671226
 105.8685507  61.6417294 139.2337996 112.3763951  52.5077405 130.4358881
 111.5664679  52.1624490 130.8114127 113.0648368  52.1984948 131.0246492
 114.3054499  51.5855451 132.0583177 114.8585538  52.0050905 132.7173200
 114.5424586  50.6591200 132.1006133 109.5300670  54.8227450 124.4226619
 110.3919834  55.1482348 124.6822436 109.7151014  54.0358946 123.9099684
 101.5468086  62.9049790 136.7006807 100.8531557  62.4903743 136.1876762
 102.2941077  62.9470326 136.1040226 117.6833306  53.6955977 131.5661842
 117.1031975  54.3540781 131.1839894 117.4169239  52.8733321 131.1549259
 103.4604828  62.8368044 134.5772822 103.4375516  62.9355731 133.6254705
 103.7705465  63.6833194 134.8989988 106.1192206  64.8944199 138.6919437
 107.0735459  64.8628141 138.6249368 105.9204730  64.4334822 139.5069663
 116.4658184  55.8556067 130.6218190 115.5784039  56.1405718 130.4038385
 116.8812173  55.6949830 129.7745467 104.4742435  70.4363818 135.7089635
 104.3396903  69.6764219 135.1427633 104.0574497  71.1604718 135.2418423
 115.6101398  65.6200742 124.7166210 116.3137248  65.8250744 125.3323865
 114.8864047  66.1877504 124.9815293 116.4399208  61.3710603 130.8368480
 116.3834409  61.8279154 129.9976112 116.9927550  60.6101287 130.6591323
 117.5188095  66.0583271 126.7664670 118.3533699  65.6264469 126.5842145
 117.3572438  65.8865285 127.6941564 117.1733987  62.5615384 128.1321009
 117.1182791  62.3959656 127.1909453 116.5480043  63.2691417 128.2883199
 101.9626502  57.7983449 141.9582431 102.6085366  57.2882402 142.4469657
 101.7543653  58.5352130 142.5325857 110.4830113  52.0623493 127.7106328
 110.4708783  53.0065333 127.8674598 111.3753535  51.8793639 127.4165789
 120.6570356  75.2968597 126.1298311 120.9095877  74.7750119 125.3681774
 119.7194915  75.1334743 126.2324995 122.3603673  71.6896750 127.0330724
 122.5278075  72.5576987 127.4001195 122.1700842  71.8524032 126.1092013
 118.9801950  72.5120818 127.2799623 118.1439263  72.8495505 127.6008897
 118.8406720  72.3769798 126.3426759 120.9555031  67.3557606 131.9878807
 120.3019443  67.0406623 131.3635421 120.9135505  66.7333346 132.7138630
 122.0666236  77.6376901 123.9032099 121.1593298  77.4066154 124.1023248
 122.5637268  76.8414520 124.0906080 116.3088865  74.9859044 130.0912243
 115.3786454  74.9243499 130.3082205 116.4046337  74.4634997 129.2948884
 118.8540331  72.3568046 124.4797529 117.9769797  72.2356846 124.1159776
 119.3298084  71.5654124 124.2276418 113.5819025  73.9509901 129.9210435
 113.8772466  73.0420579 129.8677489 112.6807060  73.9297640 129.5991437
 115.3106866  71.6323998 130.0449760 114.9819572  70.7521377 129.8624866
 115.6646237  71.5771667 130.9326149 120.4116836  70.4171590 128.6118531
 121.1325199  70.7952843 128.1082247 119.7882141  71.1360467 128.7153508
 120.5580460  69.9519380 131.4416067 120.6796371  69.0236026 131.6406955
 120.2682502  69.9658066 130.5294383 116.5558799  73.2967048 128.0379185
 115.8628044  73.3711403 127.3819221 116.3110551  72.5327392 128.5600702
 123.4152722  75.3682456 124.3459754 124.3611827  75.2388664 124.4148172
 123.0366967  74.6297118 124.8229182 121.5995640  73.2932433 124.2814639
 120.6927095  72.9965545 124.3577353 121.8771621  72.9962251 123.4148926
 123.2157705  67.8369322 130.4358881 122.4058434  67.4916407 130.8114127
 123.9042122  67.5276866 131.0246492 120.3694424  70.1519368 124.4226619
 121.2313588  70.4774266 124.6822436 120.5544768  69.3650864 123.9099684
 121.3223867  67.3915411 127.7106328 121.3102537  68.3357251 127.8674598
 122.2147289  67.2085556 127.4165789  81.6159298   2.0368860 113.5474092
  80.9420997   2.3400557 114.1559049  82.0025120   2.8397940 113.1979549
  79.8150513   2.2048533 115.7621171  79.9902269   1.7336576 116.5766793
  79.1283301   2.8314299 115.9902431  93.6291108   7.5939291 123.5865153
  94.2669518   7.4746039 122.8828493  93.5111951   8.5420135 123.6453105
  90.4380814   7.5466720 123.5226678  90.0999326   7.4307784 122.6347213
  91.3070583   7.1457885 123.5027684  86.2967630   9.4002196 119.5123569
  85.7332495   9.3092133 118.7439857  86.1820025   8.5802100 119.9926061
  83.8432062  10.8953388 122.3507789  84.6353354  10.5544212 121.9354089
  84.0828712  11.0048363 123.2709943  91.8767189  13.0673164 114.8238034
  91.2255168  13.6527244 114.4372048  92.6711552  13.5979359 114.8833071
  85.8022816  10.1562301 115.2225168  86.5753692   9.6091288 115.0838044
  86.1548215  11.0206550 115.4339630  88.5664065   8.8615532 125.0193427
  89.1627638   8.6371554 124.3050390  88.6239037   8.1200277 125.6218875
  88.1389094   6.3154967 112.8543618  88.3914614   5.7936488 112.0927081
  87.2013653   6.1521112 112.9570302  93.3542454  10.7563596 115.3607018
  92.7188287  10.8298222 116.0727923  93.0239860  11.3457194 114.6826097
  87.8585382   8.2183073 115.0567993  87.7421641   7.5427976 115.7249077
  87.9687642   7.7315447 114.2400146  90.2016923   7.6793220 118.7614682
  89.8375131   7.1523841 119.4727604  91.0584039   7.2891689 118.5881168
  92.5997744  11.1700099 125.4241861  92.2998467  12.0725137 125.3157668
  92.2548803  10.9032282 126.2763014  86.0510225   7.6213895 121.4578566
  85.1260721   7.4890110 121.6656257  86.2994638   8.4008115 121.9548508
  89.8211631   5.1640777 114.7422698  89.7011256   5.6097828 115.5808178
  89.1264220   5.5126095 114.1836236  83.4119036   7.2647169 122.2922355
  83.5411417   7.5181648 123.2061766  82.7316487   7.8574877 121.9727010
  87.5818523  17.9344419 118.3912829  87.5042553  18.8852244 118.4701309
  86.9780167  17.5890291 119.0487755  94.1266280  10.6188069 122.9616613
  93.4975142  10.7833783 122.2592681  93.7391942  11.0329678 123.7327577
  98.0055512  11.5542507 120.3160977  97.3206550  11.9341408 119.7658010
  98.0899361  12.1637833 121.0492925  89.6794242  10.3562477 120.2266698
  90.1432587  10.6350180 119.4371321  89.4151040   9.4545922 120.0439789
  86.5718323   9.9033958 123.1646462  87.1419680  10.3321227 122.5263946
  87.1626434   9.6216543 123.8630647  88.6163128   6.4785629 117.0356263
  89.3187171   6.9306673 117.5030190  88.2843756   5.8369448 117.6636157
  84.3103207   5.1013761 119.2956874  83.5134370   5.2132455 119.8140369
  84.0828799   5.4400413 118.4297764  90.1408875  11.6258464 127.2439388
  90.2053307  12.0878872 128.0797560  89.4319798  10.9955829 127.3721698
  89.8556892  13.2926572 117.1118369  89.7202567  14.1378108 117.5403216
  90.3966705  13.4945850 116.3484302  83.3086290  10.8102010 117.6846294
  83.8210810  11.6045260 117.8351858  83.9609002  10.1128300 117.6179895
  85.1181174  13.9267766 119.7669047  85.2947803  14.8485731 119.5790031
  85.9138008  13.6126185 120.1963427  86.2412490  15.4445940 125.7679389
  86.7919915  15.3163003 124.9956383  85.4023966  15.7440829 125.4174282
  81.2735206   9.1390664 118.4605864  82.1110428   9.5487673 118.2439572
  81.4513474   8.1990106 118.4306058  93.1699639   6.8065745 114.1489697
  92.6546262   7.5770350 114.3878085  92.8976947   6.1330881 114.7722759
  98.1433913   9.5598100 116.0842871  97.3663355   9.2209259 115.6398033
  98.8225394   9.5650723 115.4097836  91.4032374  10.8383060 117.6242432
  90.8753735  10.1035820 117.3115670  90.9019876  11.6157737 117.3782401
  96.3825220   9.0332081 122.7409479  95.7248894   9.7231342 122.8289607
  97.1865619   9.4228513 123.0843465  95.1930678   7.3876454 120.7913420
  95.7062560   8.0206445 121.2935130  95.8431902   6.7877649 120.4256780
  86.4620688   3.5307188 114.0044929  85.6258001   3.8681874 114.3254204
  86.3225458   3.3956167 113.0672066  89.5484974   8.6563271 110.6277405
  88.6412035   8.4252524 110.8268554  90.0456006   7.8600890 110.8151387
  92.4553053  17.3660778 113.5474092  91.7814751  17.6692475 114.1559049
  92.8418875  18.1689858 113.1979549  91.6711509   4.8625909 123.0371761
  90.7534071   5.0840856 122.8793449  92.0871653   4.9372220 122.1783468
  92.4546557   6.2617325 118.1674441  93.2018376   6.7738722 117.8581563
  92.7238147   5.9401377 119.0278835  90.7273207   8.7575865 115.1501395
  89.8184426   8.4734898 115.2473865  90.7568291   9.1774944 114.2904702
  95.9592475  12.3682455 118.9192563  95.5054802  11.5273365 118.9757754
  95.3286441  13.0043853 119.2567343  94.4025414  14.2058952 119.8542381
  94.6948388  14.7664009 119.1354747  94.9124034  14.4987513 120.6095540
  81.2961378   6.4781380 119.1316598  81.0985777   5.8850740 118.4067664
  80.7408042   6.1733590 119.8492536  89.2758101   6.3704486 121.2511191
  89.3306711   5.4178322 121.1753667  88.4649303   6.5263925 121.7352489
  90.4249295  10.2984609 112.4889474  89.9868725   9.5820468 112.0295111
  91.1659736  10.5260724 111.9274565  87.2150461   4.9881546 119.0101570
  86.4018327   5.2875716 119.4166762  87.7109455   4.5937235 119.7276052
  89.3659039  14.9839303 120.9435834  89.3235218  15.2100149 120.0144366
  90.2821738  14.7502677 121.0921636  98.5422410   8.5741806 118.5465793
  98.4040308   8.7643402 117.6186982  98.1858629   9.3361189 119.0033844
  87.4824840  11.8602332 120.7397797  88.2765438  11.3652652 120.5380372
  86.7716532  11.3320195 120.3765503  92.3019684  14.2420427 125.0910165
  92.3556707  14.8111364 125.8587881  91.4334466  14.4122312 124.7264202
  83.7907603   6.0045414 116.8157550  82.8605191   5.9429869 117.0327512
  83.8865075   5.4821366 116.0194191  83.7093152   2.5300226 119.4035791
  83.9699970   3.4445560 119.2944952  84.5310325   2.0624669 119.5532404
  91.2607784   8.4080689 126.6497097  92.1899844   8.5591849 126.4766064
  90.8398814   8.4964710 125.7945743  90.0596116  12.4331354 124.4195634
  89.9207201  12.0650138 125.2921572  89.2710712  12.9478993 124.2479592
  90.6544268  17.5340450 115.7621171  90.8296023  17.0628493 116.5766793
  89.9677056  18.1606216 115.9902431  91.6101331  11.8112956 121.8084472
  91.2751164  11.7713726 122.7042122  91.1105277  11.1457672 121.3354882
  94.5460523   9.1568991 112.0821532  93.9289693   8.4315819 111.9854584
  94.0777011   9.9178351 111.7388606  85.2205353  20.6829813 122.5361031
  85.4601951  21.3148337 123.2140049  84.3774550  20.3317853 122.8226390
  86.3359068   3.3754415 111.2042836  85.4588535   3.2543216 110.8405083
  86.8116822   2.5840493 110.9521725  77.8561209   8.1631575 121.2984343
  78.5432248   7.8493305 120.7105358  77.7009337   9.0672939 121.0251594
  89.7333215  16.4908935 124.9402535  89.6603386  17.2963907 125.4521839
  89.2910608  16.6900901 124.1150556  89.5222995  15.7280705 118.4505356
  88.7390516  16.2702386 118.5443581  90.2215740  16.2454685 118.8499598
  92.1931898  16.3895769 127.0960694  92.9059871  17.0243234 127.0236595
  91.7021927  16.4859635 126.2800695  93.9149425  10.2947022 118.6677985
  92.9805704  10.4148485 118.4982690  94.0926094   9.3919489 118.4037995
  87.2443812  14.1390213 127.9166264  87.9453271  14.7726696 128.0695659
  86.7738927  14.4804944 127.1561904  95.3698208  12.4808163 116.2014171
  95.6458052  12.3664757 117.1108045  94.5002707  12.0825648 116.1626344
  92.0052272  16.7294514 119.8446985  92.1874666  15.9116169 120.3074737
  92.8285258  16.9462206 119.4071875  92.3394437  15.6562699 117.1062033
  92.8682204  15.1455153 116.4932196  92.6022657  15.3405229 117.9707567
  82.8411530  13.6726568 124.8497367  83.4264967  12.9270256 124.9825271
  82.6436368  13.9830525 125.7334031  85.6950185  16.7077815 119.8659809
  85.0260561  17.1923943 119.3823849  85.5563055  16.9547036 120.7803188
  89.8355454  18.7421559 126.4642468  90.3873762  18.9053180 127.2291553
  90.1761647  19.3325997 125.7922493  81.0637762   4.9696270 116.6455742
  81.3591203   4.0606949 116.5922795  80.1625798   4.9484010 116.3236744
  92.9723841  16.6903534 123.4506150  92.8474981  15.8893274 122.9417095
  93.6302932  17.1849728 122.9620120  95.0358749  14.4912554 125.0785700
  94.0889085  14.3717906 125.0064027  95.3841523  13.6035053 125.1611961
  82.7925604   2.6510368 116.7695067  82.4638310   1.7707747 116.5870173
  83.1464975   2.5958037 117.6571456  92.0405183  14.2865271 121.2790052
  91.8930145  13.3581978 121.4597622  92.8658676  14.3085361 120.7947128
  85.9067427   2.9383338 117.1370544  86.2463500   3.4669259 116.4149153
  86.3539548   3.2763744 117.9129111  95.6439305  15.1093829 122.3654925
  96.5685852  14.9036691 122.2279376  95.4754608  14.8610231 123.2744267
  95.4334621  15.6279497 117.7217016  95.6071498  15.0625919 116.9690869
  95.9263512  16.4280392 117.5396506  96.4209793  14.9446261 114.8213915
  97.1160698  15.5652954 115.0401229  96.7632943  14.0941613 115.0966293
  98.3201216  12.3945967 116.3501246  98.8452541  12.7333240 115.6250566
  98.2323569  11.4592982 116.1664380  89.9821265  16.3080040 128.4791122
  90.2908392  16.0629187 129.3513822  90.7796747  16.5126679 127.9909992
  90.0041877  18.4617950 120.7096499  89.5646867  17.9694329 121.4029355
  90.7549994  17.9190918 120.4688574  82.4834216  14.6529491 120.7121127
  83.3092236  14.3533263 120.3319770  82.1328268  13.8837113 121.1610915
  87.4515749  14.0055959 122.7818800  86.8295759  13.3426664 122.4821028
  88.1220616  14.0317091 122.0992448  80.6842821  12.5715817 121.6710060
  79.8474730  12.1437992 121.4894062  80.6566467  12.7648261 122.6080852
  87.0129256  12.5559883 116.2577261  87.1617377  13.2395347 115.6043934
  87.8195700  12.5364973 116.7726717  84.7681889   8.5825060 117.2638330
  84.5227931   7.6787390 117.4618540  84.9377804   8.5842211 116.3217808
  84.0377537   4.3153418 114.7624491  83.3446782   4.3897773 114.1064527
  83.7929289   3.5513761 115.2846008  90.5124662  15.0508013 113.7289008
  89.9398629  15.6698200 113.2759480  91.0857455  15.6007375 114.2628930
  93.7321922  15.3345163 114.8597591  94.6652595  15.2690725 115.0630466
  93.6445134  16.1701430 114.4012123  96.3609938  14.6511033 111.8201538
  96.2823570  14.3170897 112.7137296  97.1819605  15.1432801 111.8193011
  90.8971460   6.3868826 111.0705061  91.8430565   6.2575034 111.1393479
  90.5185705   5.6483488 111.5474489  89.0814377   4.3118802 111.0059946
  88.1745833   4.0151915 111.0822660  89.3590358   4.0148620 110.1394232
  81.7817320   9.1846331 121.3018129  81.7588008   9.2834018 120.3500012
  82.0917957  10.0311482 121.6235295  82.7954927  16.7842105 122.4334941
  82.6609395  16.0242506 121.8672939  82.3786989  17.5083005 121.9663730
  93.9313890  11.9679029 111.4411517  94.6349740  12.1729031 112.0569172
  93.2076539  12.5355791 111.7060600  94.7611700   7.7188890 117.5613787
  94.7046902   8.1757442 116.7221419  95.3140043   6.9579575 117.3836629
  85.9524053  17.6811422 122.6453384  85.8356437  18.6256855 122.5432074
  85.1316499  17.3784984 123.0339183  95.8400587  12.4061558 113.4909977
  96.6746191  11.9742757 113.3087451  95.6784930  12.2343572 114.4186871
  95.4946480   8.9093671 114.8566316  95.4395283   8.7437943 113.9154760
  94.8692535   9.6169704 115.0128506  86.9778567  18.3339684 125.8609312
  87.8805814  18.3663295 126.1775807  86.7515937  17.4040135 125.8755648
  88.7332169  17.0870671 122.5219391  87.7827800  17.0872532 122.4083763
  89.0364655  16.3403405 122.0055426 104.4684863  22.9231209 123.5865153
 105.1063272  22.8037957 122.8828493 104.3505705  23.8712053 123.6453105
 101.2774569  22.8758637 123.5226678 100.9393080  22.7599702 122.6347213
 102.1464337  22.4749802 123.5027684  97.1361384  24.7294114 119.5123569
  96.5726250  24.6384051 118.7439857  97.0213780  23.9094018 119.9926061
  94.6825816  26.2245305 122.3507789  95.4747108  25.8836130 121.9354089
  94.9222467  26.3340280 123.2709943 102.7160943  28.3965081 114.8238034
 102.0648923  28.9819162 114.4372048 103.5105306  28.9271276 114.8833071
  96.6416570  25.4854219 115.2225168  97.4147446  24.9383206 115.0838044
  96.9941969  26.3498468 115.4339630  98.4801613  26.8130601 128.4292068
  98.1891479  27.7176232 128.3138734  99.1158597  26.8547128 129.1436137
  99.4057820  24.1907449 125.0193427 100.0021392  23.9663472 124.3050390
  99.4632791  23.4492195 125.6218875  98.9782848  21.6446885 112.8543618
  99.2308369  21.1228406 112.0927081  98.0407407  21.4813030 112.9570302
 104.0226131  20.6482663 120.6618361 104.8089220  20.2302086 120.3108778
 104.2864835  21.5528755 120.8300010 104.1936208  26.0855513 115.3607018
 103.5582041  26.1590140 116.0727923 103.8633615  26.6749112 114.6826097
  98.6979137  23.5474991 115.0567993  98.5815395  22.8719894 115.7249077
  98.8081397  23.0607365 114.2400146 101.0410678  23.0085138 118.7614682
 100.6768885  22.4815759 119.4727604 101.8977794  22.6183607 118.5881168
 100.6816165  18.0375037 113.7576031 100.8490567  18.9055274 114.1246502
 100.4913334  18.2002319 112.8337320 103.4391498  26.4992016 125.4241861
 103.1392221  27.4017055 125.3157668 103.0942558  26.2324200 126.2763014
  96.8903979  22.9505813 121.4578566  95.9654476  22.8182027 121.6656257
  97.1388393  23.7300032 121.9548508 100.6605386  20.4932695 114.7422698
 100.5405011  20.9389746 115.5808178  99.9657974  20.8418013 114.1836236
  94.2512791  22.5939087 122.2922355  94.3805172  22.8473566 123.2061766
  93.5710242  23.1866795 121.9727010  98.4212278  33.2636337 118.3912829
  98.3436308  34.2144162 118.4701309  97.8173921  32.9182209 119.0487755
 106.3590452  20.9654168 115.5703032 107.2708308  21.1981555 115.3950729
 105.8500099  21.5491212 115.0078110 104.9660034  25.9479987 122.9616613
 104.3368897  26.1125701 122.2592681 104.5785696  26.3621596 123.7327577
 108.8449266  26.8834424 120.3160977 108.1600304  27.2633326 119.7658010
 108.9293115  27.4929751 121.0492925 100.5187996  25.6854395 120.2266698
 100.9826342  25.9642098 119.4371321 100.2544794  24.7837839 120.0439789
  97.4112077  25.2325876 123.1646462  97.9813434  25.6613145 122.5263946
  98.0020189  24.9508461 123.8630647  99.4556882  21.8077547 117.0356263
 100.1580925  22.2598591 117.5030190  99.1237511  21.1661366 117.6636157
  93.1982216  20.0661100 122.3373397  92.4081270  20.3218628 121.8613508
  93.6893463  20.8809438 122.4425438  95.1496961  20.4305679 119.2956874
  94.3528125  20.5424373 119.8140369  94.9222554  20.7692331 118.4297764
 100.9802629  26.9550382 127.2439388 101.0447062  27.4170789 128.0797560
 100.2713553  26.3247747 127.3721698  91.4819919  20.3191590 124.7688388
  91.7327957  21.2038600 125.0345964  92.0179467  20.1396192 123.9963480
 100.6950647  28.6218490 117.1118369 100.5596322  29.4670025 117.5403216
 101.2360459  28.8237767 116.3484302  94.1480044  26.1393928 117.6846294
  94.6604565  26.9337178 117.8351858  94.8002757  25.4420218 117.6179895
  95.9574929  29.2559684 119.7669047  96.1341557  30.1777649 119.5790031
  96.7531762  28.9418103 120.1963427  95.2427285  21.3024316 129.6431210
  95.1280801  20.4009573 129.9438309  94.3871803  21.5488013 129.2916027
  97.0806244  30.7737858 125.7679389  97.6313669  30.6454921 124.9956383
  96.2417720  31.0732747 125.4174282 100.8773415  27.0388986 130.1123620
 101.4101752  26.2777274 129.8822928 100.3487496  26.7462637 130.8547775
  92.1128961  24.4682582 118.4605864  92.9504183  24.8779590 118.2439572
  92.2907229  23.5282024 118.4306058 104.0093393  22.1357663 114.1489697
 103.4940016  22.9062267 114.3878085 103.7370701  21.4622799 114.7722759
 101.5940504  16.9807363 119.2074936 100.7382100  16.5914214 119.0280574
 102.0067456  17.0599324 118.3474721  99.3682537  14.5992436 122.6132677
 100.2335533  14.4035245 122.2538567  99.4360045  14.3702788 123.5402034
 108.9827667  24.8890017 116.0842871 108.2057110  24.5501177 115.6398033
 109.6619148  24.8942640 115.4097836 103.7979696  20.0084755 115.9749478
 103.4929832  20.3230904 116.8259622 104.7510138  20.0866175 116.0176811
 102.2426128  26.1674978 117.6242432 101.7147490  25.4327738 117.3115670
 101.7413631  26.9449654 117.3782401 107.2218974  24.3623999 122.7409479
 106.5642648  25.0523260 122.8289607 108.0259373  24.7520430 123.0843465
  96.9744856  16.8294644 119.9849044  97.5488608  16.6069826 119.2522237
  97.5615838  16.8983339 120.7377645 106.0324433  22.7168371 120.7913420
 106.5456315  23.3498363 121.2935130 106.6825657  22.1169567 120.4256780
  97.3014443  18.8599105 114.0044929  96.4651755  19.1973792 114.3254204
  97.1619212  18.7248085 113.0672066  99.2767523  13.7035893 118.7124113
  98.6231936  13.3884910 118.0880728  99.2347997  13.0811634 119.4383936
 100.3878728  23.9855188 110.6277405  99.4805790  23.7544442 110.8268554
 100.8849760  23.1892808 110.8151387 103.2946807  32.6952695 113.5474092
 102.6208506  32.9984392 114.1559049 103.6812629  33.4981776 113.1979549
 102.5105264  20.1917827 123.0371761 101.5927825  20.4132774 122.8793449
 102.9265407  20.2664137 122.1783468 103.2940311  21.5909242 118.1674441
 104.0412130  22.1030640 117.8581563 103.5631901  21.2693295 119.0278835
 101.5666962  24.0867783 115.1501395 100.6578181  23.8026816 115.2473865
 101.5962045  24.5066862 114.2904702 106.7986229  27.6974373 118.9192563
 106.3448556  26.8565283 118.9757754 106.1680196  28.3335771 119.2567343
 105.7419149  18.6266359 120.1493230 105.0041905  18.1143745 120.4803473
 105.9945922  18.1866740 119.3376507 105.2419168  29.5350869 119.8542381
 105.5342143  30.0955926 119.1354747 105.7517789  29.8279430 120.6095540
  92.1355132  21.8073297 119.1316598  91.9379532  21.2142658 118.4067664
  91.5801796  21.5025507 119.8492536 100.1151856  21.6996404 121.2511191
 100.1700465  20.7470240 121.1753667  99.3043058  21.8555843 121.7352489
 101.2643049  25.6276527 112.4889474 100.8262479  24.9112386 112.0295111
 102.0053490  25.8552642 111.9274565  98.0544216  20.3173463 119.0101570
  97.2412081  20.6167634 119.4166762  98.5503210  19.9229152 119.7276052
 100.2052793  30.3131220 120.9435834 100.1628972  30.5392067 120.0144366
 101.1215492  30.0794595 121.0921636 109.3816164  23.9033724 118.5465793
 109.2434063  24.0935320 117.6186982 109.0252383  24.6653107 119.0033844
  97.5458290  17.8891819 124.6262805  98.1857670  17.7480578 123.9285768
  96.7135821  17.6026332 124.2501407  98.3218594  27.1894249 120.7397797
  99.1159193  26.6944570 120.5380372  97.6110287  26.6612113 120.3765503
 103.1413439  29.5712345 125.0910165 103.1950461  30.1403281 125.8587881
 102.2728220  29.7414230 124.7264202  94.6301358  21.3337331 116.8157550
  93.6998946  21.2721787 117.0327512  94.7258830  20.8113284 116.0194191
  94.5486907  17.8592144 119.4035791  94.8093724  18.7737477 119.2944952
  95.3704079  17.3916587 119.5532404  96.0211832  19.2729901 126.5734616
  96.6934886  19.0647263 125.9247265  95.1941619  19.0751987 126.1339848
 102.1001538  23.7372607 126.6497097 103.0293598  23.8883767 126.4766064
 101.6792569  23.8256628 125.7945743 100.8989870  27.7623271 124.4195634
 100.7600956  27.3942056 125.2921572 100.1104467  28.2770911 124.2479592
 101.4938022  32.8632368 115.7621171 101.6689778  32.3920411 116.5766793
 100.8070810  33.4898134 115.9902431 102.4495085  27.1404874 121.8084472
 102.1144918  27.1005644 122.7042122 101.9499031  26.4749590 121.3354882
  96.4239329  22.5472504 127.3337053  96.2859127  21.8152743 127.9348592
  97.3344253  22.4581404 127.0521241 105.3854277  24.4860908 112.0821532
 104.7683448  23.7607737 111.9854584 104.9170766  25.2470269 111.7388606
  99.0521630  22.2592463 126.8220733  99.7621249  21.6185656 126.7807351
  99.0090938  22.5105358 127.7446914  96.0599108  36.0121731 122.5361031
  96.2995706  36.6440255 123.2140049  95.2168304  35.6609771 122.8226390
  97.1752823  18.7046333 111.2042836  96.2982289  18.5835134 110.8405083
  97.6510576  17.9132411 110.9521725  88.6954963  23.4923493 121.2984343
  89.3826003  23.1785223 120.7105358  88.5403092  24.3964857 121.0251594
  93.4989685  18.3813689 125.7269367  93.4147874  17.7739359 124.9919777
  92.6772392  18.8722707 125.7278863 100.5726969  31.8200853 124.9402535
 100.4997141  32.6255825 125.4521839 100.1304362  32.0192819 124.1150556
 100.3616749  31.0572623 118.4505356  99.5784271  31.5994303 118.5443581
 101.0609494  31.5746603 118.8499598 103.6713399  16.8667253 121.0939562
 104.1682099  16.1137215 120.7740632 102.9000381  16.9031569 120.5282771
 103.0325653  31.7187687 127.0960694 103.7453625  32.3535152 127.0236595
 102.5415682  31.8151553 126.2800695 104.7543180  25.6238940 118.6677985
 103.8199459  25.7440402 118.4982690 104.9319848  24.7211407 118.4037995
 100.2548368  19.0084636 120.8211246  99.8846155  18.4555676 121.5092152
 100.7507460  18.4042769 120.2686246 108.1415731  21.4656259 119.2028019
 108.6076183  22.2984251 119.1288322 108.5923232  21.0001241 119.9073278
  98.0837566  29.4682131 127.9166264  98.7847026  30.1018614 128.0695659
  97.6132681  29.8096862 127.1561904 106.2091962  27.8100080 116.2014171
 106.4851806  27.6956675 117.1108045 105.3396461  27.4117565 116.1626344
 102.8446026  32.0586431 119.8446985 103.0268421  31.2408087 120.3074737
 103.6679012  32.2754123 119.4071875 103.1788192  30.9854616 117.1062033
 103.7075958  30.4747071 116.4932196 103.4416411  30.6697147 117.9707567
  93.6805285  29.0018486 124.8497367  94.2658721  28.2562174 124.9825271
  93.4830123  29.3122442 125.7334031  96.5343940  32.0369733 119.8659809
  95.8654315  32.5215861 119.3823849  96.3956809  32.2838953 120.7803188
  88.2722939  21.5724086 123.5701810  88.3107039  21.0387677 124.3638928
  87.7663232  21.0459291 122.9512787 100.6749208  34.0713477 126.4642468
 101.2267516  34.2345098 127.2291553 101.0155402  34.6617914 125.7922493
  95.6513702  16.4188626 127.0664352  95.7155028  17.2803457 126.6541750
  95.5880822  15.8062628 126.3336711  91.9031517  20.2988188 116.6455742
  92.1984958  19.3898866 116.5922795  91.0019553  20.2775927 116.3236744
 103.8117596  32.0195452 123.4506150 103.6868735  31.2185192 122.9417095
 104.4696687  32.5141645 122.9620120  95.4325764  18.3744185 122.6283290
  94.7112350  18.9880152 122.4890763  96.2219020  18.9101949 122.5499936
 105.8752504  29.8204472 125.0785700 104.9282840  29.7009823 125.0064027
 106.2235277  28.9326970 125.1611961  93.6319358  17.9802286 116.7695067
  93.3032065  17.0999665 116.5870173  93.9858729  17.9249954 117.6571456
 102.8798937  29.6157188 121.2790052 102.7323900  28.6873896 121.4597622
 103.7052431  29.6377279 120.7947128  96.7461182  18.2675255 117.1370544
  97.0857254  18.7961177 116.4149153  97.1933302  18.6055662 117.9129111
 106.4833059  30.4385747 122.3654925 107.4079607  30.2328608 122.2279376
 106.3148362  30.1902148 123.2744267  98.7329329  16.7649877 115.3363837
  99.4537691  17.1431130 114.8327554  98.1094633  17.4838754 115.4398815
 102.8760452  17.4695026 116.2722170 103.0924066  18.3519664 115.9710998
 102.3954519  17.0781239 115.5427811  97.6159673  20.4280739 122.8492914
  97.4704254  20.7421042 123.7417196  97.1384877  21.0465640 122.2963813
  99.4756056  17.4183287 122.8973804  99.4617625  16.5224381 122.5606102
 100.1928484  17.4253951 123.5312090 106.2728375  30.9571415 117.7217016
 106.4465253  30.3917837 116.9690869 106.7657267  31.7572309 117.5396506
  92.0905335  22.9686084 125.7880575  91.5458803  23.7445892 125.9200850
  92.9684685  23.3156888 125.6299697  98.8792952  16.2997668 118.1661374
  99.0008863  15.3714314 118.3652261  98.5894994  16.3136353 117.2539689
 101.7484142  13.9852578 121.3028094 101.7705839  14.0491911 120.3480073
 102.1652201  13.1457087 121.4968600 112.1267767  23.7207838 119.3407316
 112.5698913  22.9715163 118.9426439 111.2494277  23.7117974 118.9581048
 107.2603548  30.2738179 114.8213915 107.9554452  30.8944872 115.0401229
 107.6026698  29.4233530 115.0966293  92.8771357  22.0955980 128.6810732
  92.1353093  22.2438615 129.2675363  92.5564101  22.3564246 127.8177482
 109.1594971  27.7237885 116.3501246 109.6846295  28.0625157 115.6250566
 109.0717323  26.7884900 116.1664380 100.8215020  31.6371958 128.4791122
 101.1302146  31.3921105 129.3513822 101.6190502  31.8418597 127.9909992
 100.8435632  33.7909868 120.7096499 100.4040622  33.2986246 121.4029355
 101.5943749  33.2482835 120.4688574  93.3227971  29.9821409 120.7121127
  94.1485991  29.6825181 120.3319770  92.9722023  29.2129031 121.1610915
  98.2909504  29.3347877 122.7818800  97.6689513  28.6718582 122.4821028
  98.9614371  29.3609009 122.0992448  91.5236576  27.9007735 121.6710060
  90.6868484  27.4729909 121.4894062  91.4960221  28.0940178 122.6080852
  97.8523011  27.8851800 116.2577261  98.0011131  28.5687265 115.6043934
  98.6589454  27.8656890 116.7726717  95.6075644  23.9116978 117.2638330
  95.3621686  23.0079308 117.4618540  95.7771558  23.9134128 116.3217808
  94.8771291  19.6445335 114.7624491  94.1840536  19.7189690 114.1064527
  94.6323043  18.8805679 115.2846008 101.3518416  30.3799931 113.7289008
 100.7792383  30.9990118 113.2759480 101.9251210  30.9299292 114.2628930
 104.5715676  30.6637081 114.8597591 105.5046349  30.5982642 115.0630466
 104.4838889  31.4993348 114.4012123 107.2003693  29.9802951 111.8201538
 107.1217324  29.6462815 112.7137296 108.0213360  30.4724719 111.8193011
 101.7365215  21.7160743 111.0705061 102.6824319  21.5866952 111.1393479
 101.3579460  20.9775405 111.5474489  99.9208132  19.6410720 111.0059946
  99.0139587  19.3443833 111.0822660 100.1984113  19.3440538 110.1394232
  90.8386072  20.9617083 121.4558992  90.5188857  20.1082391 121.1633366
  90.2919500  21.1765661 122.2116960  94.6165980  23.6779524 125.1728499
  94.8351990  24.6096632 125.1916533  95.0291754  23.3187499 125.9583303
 101.5370198  14.1847610 117.1604187 100.7270926  13.8394694 117.5359433
 102.2254615  13.8755153 117.7491799 103.4660746  13.2625656 118.7828484
 104.0191785  13.6821110 119.4418507 103.7030832  12.3361404 118.8251440
  98.6906917  16.4997655 111.1471925  99.5526081  16.8252553 111.4067743
  98.8757261  15.7129151 110.6344991  90.7074332  24.5819995 123.4252114
  90.0137804  24.1673947 122.9122068  91.4547323  24.6240531 122.8285533
 106.8439553  15.3726181 118.2907148 106.2638222  16.0310986 117.9085201
 106.5775486  14.5503526 117.8794566  92.6211075  24.5138248 121.3018129
  92.5981763  24.6125936 120.3500012  92.9311711  25.3603399 121.6235295
  95.2798453  26.5714404 125.4164743  96.2341706  26.5398346 125.3494675
  95.0810976  26.1105027 126.2314969  95.8697835  25.1415520 127.9835541
  96.6890724  25.6359598 128.0070378  96.1434643  24.2247488 127.9553109
 105.6264431  17.5326272 117.3463497 104.7390286  17.8175922 117.1283691
 106.0418420  17.3720035 116.4990773  93.6348682  32.1134023 122.4334941
  93.5003149  31.3534424 121.8672939  93.2180744  32.8374923 121.9663730
 104.7707645  27.2970947 111.4411517 105.4743495  27.5020949 112.0569172
 104.0470293  27.8647708 111.7060600 105.6005455  23.0480808 117.5613787
 105.5440656  23.5049359 116.7221419 106.1533797  22.2871492 117.3836629
  96.7917807  33.0103340 122.6453384  96.6750192  33.9548773 122.5432074
  95.9710254  32.7076902 123.0339183 106.6794342  27.7353476 113.4909977
 107.5139946  27.3034674 113.3087451 106.5178685  27.5635489 114.4186871
 106.3340234  24.2385589 114.8566316 106.2789038  24.0729860 113.9154760
 105.7086289  24.9461622 115.0128506  91.1232749  19.4753653 128.6827738
  91.7691613  18.9652607 129.1714963  90.9149900  20.2122335 129.2571163
  99.6436360  13.7393698 114.4351634  99.6315029  14.6835538 114.5919905
 100.5359781  13.5563843 114.1411095  97.8172322  33.6631602 125.8609312
  98.7199568  33.6955212 126.1775807  97.5909692  32.7332053 125.8755648
  99.5725924  32.4162588 122.5219391  98.6221555  32.4164450 122.4083763
  99.8758410  31.6695323 122.0055426 115.3078617  38.2523127 123.5865153
 115.9457027  38.1329874 122.8828493 115.1899460  39.2003971 123.6453105
 112.1168323  38.2050555 123.5226678 111.7786835  38.0891620 122.6347213
 112.9858091  37.8041720 123.5027684 107.9755139  40.0586031 119.5123569
 107.4120004  39.9675968 118.7439857 107.8607534  39.2385936 119.9926061
 105.5219571  41.5537223 122.3507789 106.3140863  41.2128048 121.9354089
 105.7616221  41.6632198 123.2709943 113.5554698  43.7256999 114.8238034
 112.9042677  44.3111079 114.4372048 114.3499061  44.2563194 114.8833071
 107.4810325  40.8146136 115.2225168 108.2541201  40.2675123 115.0838044
 107.8335724  41.6790386 115.4339630 109.3195367  42.1422518 128.4292068
 109.0285233  43.0468149 128.3138734 109.9552352  42.1839046 129.1436137
 110.2451574  39.5199367 125.0193427 110.8415147  39.2955389 124.3050390
 110.3026546  38.7784112 125.6218875 109.8176603  36.9738802 112.8543618
 110.0702123  36.4520324 112.0927081 108.8801162  36.8104948 112.9570302
 114.8619885  35.9774581 120.6618361 115.6482975  35.5594004 120.3108778
 115.1258590  36.8820673 120.8300010 115.0329963  41.4147431 115.3607018
 114.3975796  41.4882058 116.0727923 114.7027369  42.0041030 114.6826097
 109.5372891  38.8766908 115.0567993 109.4209150  38.2011812 115.7249077
 109.6475151  38.3899282 114.2400146 111.8804432  38.3377055 118.7614682
 111.5162640  37.8107676 119.4727604 112.7371548  37.9475524 118.5881168
 111.5209919  33.3666955 113.7576031 111.6884322  34.2347191 114.1246502
 111.3307088  33.5294237 112.8337320 114.2785253  41.8283934 125.4241861
 113.9785976  42.7308973 125.3157668 113.9336312  41.5616117 126.2763014
 107.7297734  38.2797731 121.4578566 106.8048230  38.1473945 121.6656257
 107.9782147  39.0591950 121.9548508 111.4999140  35.8224613 114.7422698
 111.3798765  36.2681663 115.5808178 110.8051729  36.1709930 114.1836236
 105.0906545  37.9231004 122.2922355 105.2198926  38.1765483 123.2061766
 104.4103996  38.5158712 121.9727010 109.2606032  48.5928254 118.3912829
 109.1830062  49.5436079 118.4701309 108.6567676  48.2474127 119.0487755
 117.1984206  36.2946086 115.5703032 118.1102062  36.5273473 115.3950729
 116.6893853  36.8783130 115.0078110 115.8053789  41.2771904 122.9616613
 115.1762651  41.4417618 122.2592681 115.4179451  41.6913514 123.7327577
 119.6843021  42.2126342 120.3160977 118.9994059  42.5925243 119.7658010
 119.7686870  42.8221669 121.0492925 111.3581751  41.0146312 120.2266698
 111.8220096  41.2934015 119.4371321 111.0938549  40.1129757 120.0439789
 108.2505832  40.5617794 123.1646462 108.8207189  40.9905062 122.5263946
 108.8413943  40.2800379 123.8630647 110.2950637  37.1369465 117.0356263
 110.9974680  37.5890508 117.5030190 109.9631265  36.4953284 117.6636157
 104.0375971  35.3953017 122.3373397 103.2475025  35.6510546 121.8613508
 104.5287218  36.2101355 122.4425438 105.9890716  35.7597597 119.2956874
 105.1921879  35.8716291 119.8140369 105.7616308  36.0984249 118.4297764
 111.8196384  42.2842300 127.2439388 111.8840816  42.7462707 128.0797560
 111.1107307  41.6539665 127.3721698 102.3213674  35.6483508 124.7688388
 102.5721712  36.5330518 125.0345964 102.8573222  35.4688109 123.9963480
 111.5344401  43.9510407 117.1118369 111.3990076  44.7961943 117.5403216
 112.0754214  44.1529685 116.3484302 104.9873799  41.4685845 117.6846294
 105.4998319  42.2629096 117.8351858 105.6396511  40.7712136 117.6179895
 106.7968683  44.5851602 119.7669047 106.9735312  45.5069566 119.5790031
 107.5925517  44.2710021 120.1963427 106.0821040  36.6316234 129.6431210
 105.9674555  35.7301491 129.9438309 105.2265558  36.8779930 129.2916027
 107.9199999  46.1029775 125.7679389 108.4707424  45.9746839 124.9956383
 107.0811475  46.4024664 125.4174282 111.7167170  42.3680903 130.1123620
 112.2495507  41.6069191 129.8822928 111.1881251  42.0754555 130.8547775
 102.9522715  39.7974500 118.4605864 103.7897937  40.2071508 118.2439572
 103.1300983  38.8573942 118.4306058 114.8487148  37.4649580 114.1489697
 114.3333771  38.2354185 114.3878085 114.5764456  36.7914716 114.7722759
 112.4334259  32.3099281 119.2074936 111.5775855  31.9206131 119.0280574
 112.8461210  32.3891242 118.3474721 110.2076291  29.9284354 122.6132677
 111.0729288  29.7327163 122.2538567 110.2753800  29.6994706 123.5402034
 119.8221422  40.2181935 116.0842871 119.0450864  39.8793094 115.6398033
 120.5012903  40.2234558 115.4097836 114.6373451  35.3376672 115.9749478
 114.3323586  35.6522822 116.8259622 115.5903893  35.4158092 116.0176811
 113.0819883  41.4966896 117.6242432 112.5541244  40.7619655 117.3115670
 112.5807385  42.2741572 117.3782401 118.0612729  39.6915916 122.7409479
 117.4036403  40.3815178 122.8289607 118.8653128  40.0812348 123.0843465
 107.8138610  32.1586562 119.9849044 108.3882362  31.9361743 119.2522237
 108.4009593  32.2275256 120.7377645 116.8718187  38.0460289 120.7913420
 117.3850069  38.6790281 121.2935130 117.5219411  37.4461484 120.4256780
 108.1408197  34.1891023 114.0044929 107.3045510  34.5265710 114.3254204
 108.0012967  34.0540003 113.0672066 110.1161278  29.0327811 118.7124113
 109.4625690  28.7176828 118.0880728 110.0741752  28.4103551 119.4383936
 111.2272483  39.3147106 110.6277405 110.3199544  39.0836359 110.8268554
 111.7243515  38.5184725 110.8151387 114.1340562  48.0244613 113.5474092
 113.4602260  48.3276310 114.1559049 114.5206384  48.8273693 113.1979549
 113.3499018  35.5209744 123.0371761 112.4321580  35.7424691 122.8793449
 113.7659162  35.5956055 122.1783468 114.1334066  36.9201160 118.1674441
 114.8805885  37.4322557 117.8581563 114.4025656  36.5985213 119.0278835
 112.4060716  39.4159701 115.1501395 111.4971935  39.1318734 115.2473865
 112.4355800  39.8358779 114.2904702 117.6379984  43.0266290 118.9192563
 117.1842311  42.1857200 118.9757754 117.0073950  43.6627689 119.2567343
 116.5812903  33.9558276 120.1493230 115.8435660  33.4435663 120.4803473
 116.8339677  33.5158658 119.3376507 116.0812923  44.8642787 119.8542381
 116.3735897  45.4247844 119.1354747 116.5911543  45.1571348 120.6095540
 102.9748887  37.1365215 119.1316598 102.7773286  36.5434576 118.4067664
 102.4195551  36.8317425 119.8492536 110.9545610  37.0288321 121.2511191
 111.0094220  36.0762158 121.1753667 110.1436812  37.1847761 121.7352489
 112.1036804  40.9568445 112.4889474 111.6656234  40.2404303 112.0295111
 112.8447245  41.1844559 111.9274565 108.8937970  35.6465381 119.0101570
 108.0805836  35.9459552 119.4166762 109.3896964  35.2521070 119.7276052
 111.0446548  45.6423138 120.9435834 111.0022727  45.8683984 120.0144366
 111.9609247  45.4086513 121.0921636 120.2209919  39.2325642 118.5465793
 120.0827817  39.4227238 117.6186982 119.8646138  39.9945024 119.0033844
 108.3852045  33.2183737 124.6262805 109.0251424  33.0772496 123.9285768
 107.5529575  32.9318250 124.2501407 109.1612349  42.5186167 120.7397797
 109.9552947  42.0236487 120.5380372 108.4504041  41.9904030 120.3765503
 113.9807193  44.9004263 125.0910165 114.0344216  45.4695199 125.8587881
 113.1121975  45.0706148 124.7264202 105.4695112  36.6629249 116.8157550
 104.5392700  36.6013704 117.0327512 105.5652584  36.1405202 116.0194191
 105.3880661  33.1884062 119.4035791 105.6487479  34.1029395 119.2944952
 106.2097834  32.7208504 119.5532404 106.8605587  34.6021819 126.5734616
 107.5328640  34.3939181 125.9247265 106.0335373  34.4043905 126.1339848
 112.9395293  39.0664525 126.6497097 113.8687353  39.2175684 126.4766064
 112.5186323  39.1548545 125.7945743 111.7383625  43.0915189 124.4195634
 111.5994710  42.7233974 125.2921572 110.9498221  43.6062829 124.2479592
 112.3331777  48.1924286 115.7621171 112.5083532  47.7212329 116.5766793
 111.6464565  48.8190052 115.9902431 113.2888840  42.4696792 121.8084472
 112.9538673  42.4297562 122.7042122 112.7892786  41.8041508 121.3354882
 107.2633084  37.8764422 127.3337053 107.1252882  37.1444661 127.9348592
 108.1738007  37.7873322 127.0521241 116.2248032  39.8152826 112.0821532
 115.6077202  39.0899654 111.9854584 115.7564520  40.5762186 111.7388606
 109.8915385  37.5884381 126.8220733 110.6015003  36.9477573 126.7807351
 109.8484693  37.8397276 127.7446914 106.8992862  51.3413648 122.5361031
 107.1389460  51.9732173 123.2140049 106.0562058  50.9901688 122.8226390
 108.0146577  34.0338250 111.2042836 107.1376044  33.9127051 110.8405083
 108.4904331  33.2424329 110.9521725  99.5348718  38.8215410 121.2984343
 100.2219757  38.5077140 120.7105358  99.3796846  39.7256775 121.0251594
 104.3383440  33.7105607 125.7269367 104.2541628  33.1031276 124.9919777
 103.5166146  34.2014625 125.7278863 111.4120724  47.1492771 124.9402535
 111.3390895  47.9547742 125.4521839 110.9698117  47.3484737 124.1150556
 111.2010504  46.3864541 118.4505356 110.4178025  46.9286221 118.5443581
 111.9003249  46.9038520 118.8499598 114.5107154  32.1959170 121.0939562
 115.0075853  31.4429133 120.7740632 113.7394135  32.2323487 120.5282771
 113.8719407  47.0479605 127.0960694 114.5847380  47.6827070 127.0236595
 113.3809436  47.1443471 126.2800695 115.5936934  40.9530857 118.6677985
 114.6593213  41.0732320 118.4982690 115.7713603  40.0503324 118.4037995
 111.0942122  34.3376553 120.8211246 110.7239910  33.7847594 121.5092152
 111.5901215  33.7334687 120.2686246 118.9809486  36.7948177 119.2028019
 119.4469938  37.6276168 119.1288322 119.4316986  36.3293158 119.9073278
 108.9231321  44.7974048 127.9166264 109.6240780  45.4310531 128.0695659
 108.4526436  45.1388780 127.1561904 117.0485717  43.1391998 116.2014171
 117.3245561  43.0248593 117.1108045 116.1790216  42.7409483 116.1626344
 113.6839781  47.3878349 119.8446985 113.8662175  46.5700005 120.3074737
 114.5072767  47.6046041 119.4071875 114.0181946  46.3146534 117.1062033
 114.5469713  45.8038989 116.4932196 114.2810166  45.9989064 117.9707567
 104.5199039  44.3310403 124.8497367 105.1052476  43.5854091 124.9825271
 104.3223877  44.6414360 125.7334031 107.3737694  47.3661651 119.8659809
 106.7048069  47.8507778 119.3823849 107.2350564  47.6130871 120.7803188
  99.1116694  36.9016004 123.5701810  99.1500793  36.3679594 124.3638928
  98.6056987  36.3751209 122.9512787 111.5142963  49.4005394 126.4642468
 112.0661271  49.5637016 127.2291553 111.8549156  49.9909832 125.7922493
 106.4907456  31.7480544 127.0664352 106.5548783  32.6095375 126.6541750
 106.4274576  31.1354546 126.3336711 102.7425271  35.6280106 116.6455742
 103.0378712  34.7190784 116.5922795 101.8413307  35.6067845 116.3236744
 114.6511350  47.3487370 123.4506150 114.5262490  46.5477110 122.9417095
 115.3090441  47.8433563 122.9620120 106.2719518  33.7036102 122.6283290
 105.5506104  34.3172070 122.4890763 107.0612774  34.2393867 122.5499936
 116.7146258  45.1496390 125.0785700 115.7676594  45.0301741 125.0064027
 117.0629032  44.2618888 125.1611961 104.4713113  33.3094203 116.7695067
 104.1425819  32.4291582 116.5870173 104.8252484  33.2541872 117.6571456
 113.7192692  44.9449106 121.2790052 113.5717654  44.0165813 121.4597622
 114.5446185  44.9669197 120.7947128 107.5854936  33.5967173 117.1370544
 107.9251009  34.1253094 116.4149153 108.0327057  33.9347579 117.9129111
 117.3226814  45.7677665 122.3654925 118.2473361  45.5620526 122.2279376
 117.1542117  45.5194066 123.2744267 109.5723083  32.0941795 115.3363837
 110.2931446  32.4723048 114.8327554 108.9488387  32.8130672 115.4398815
 113.7154206  32.7986944 116.2722170 113.9317820  33.6811582 115.9710998
 113.2348273  32.4073157 115.5427811 108.4553427  35.7572657 122.8492914
 108.3098008  36.0712960 123.7417196 107.9778631  36.3757557 122.2963813
 110.3149810  32.7475205 122.8973804 110.3011379  31.8516298 122.5606102
 111.0322238  32.7545869 123.5312090 117.1122130  46.2863332 117.7217016
 117.2859007  45.7209755 116.9690869 117.6051021  47.0864227 117.5396506
 102.9299090  38.2978001 125.7880575 102.3852558  39.0737809 125.9200850
 103.8078439  38.6448806 125.6299697 109.7186706  31.6289585 118.1661374
 109.8402617  30.7006231 118.3652261 109.4288749  31.6428271 117.2539689
 112.5877897  29.3144496 121.3028094 112.6099593  29.3783829 120.3480073
 113.0045956  28.4749004 121.4968600 122.9661521  39.0499755 119.3407316
 123.4092667  38.3007080 118.9426439 122.0888031  39.0409892 118.9581048
 118.0997302  45.6030097 114.8213915 118.7948207  46.2236789 115.0401229
 118.4420452  44.7525448 115.0966293 103.7165111  37.4247898 128.6810732
 102.9746848  37.5730533 129.2675363 103.3957856  37.6856163 127.8177482
 119.9988725  43.0529802 116.3501246 120.5240050  43.3917075 115.6250566
 119.9111078  42.1176818 116.1664380 111.6608774  46.9663876 128.4791122
 111.9695901  46.7213023 129.3513822 112.4584256  47.1710514 127.9909992
 111.6829386  49.1201785 120.7096499 111.2434376  48.6278164 121.4029355
 112.4337503  48.5774753 120.4688574 104.1621725  45.3113326 120.7121127
 104.9879745  45.0117098 120.3319770 103.8115777  44.5420949 121.1610915
 109.1303258  44.6639795 122.7818800 108.5083268  44.0010500 122.4821028
 109.8008125  44.6900926 122.0992448 102.3630330  43.2299653 121.6710060
 101.5262239  42.8021827 121.4894062 102.3353976  43.4232096 122.6080852
 108.6916765  43.2143718 116.2577261 108.8404886  43.8979182 115.6043934
 109.4983209  43.1948808 116.7726717 106.4469398  39.2408896 117.2638330
 106.2015440  38.3371226 117.4618540 106.6165313  39.2426046 116.3217808
 105.7165046  34.9737253 114.7624491 105.0234291  35.0481608 114.1064527
 105.4716798  34.2097597 115.2846008 112.1912171  45.7091848 113.7289008
 111.6186138  46.3282035 113.2759480 112.7644964  46.2591210 114.2628930
 115.4109431  45.9928998 114.8597591 116.3440104  45.9274560 115.0630466
 115.3232643  46.8285265 114.4012123 118.0397447  45.3094869 111.8201538
 117.9611079  44.9754732 112.7137296 118.8607114  45.8016637 111.8193011
 112.5758969  37.0452661 111.0705061 113.5218074  36.9158869 111.1393479
 112.1973214  36.3067323 111.5474489 110.7601886  34.9702637 111.0059946
 109.8533342  34.6735750 111.0822660 111.0377867  34.6732456 110.1394232
 101.6779827  36.2909001 121.4558992 101.3582611  35.4374309 121.1633366
 101.1313255  36.5057579 122.2116960 105.4559734  39.0071442 125.1728499
 105.6745744  39.9388550 125.1916533 105.8685508  38.6479416 125.9583303
 112.3763952  29.5139527 117.1604187 111.5664680  29.1686612 117.5359433
 113.0648369  29.2047071 117.7491799 114.3054500  28.5917574 118.7828484
 114.8585539  29.0113027 119.4418507 114.5424587  27.6653322 118.8251440
 109.5300671  31.8289573 111.1471925 110.3919835  32.1544471 111.4067743
 109.7151015  31.0421069 110.6344991 101.5468087  39.9111912 123.4252114
 100.8531558  39.4965865 122.9122068 102.2941078  39.9532449 122.8285533
 117.6833308  30.7018099 118.2907148 117.1031977  31.3602903 117.9085201
 117.4169240  29.8795444 117.8794566 103.4604829  39.8430166 121.3018129
 103.4375517  39.9417853 120.3500012 103.7705466  40.6895317 121.6235295
 106.1192207  41.9006321 125.4164743 107.0735461  41.8690264 125.3494675
 105.9204731  41.4396945 126.2314969 106.7091589  40.4707437 127.9835541
 107.5284478  40.9651516 128.0070378 106.9828397  39.5539405 127.9553109
 116.4658186  32.8618190 117.3463497 115.5784041  33.1467840 117.1283691
 116.8812175  32.7011953 116.4990773 104.4742436  47.4425941 122.4334941
 104.3396904  46.6826342 121.8672939 104.0574498  48.1666841 121.9663730
 115.6101399  42.6262864 111.4411517 116.3137249  42.8312867 112.0569172
 114.8864048  43.1939626 111.7060600 116.4399209  38.3772725 117.5613787
 116.3834411  38.8341277 116.7221419 116.9927552  37.6163410 117.3836629
 107.6311562  48.3395258 122.6453384 107.5143946  49.2840690 122.5432074
 106.8104008  48.0368819 123.0339183 117.5188096  43.0645393 113.4909977
 118.3533700  42.6326592 113.3087451 117.3572439  42.8927407 114.4186871
 117.1733989  39.5677507 114.8566316 117.1182792  39.4021778 113.9154760
 116.5480044  40.2753540 115.0128506 101.9626504  34.8045571 128.6827738
 102.6085367  34.2944525 129.1714963 101.7543655  35.5414253 129.2571163
 110.4830114  29.0685616 114.4351634 110.4708784  30.0127456 114.5919905
 111.3753536  28.8855761 114.1411095 108.6566076  48.9923520 125.8609312
 109.5593323  49.0247130 126.1775807 108.4303446  48.0623971 125.8755648
 110.4119678  47.7454506 122.5219391 109.4615309  47.7456368 122.4083763
 110.7152164  46.9987241 122.0055426 126.1472371  53.5815045 123.5865153
 126.7850781  53.4621792 122.8828493 126.0293214  54.5295888 123.6453105
 122.9562078  53.5342473 123.5226678 122.6180589  53.4183537 122.6347213
 123.8251846  53.1333638 123.5027684 118.8148893  55.3877949 119.5123569
 118.2513759  55.2967886 118.7439857 118.7001289  54.5677853 119.9926061
 116.3613325  56.8829141 122.3507789 117.1534617  56.5419965 121.9354089
 116.6009976  56.9924116 123.2709943 124.3948452  59.0548917 114.8238034
 123.7436432  59.6402997 114.4372048 125.1892815  59.5855112 114.8833071
 118.3204079  56.1438054 115.2225168 119.0934955  55.5967041 115.0838044
 118.6729478  57.0082303 115.4339630 120.1589122  57.4714436 128.4292068
 119.8678988  58.3760067 128.3138734 120.7946106  57.5130964 129.1436137
 121.0845329  54.8491285 125.0193427 121.6808901  54.6247307 124.3050390
 121.1420300  54.1076030 125.6218875 120.6570357  52.3030720 112.8543618
 120.9095878  51.7812241 112.0927081 119.7194916  52.1396865 112.9570302
 125.7013640  51.3066498 120.6618361 126.4876729  50.8885922 120.3108778
 125.9652344  52.2112591 120.8300010 125.8723717  56.7439349 115.3607018
 125.2369550  56.8173975 116.0727923 125.5421124  57.3332948 114.6826097
 120.3766646  54.2058826 115.0567993 120.2602904  53.5303729 115.7249077
 120.4868906  53.7191200 114.2400146 122.7198187  53.6668973 118.7614682
 122.3556394  53.1399594 119.4727604 123.5765303  53.2767442 118.5881168
 122.3603674  48.6958873 113.7576031 122.5278076  49.5639109 114.1246502
 122.1700843  48.8586154 112.8337320 125.1179007  57.1575852 125.4241861
 124.8179730  58.0600890 125.3157668 124.7730067  56.8908035 126.2763014
 118.5691488  53.6089649 121.4578566 117.6441985  53.4765863 121.6656257
 118.8175902  54.3883868 121.9548508 122.3392895  51.1516530 114.7422698
 122.2192520  51.5973581 115.5808178 121.6445483  51.5001848 114.1836236
 115.9300300  53.2522922 122.2922355 116.0592681  53.5057401 123.2061766
 115.2497751  53.8450630 121.9727010 120.0999787  63.9220172 118.3912829
 120.0223816  64.8727997 118.4701309 119.4961430  63.5766045 119.0487755
 128.0377961  51.6238003 115.5703032 128.9495817  51.8565390 115.3950729
 127.5287608  52.2075048 115.0078110 126.6447543  56.6063822 122.9616613
 126.0156406  56.7709536 122.2592681 126.2573205  57.0205431 123.7327577
 130.5236775  57.5418260 120.3160977 129.8387813  57.9217161 119.7658010
 130.6080624  58.1513586 121.0492925 122.1975505  56.3438230 120.2266698
 122.6613851  56.6225933 119.4371321 121.9332303  55.4421675 120.0439789
 119.0899586  55.8909712 123.1646462 119.6600943  56.3196980 122.5263946
 119.6807698  55.6092296 123.8630647 121.1344391  52.4661382 117.0356263
 121.8368434  52.9182426 117.5030190 120.8025020  51.8245201 117.6636157
 114.8769725  50.7244935 122.3373397 114.0868779  50.9802464 121.8613508
 115.3680972  51.5393273 122.4425438 116.8284470  51.0889514 119.2956874
 116.0315634  51.2008209 119.8140369 116.6010063  51.4276166 118.4297764
 122.6590138  57.6134217 127.2439388 122.7234571  58.0754625 128.0797560
 121.9501062  56.9831582 127.3721698 113.1607428  50.9775425 124.7688388
 113.4115466  51.8622435 125.0345964 113.6966976  50.7980027 123.9963480
 122.3738156  59.2802325 117.1118369 122.2383830  60.1253861 117.5403216
 122.9147968  59.4821603 116.3484302 115.8267553  56.7977763 117.6846294
 116.3392074  57.5921013 117.8351858 116.4790266  56.1004053 117.6179895
 117.6362438  59.9143519 119.7669047 117.8129066  60.8361484 119.5790031
 118.4319271  59.6001939 120.1963427 116.9214794  51.9608151 129.6431210
 116.8068309  51.0593408 129.9438309 116.0659312  52.2071848 129.2916027
 118.7593753  61.4321693 125.7679389 119.3101178  61.3038756 124.9956383
 117.9205229  61.7316582 125.4174282 122.5560924  57.6972821 130.1123620
 123.0889261  56.9361109 129.8822928 122.0275005  57.4046473 130.8547775
 113.7916470  55.1266417 118.4605864 114.6291692  55.5363426 118.2439572
 113.9694738  54.1865859 118.4306058 125.6880902  52.7941498 114.1489697
 125.1727525  53.5646103 114.3878085 125.4158210  52.1206634 114.7722759
 123.2728013  47.6391199 119.2074936 122.4169609  47.2498049 119.0280574
 123.6854965  47.7183160 118.3474721 121.0470046  45.2576272 122.6132677
 121.9123042  45.0619080 122.2538567 121.1147554  45.0286624 123.5402034
 130.6615176  55.5473853 116.0842871 129.8844619  55.2085012 115.6398033
 131.3406657  55.5526476 115.4097836 125.4767205  50.6668590 115.9749478
 125.1717341  50.9814739 116.8259622 126.4297647  50.7450010 116.0176811
 123.9213637  56.8258813 117.6242432 123.3934999  56.0911573 117.3115670
 123.4201140  57.6033490 117.3782401 128.9006483  55.0207834 122.7409479
 128.2430157  55.7107095 122.8289607 129.7046882  55.4104266 123.0843465
 118.6532365  47.4878480 119.9849044 119.2276117  47.2653661 119.2522237
 119.2403347  47.5567174 120.7377645 127.7111942  53.3752207 120.7913420
 128.2243824  54.0082198 121.2935130 128.3613166  52.7753402 120.4256780
 118.9801952  49.5182941 114.0044929 118.1439264  49.8557627 114.3254204
 118.8406721  49.3831920 113.0672066 120.9555032  44.3619729 118.7124113
 120.3019445  44.0468746 118.0880728 120.9135506  43.7395469 119.4383936
 122.0666237  54.6439024 110.6277405 121.1593299  54.4128277 110.8268554
 122.5637269  53.8476643 110.8151387 124.9734316  63.3536531 113.5474092
 124.2996015  63.6568228 114.1559049 125.3600138  64.1565611 113.1979549
 124.1892773  50.8501662 123.0371761 123.2715334  51.0716609 122.8793449
 124.6052916  50.9247973 122.1783468 124.9727820  52.2493078 118.1674441
 125.7199639  52.7614475 117.8581563 125.2419410  51.9277131 119.0278835
 123.2454471  54.7451619 115.1501395 122.3365690  54.4610651 115.2473865
 123.2749554  55.1650697 114.2904702 128.4773738  58.3558208 118.9192563
 128.0236065  57.5149118 118.9757754 127.8467705  58.9919606 119.2567343
 127.4206658  49.2850194 120.1493230 126.6829414  48.7727580 120.4803473
 127.6733431  48.8450576 119.3376507 126.9206677  60.1934705 119.8542381
 127.2129652  60.7539762 119.1354747 127.4305298  60.4863266 120.6095540
 113.8142641  52.4657133 119.1316598 113.6167041  51.8726493 118.4067664
 113.2589305  52.1609343 119.8492536 121.7939365  52.3580239 121.2511191
 121.8487974  51.4054076 121.1753667 120.9830567  52.5139678 121.7352489
 122.9430558  56.2860362 112.4889474 122.5049988  55.5696221 112.0295111
 123.6840999  56.5136477 111.9274565 119.7331725  50.9757299 119.0101570
 118.9199590  51.2751469 119.4166762 120.2290719  50.5812988 119.7276052
 121.8840302  60.9715056 120.9435834 121.8416481  61.1975902 120.0144366
 122.8003001  60.7378430 121.0921636 131.0603673  54.5617559 118.5465793
 130.9221572  54.7519155 117.6186982 130.7039892  55.3236942 119.0033844
 119.2245799  48.5475654 124.6262805 119.8645179  48.4064413 123.9285768
 118.3923330  48.2610168 124.2501407 120.0006103  57.8478085 120.7397797
 120.7946702  57.3528405 120.5380372 119.2897796  57.3195948 120.3765503
 124.8200948  60.2296180 125.0910165 124.8737970  60.7987117 125.8587881
 123.9515729  60.3998065 124.7264202 116.3088867  51.9921167 116.8157550
 115.3786455  51.9305622 117.0327512 116.4046339  51.4697119 116.0194191
 116.2274416  48.5175979 119.4035791 116.4881233  49.4321313 119.2944952
 117.0491588  48.0500422 119.5532404 117.6999341  49.9313737 126.5734616
 118.3722395  49.7231099 125.9247265 116.8729128  49.7335823 126.1339848
 123.7789047  54.3956442 126.6497097 124.7081107  54.5467602 126.4766064
 123.3580077  54.4840463 125.7945743 122.5777379  58.4207107 124.4195634
 122.4388465  58.0525891 125.2921572 121.7891975  58.9354746 124.2479592
 123.1725531  63.5216203 115.7621171 123.3477287  63.0504246 116.5766793
 122.4858319  64.1481969 115.9902431 124.1282594  57.7988709 121.8084472
 123.7932427  57.7589479 122.7042122 123.6286540  57.1333425 121.3354882
 118.1026838  53.2056340 127.3337053 117.9646636  52.4736578 127.9348592
 119.0131762  53.1165240 127.0521241 127.0641786  55.1444744 112.0821532
 126.4470957  54.4191572 111.9854584 126.5958275  55.9054104 111.7388606
 120.7309139  52.9176299 126.8220733 121.4408758  52.2769491 126.7807351
 120.6878447  53.1689194 127.7446914 117.7386617  66.6705566 122.5361031
 117.9783215  67.3024090 123.2140049 116.8955813  66.3193606 122.8226390
 118.8540332  49.3630168 111.2042836 117.9769798  49.2418969 110.8405083
 119.3298085  48.5716246 110.9521725 110.3742472  54.1507328 121.2984343
 111.0613512  53.8369058 120.7105358 110.2190601  55.0548692 121.0251594
 115.1777194  49.0397524 125.7269367 115.0935383  48.4323194 124.9919777
 114.3559901  49.5306543 125.7278863 122.2514478  62.4784688 124.9402535
 122.1784650  63.2839660 125.4521839 121.8091871  62.6776654 124.1150556
 122.0404258  61.7156458 118.4505356 121.2571780  62.2578139 118.5443581
 122.7397003  62.2330438 118.8499598 125.3500908  47.5251088 121.0939562
 125.8469608  46.7721050 120.7740632 124.5787890  47.5615405 120.5282771
 124.7113162  62.3771522 127.0960694 125.4241134  63.0118987 127.0236595
 124.2203191  62.4735388 126.2800695 126.4330689  56.2822775 118.6677985
 125.4986968  56.4024238 118.4982690 126.6107357  55.3795242 118.4037995
 121.9335877  49.6668471 120.8211246 121.5633664  49.1139511 121.5092152
 122.4294969  49.0626604 120.2686246 129.8203240  52.1240094 119.2028019
 130.2863692  52.9568086 119.1288322 130.2710741  51.6585076 119.9073278
 119.7625075  60.1265966 127.9166264 120.4634535  60.7602449 128.0695659
 119.2920190  60.4680697 127.1561904 127.8879471  58.4683916 116.2014171
 128.1639315  58.3540510 117.1108045 127.0183970  58.0701401 116.1626344
 124.5233535  62.7170267 119.8446985 124.7055930  61.8991923 120.3074737
 125.3466521  62.9337959 119.4071875 124.8575701  61.6438452 117.1062033
 125.3863467  61.1330906 116.4932196 125.1203920  61.3280982 117.9707567
 115.3592793  59.6602321 124.8497367 115.9446230  58.9146009 124.9825271
 115.1617632  59.9706278 125.7334031 118.2131449  62.6953568 119.8659809
 117.5441824  63.1799696 119.3823849 118.0744318  62.9422789 120.7803188
 109.9510448  52.2307921 123.5701810 109.9894548  51.6971512 124.3638928
 109.4450741  51.7043127 122.9512787 122.3536717  64.7297312 126.4642468
 122.9055025  64.8928933 127.2291553 122.6942911  65.3201750 125.7922493
 117.3301211  47.0772462 127.0664352 117.3942537  47.9387293 126.6541750
 117.2668331  46.4646463 126.3336711 113.5819026  50.9572023 116.6455742
 113.8772467  50.0482702 116.5922795 112.6807062  50.9359763 116.3236744
 125.4905105  62.6779287 123.4506150 125.3656244  61.8769027 122.9417095
 126.1484196  63.1725481 122.9620120 117.1113273  49.0328020 122.6283290
 116.3899859  49.6463988 122.4890763 117.9006529  49.5685785 122.5499936
 127.5540013  60.4788308 125.0785700 126.6070348  60.3593659 125.0064027
 127.9022786  59.5910806 125.1611961 115.3106867  48.6386121 116.7695067
 114.9819574  47.7583500 116.5870173 115.6646238  48.5833790 117.6571456
 124.5586446  60.2741024 121.2790052 124.4111409  59.3457731 121.4597622
 125.3839940  60.2961114 120.7947128 118.4248691  48.9259091 117.1370544
 118.7644763  49.4545012 116.4149153 118.8720811  49.2639497 117.9129111
 128.1620568  61.0969582 122.3654925 129.0867116  60.8912444 122.2279376
 127.9935871  60.8485984 123.2744267 120.4116838  47.4233712 115.3363837
 121.1325200  47.8014965 114.8327554 119.7882142  48.1422589 115.4398815
 124.5547961  48.1278861 116.2722170 124.7711575  49.0103499 115.9710998
 124.0742028  47.7365075 115.5427811 119.2947182  51.0864575 122.8492914
 119.1491763  51.4004878 123.7417196 118.8172386  51.7049475 122.2963813
 121.1543565  48.0767123 122.8973804 121.1405134  47.1808216 122.5606102
 121.8715993  48.0837786 123.5312090 127.9515884  61.6155250 117.7217016
 128.1252762  61.0501672 116.9690869 128.4444776  62.4156145 117.5396506
 113.7692844  53.6269919 125.7880575 113.2246312  54.4029727 125.9200850
 114.6472194  53.9740723 125.6299697 120.5580461  46.9581503 118.1661374
 120.6796372  46.0298149 118.3652261 120.2682503  46.9720189 117.2539689
 123.4271651  44.6436413 121.3028094 123.4493348  44.7075746 120.3480073
 123.8439710  43.8040922 121.4968600 133.8055275  54.3791673 119.3407316
 134.2486422  53.6298998 118.9426439 132.9281786  54.3701809 118.9581048
 128.9391057  60.9322014 114.8213915 129.6341961  61.5528707 115.0401229
 129.2814207  60.0817366 115.0966293 114.5558866  52.7539815 128.6810732
 113.8140602  52.9022451 129.2675363 114.2351610  53.0148081 127.8177482
 130.8382480  58.3821720 116.3501246 131.3633804  58.7208993 115.6250566
 130.7504832  57.4468735 116.1664380 122.5002529  62.2955794 128.4791122
 122.8089655  62.0504940 129.3513822 123.2978011  62.5002432 127.9909992
 122.5223141  64.4493703 120.7096499 122.0828131  63.9570082 121.4029355
 123.2731258  63.9066671 120.4688574 115.0015480  60.6405244 120.7121127
 115.8273500  60.3409016 120.3319770 114.6509532  59.8712866 121.1610915
 119.9697013  59.9931712 122.7818800 119.3477022  59.3302417 122.4821028
 120.6401880  60.0192844 122.0992448 113.2024085  58.5591570 121.6710060
 112.3655993  58.1313745 121.4894062 113.1747730  58.7524014 122.6080852
 119.5310520  58.5435636 116.2577261 119.6798640  59.2271100 115.6043934
 120.3376963  58.5240726 116.7726717 117.2863153  54.5700813 117.2638330
 117.0409195  53.6663143 117.4618540 117.4559067  54.5717964 116.3217808
 116.5558800  50.3029171 114.7624491 115.8628045  50.3773526 114.1064527
 116.3110552  49.5389514 115.2846008 123.0305925  61.0383766 113.7289008
 122.4579892  61.6573953 113.2759480 123.6038719  61.5883128 114.2628930
 126.2503185  61.3220916 114.8597591 127.1833858  61.2566478 115.0630466
 126.1626398  62.1577183 114.4012123 128.8791202  60.6386786 111.8201538
 128.8004833  60.3046650 112.7137296 129.7000869  61.1308554 111.8193011
 123.4152724  52.3744579 111.0705061 124.3611828  52.2450787 111.1393479
 123.0366969  51.6359241 111.5474489 121.5995641  50.2994555 111.0059946
 120.6927096  50.0027668 111.0822660 121.8771622  50.0024373 110.1394232
 112.5173581  51.6200919 121.4558992 112.1976366  50.7666227 121.1633366
 111.9707009  51.8349497 122.2116960 116.2953489  54.3363360 125.1728499
 116.5139499  55.2680467 125.1916533 116.7079263  53.9771334 125.9583303
 123.2157707  44.8431445 117.1604187 122.4058435  44.4978530 117.5359433
 123.9042124  44.5338989 117.7491799 125.1448255  43.9209492 118.7828484
 125.6979294  44.3404945 119.4418507 125.3818341  42.9945240 118.8251440
 120.3694426  47.1581490 111.1471925 121.2313590  47.4836389 111.4067743
 120.5544770  46.3712986 110.6344991 112.3861841  55.2403830 123.4252114
 111.6925313  54.8257783 122.9122068 113.1334832  55.2824367 122.8285533
 128.5227062  46.0310017 118.2907148 127.9425731  46.6894821 117.9085201
 128.2562995  45.2087361 117.8794566 114.2998584  55.1722084 121.3018129
 114.2769272  55.2709771 120.3500012 114.6099220  56.0187235 121.6235295
 116.9585962  57.2298239 125.4164743 117.9129215  57.1982181 125.3494675
 116.7598485  56.7688863 126.2314969 117.5485344  55.7999355 127.9835541
 118.3678233  56.2943434 128.0070378 117.8222152  54.8831323 127.9553109
 127.3051940  48.1910107 117.3463497 126.4177795  48.4759758 117.1283691
 127.7205929  48.0303871 116.4990773 115.3136190  62.7717858 122.4334941
 115.1790658  62.0118259 121.8672939 114.8968253  63.4958758 121.9663730
 126.4495153  57.9554782 111.4411517 127.1531004  58.1604784 112.0569172
 125.7257802  58.5231544 111.7060600 127.2792964  53.7064643 117.5613787
 127.2228165  54.1633195 116.7221419 127.8321306  52.9455328 117.3836629
 118.4705316  63.6687175 122.6453384 118.3537701  64.6132608 122.5432074
 117.6497763  63.3660737 123.0339183 128.3581851  58.3937311 113.4909977
 129.1927455  57.9618510 113.3087451 128.1966194  58.2219325 114.4186871
 128.0127743  54.8969424 114.8566316 127.9576547  54.7313696 113.9154760
 127.3873798  55.6045457 115.0128506 112.8020258  50.1337489 128.6827738
 113.4479122  49.6236443 129.1714963 112.5937409  50.8706170 129.2571163
 121.3223869  44.3977533 114.4351634 121.3102538  45.3419373 114.5919905
 122.2147290  44.2147679 114.1411095 119.4959830  64.3215437 125.8609312
 120.3987077  64.3539048 126.1775807 119.2697201  63.3915888 125.8755648
 121.2513432  63.0746424 122.5219391 120.3009064  63.0748285 122.4083763
 121.5545919  62.3279158 122.0055426 133.7955832  68.8634390 123.5226678
 133.4574344  68.7475455 122.6347213 134.6645600  68.4625555 123.5027684
 129.6542648  70.7169867 119.5123569 129.0907513  70.6259804 118.7439857
 129.5395043  69.8969771 119.9926061 127.2007080  72.2121058 122.3507789
 127.9928372  71.8711883 121.9354089 127.4403730  72.3216033 123.2709943
 135.2342207  74.3840834 114.8238034 134.5830186  74.9694915 114.4372048
 136.0286569  74.9147029 114.8833071 129.1597834  71.4729972 115.2225168
 129.9328710  70.9258959 115.0838044 129.5123233  72.3374221 115.4339630
 131.9239083  70.1783202 125.0193427 132.5202656  69.9539225 124.3050390
 131.9814055  69.4367948 125.6218875 131.4964112  67.6322638 112.8543618
 131.7489632  67.1104159 112.0927081 130.5588671  67.4688783 112.9570302
 136.5407394  66.6358416 120.6618361 137.3270484  66.2177839 120.3108778
 136.8046099  67.5404508 120.8300010 136.7117472  72.0731266 115.3607018
 136.0763305  72.1465893 116.0727923 136.3814878  72.6624865 114.6826097
 131.2160400  69.5350744 115.0567993 131.0996658  68.8595647 115.7249077
 131.3262660  69.0483118 114.2400146 133.5591941  68.9960891 118.7614682
 133.1950149  68.4691512 119.4727604 134.4159057  68.6059360 118.5881168
 133.1997428  64.0250790 113.7576031 133.3671831  64.8931027 114.1246502
 133.0094597  64.1878072 112.8337320 129.4085243  68.9381566 121.4578566
 128.4835739  68.8057780 121.6656257 129.6569656  69.7175785 121.9548508
 133.1786649  66.4808448 114.7422698 133.0586274  66.9265499 115.5808178
 132.4839238  66.8293766 114.1836236 126.7694054  68.5814840 122.2922355
 126.8986435  68.8349319 123.2061766 126.0891505  69.1742548 121.9727010
 130.9393541  79.2512090 118.3912829 130.8617571  80.2019915 118.4701309
 130.3355185  78.9057962 119.0487755 133.0369260  71.6730148 120.2266698
 133.5007605  71.9517851 119.4371321 132.7726058  70.7713592 120.0439789
 129.9293341  71.2201629 123.1646462 130.4994698  71.6488898 122.5263946
 130.5201452  70.9384214 123.8630647 131.9738146  67.7953300 117.0356263
 132.6762189  68.2474344 117.5030190 131.6418774  67.1537119 117.6636157
 125.7163480  66.0536853 122.3373397 124.9262534  66.3094381 121.8613508
 126.2074727  66.8685191 122.4425438 127.6678225  66.4181432 119.2956874
 126.8709388  66.5300126 119.8140369 127.4403817  66.7568084 118.4297764
 124.0001183  66.3067343 124.7688388 124.2509221  67.1914353 125.0345964
 124.5360731  66.1271945 123.9963480 133.2131910  74.6094243 117.1118369
 133.0777585  75.4545778 117.5403216 133.7541723  74.8113520 116.3484302
 126.6661308  72.1269681 117.6846294 127.1785828  72.9212931 117.8351858
 127.3184020  71.4295971 117.6179895 128.4756192  75.2435437 119.7669047
 128.6522821  76.1653402 119.5790031 129.2713026  74.9293856 120.1963427
 127.7608549  67.2900069 129.6431210 127.6462064  66.3885326 129.9438309
 126.9053067  67.5363766 129.2916027 124.6310224  70.4558335 118.4605864
 125.4685446  70.8655343 118.2439572 124.8088492  69.5157777 118.4306058
 136.5274656  68.1233416 114.1489697 136.0121280  68.8938020 114.3878085
 136.2551965  67.4498552 114.7722759 134.1121768  62.9683116 119.2074936
 133.2563364  62.5789967 119.0280574 134.5248719  63.0475077 118.3474721
 131.8863800  60.5868189 122.6132677 132.7516797  60.3910998 122.2538567
 131.9541309  60.3578541 123.5402034 136.3160960  65.9960508 115.9749478
 136.0111095  66.3106657 116.8259622 137.2691402  66.0741928 116.0176811
 134.7607392  72.1550731 117.6242432 134.2328753  71.4203491 117.3115670
 134.2594894  72.9325407 117.3782401 129.4926119  62.8170397 119.9849044
 130.0669871  62.5945579 119.2522237 130.0797102  62.8859092 120.7377645
 129.8195706  64.8474858 114.0044929 128.9833018  65.1849545 114.3254204
 129.6800476  64.7123838 113.0672066 131.7948787  59.6911646 118.7124113
 131.1413199  59.3760663 118.0880728 131.7529261  59.0687387 119.4383936
 132.9059992  69.9730941 110.6277405 131.9987053  69.7420195 110.8268554
 133.4031024  69.1768561 110.8151387 135.8128071  78.6828449 113.5474092
 135.1389769  78.9860145 114.1559049 136.1993893  79.4857529 113.1979549
 135.0286527  66.1793580 123.0371761 134.1109089  66.4008527 122.8793449
 135.4446671  66.2539890 122.1783468 135.8121575  67.5784995 118.1674441
 136.5593394  68.0906393 117.8581563 136.0813164  67.2569048 119.0278835
 134.0848225  70.0743536 115.1501395 133.1759444  69.7902569 115.2473865
 134.1143309  70.4942615 114.2904702 124.6536396  67.7949050 119.1316598
 124.4560795  67.2018411 118.4067664 124.0983060  67.4901260 119.8492536
 132.6333119  67.6872157 121.2511191 132.6881729  66.7345993 121.1753667
 131.8224321  67.8431596 121.7352489 133.7824313  71.6152280 112.4889474
 133.3443743  70.8988139 112.0295111 134.5234754  71.8428395 111.9274565
 130.5725479  66.3049217 119.0101570 129.7593345  66.6043387 119.4166762
 131.0684473  65.9104905 119.7276052 132.7234057  76.3006973 120.9435834
 132.6810236  76.5267820 120.0144366 133.6396756  76.0670348 121.0921636
 130.0639554  63.8767572 124.6262805 130.7038933  63.7356331 123.9285768
 129.2317084  63.5902085 124.2501407 130.8399858  73.1770002 120.7397797
 131.6340456  72.6820323 120.5380372 130.1291550  72.6487866 120.3765503
 127.1482621  67.3213084 116.8157550 126.2180209  67.2597540 117.0327512
 127.2440093  66.7989037 116.0194191 127.0668170  63.8467897 119.4035791
 127.3274988  64.7613230 119.2944952 127.8885343  63.3792340 119.5532404
 128.5393096  65.2605654 126.5734616 129.2116149  65.0523016 125.9247265
 127.7122882  65.0627740 126.1339848 134.0119286  78.8508121 115.7621171
 134.1871041  78.3796164 116.5766793 133.3252074  79.4773887 115.9902431
 134.9676349  73.1280627 121.8084472 134.6326182  73.0881397 122.7042122
 134.4680295  72.4625343 121.3354882 128.9420593  68.5348257 127.3337053
 128.8040391  67.8028496 127.9348592 129.8525516  68.4457157 127.0521241
 131.5702894  68.2468217 126.8220733 132.2802512  67.6061409 126.7807351
 131.5272202  68.4981111 127.7446914 129.6934086  64.6922086 111.2042836
 128.8163553  64.5710887 110.8405083 130.1691840  63.9008164 110.9521725
 121.2136227  69.4799246 121.2984343 121.9007266  69.1660976 120.7105358
 121.0584355  70.3840610 121.0251594 126.0170949  64.3689442 125.7269367
 125.9329137  63.7615112 124.9919777 125.1953655  64.8598460 125.7278863
 132.8798012  77.0448376 118.4505356 132.0965534  77.5870056 118.5443581
 133.5790758  77.5622356 118.8499598 136.1894663  62.8543006 121.0939562
 136.6863362  62.1012968 120.7740632 135.4181644  62.8907322 120.5282771
 137.2724443  71.6114693 118.6677985 136.3380722  71.7316155 118.4982690
 137.4501112  70.7087160 118.4037995 132.7729631  64.9960389 120.8211246
 132.4027419  64.4431429 121.5092152 133.2688724  64.3918522 120.2686246
 135.3627290  78.0462184 119.8446985 135.5449684  77.2283840 120.3074737
 136.1860276  78.2629877 119.4071875 135.6969455  76.9730369 117.1062033
 136.2257222  76.4622824 116.4932196 135.9597675  76.6572900 117.9707567
 126.1986548  74.9894239 124.8497367 126.7839985  74.2437927 124.9825271
 126.0011386  75.2998195 125.7334031 129.0525203  78.0245486 119.8659809
 128.3835578  78.5091614 119.3823849 128.9138073  78.2714707 120.7803188
 120.7904203  67.5599839 123.5701810 120.8288302  67.0263430 124.3638928
 120.2844496  67.0335044 122.9512787 128.1694965  62.4064379 127.0664352
 128.2336292  63.2679210 126.6541750 128.1062085  61.7938381 126.3336711
 124.4212780  66.2863941 116.6455742 124.7166221  65.3774619 116.5922795
 123.5200816  66.2651680 116.3236744 127.9507027  64.3619938 122.6283290
 127.2293613  64.9755905 122.4890763 128.7400283  64.8977702 122.5499936
 126.1500622  63.9678039 116.7695067 125.8213328  63.0875418 116.5870173
 126.5039993  63.9125707 117.6571456 135.3980201  75.6032941 121.2790052
 135.2505163  74.6749649 121.4597622 136.2233694  75.6253032 120.7947128
 129.2642445  64.2551009 117.1370544 129.6038518  64.7836930 116.4149153
 129.7114566  64.5931415 117.9129111 131.2510592  62.7525630 115.3363837
 131.9718955  63.1306883 114.8327554 130.6275896  63.4714507 115.4398815
 135.3941715  63.4570779 116.2722170 135.6105329  64.3395417 115.9710998
 134.9135782  63.0656992 115.5427811 130.1340936  66.4156492 122.8492914
 129.9885517  66.7296795 123.7417196 129.6566140  67.0341393 122.2963813
 131.9937319  63.4059040 122.8973804 131.9798888  62.5100134 122.5606102
 132.7109747  63.4129704 123.5312090 124.6086599  68.9561837 125.7880575
 124.0640067  69.7321645 125.9200850 125.4865948  69.3032641 125.6299697
 131.3974215  62.2873421 118.1661374 131.5190126  61.3590067 118.3652261
 131.1076258  62.3012107 117.2539689 134.2665406  59.9728331 121.3028094
 134.2887102  60.0367664 120.3480073 134.6833465  59.1332840 121.4968600
 125.3952620  68.0831733 128.6810732 124.6534357  68.2314368 129.2675363
 125.0745365  68.3439999 127.8177482 125.8409234  75.9697162 120.7121127
 126.6667254  75.6700934 120.3319770 125.4903286  75.2004784 121.1610915
 130.8090767  75.3223630 122.7818800 130.1870777  74.6594335 122.4821028
 131.4795634  75.3484762 122.0992448 124.0417839  73.8883488 121.6710060
 123.2049747  73.4605662 121.4894062 124.0141485  74.0815931 122.6080852
 130.3704274  73.8727553 116.2577261 130.5192395  74.5563018 115.6043934
 131.1770718  73.8532643 116.7726717 128.1256907  69.8992731 117.2638330
 127.8802949  68.9955061 117.4618540 128.2952822  69.9009881 116.3217808
 127.3952555  65.6321088 114.7624491 126.7021800  65.7065443 114.1064527
 127.1504307  64.8681432 115.2846008 133.8699680  76.3675684 113.7289008
 133.2973647  76.9865871 113.2759480 134.4432473  76.9175045 114.2628930
 134.2546478  67.7036496 111.0705061 135.2005583  67.5742705 111.1393479
 133.8760723  66.9651158 111.5474489 132.4389395  65.6286473 111.0059946
 131.5320851  65.3319586 111.0822660 132.7165376  65.3316291 110.1394232
 123.3567336  66.9492836 121.4558992 123.0370120  66.0958144 121.1633366
 122.8100764  67.1641414 122.2116960 127.1347243  69.6655277 125.1728499
 127.3533253  70.5972385 125.1916533 127.5473017  69.3063252 125.9583303
 134.0551461  60.1723363 117.1604187 133.2452189  59.8270448 117.5359433
 134.7435878  59.8630906 117.7491799 135.9842009  59.2501409 118.7828484
 136.5373048  59.6696863 119.4418507 136.2212096  58.3237157 118.8251440
 131.2088180  62.4873408 111.1471925 132.0707344  62.8128306 111.4067743
 131.3938524  61.7004904 110.6344991 123.2255596  70.5695748 123.4252114
 122.5319067  70.1549701 122.9122068 123.9728587  70.6116284 122.8285533
 125.1392338  70.5014002 121.3018129 125.1163026  70.6001689 120.3500012
 125.4492975  71.3479152 121.6235295 127.7979716  72.5590157 125.4164743
 128.7522970  72.5274099 125.3494675 127.5992240  72.0980780 126.2314969
 126.1529945  78.1009776 122.4334941 126.0184413  77.3410177 121.8672939
 125.7362007  78.8250676 121.9663730 123.6414013  65.4629406 128.6827738
 124.2872876  64.9528360 129.1714963 123.4331164  66.1998088 129.2571163
 132.1617623  59.7269451 114.4351634 132.1496293  60.6711291 114.5919905
 133.0541045  59.5439596 114.1411095 135.2606535  81.6155859 116.6455742
 135.5559976  80.7066537 116.5922795 134.3594571  81.5943598 116.3236744
 136.9894376  79.2969956 116.7695067 136.6607083  78.4167335 116.5870173
 137.3433747  79.2417625 117.6571456  98.4212279  10.2698459 105.1158136
  98.3436309  11.2206284 105.1946616  97.8173923   9.9244332 105.7733062
  97.0806246   7.7799980 112.4924696  97.6313671   7.6517044 111.7201690
  96.2417721   8.0794869 112.1419589 103.2946808   9.7014818 100.2719398
 102.6208507  10.0046515 100.8804356 103.6812630  10.5043898  99.9224855
 101.4938024   9.8694490 102.4866477 101.6689779   9.3982534 103.3012100
 100.8070812  10.4960257 102.7147738  96.0599109  13.0183853 109.2606338
  96.2995707  13.6502377 109.9385356  95.2168305  12.6671893 109.5471697
 100.5726971   8.8262976 111.6647842 100.4997142   9.6317947 112.1767146
 100.1304364   9.0254942 110.8395863 100.3616750   8.0634746 105.1750663
  99.5784272   8.6056426 105.2688888 101.0609495   8.5808725 105.5744904
 103.0325654   8.7249810 113.8206000 103.7453626   9.3597275 113.7481902
 102.5415683   8.8213676 113.0046002  93.6805286   6.0080608 111.5742674
  94.2658723   5.2624296 111.7070578  93.4830124   6.3184565 112.4579338
  96.5343941   9.0431856 106.5905116  95.8654316   9.5277983 106.1069156
  96.3956811   9.2901076 107.5048495 100.6749210  11.0775599 113.1887774
 101.2267518  11.2407221 113.9536860 101.0155403  11.6680037 112.5167799
 100.8215021   8.6434081 115.2036429 101.1302147   8.3983228 116.0759128
 101.6190503   8.8480719 114.7155299 100.8435633  10.7971990 107.4341805
 100.4040623  10.3048369 108.1274662 101.5943750  10.2544958 107.1933881
  93.3227972   6.9883531 107.4366433  94.1485992   6.6887303 107.0565077
  92.9722024   6.2191154 107.8856222  91.5236577   4.9069858 108.3955367
  90.6868485   4.4792032 108.2139368  91.4960222   5.1002301 109.3326158
  93.6348683   9.1196146 109.1580248  93.5003151   8.3596546 108.5918246
  93.2180745   9.8437045 108.6909037  96.7917809  10.0165463 109.3698691
  96.6750193  10.9610895 109.2677381  95.9710255   9.7139024 109.7584490
  97.8172323  10.6693725 112.5854619  98.7199569  10.7017335 112.9021114
  97.5909693   9.7394175 112.6000955  99.5725925   9.4224711 109.2464698
  98.6221556   9.4226573 109.1329070  99.8758411   8.6757446 108.7300732
 115.3078618  15.2585249 110.3110460 115.9457028  15.1391997 109.6073800
 115.1899461  16.2066093 110.3698412 112.1168325  15.2112678 110.2471985
 111.7786836  15.0953742 109.3592520 112.9858093  14.8103843 110.2272991
 107.9755140  17.0648154 106.2368876 107.4120005  16.9738091 105.4685163
 107.8607535  16.2448058 106.7171368 105.5219572  18.5599346 109.0753096
 106.3140864  18.2190170 108.6599395 105.7616222  18.6694321 109.9955249
 113.5554699  20.7319122 101.5483341 112.9042679  21.3173202 101.1617354
 114.3499062  21.2625317 101.6078378 107.4810326  17.8208259 101.9470475
 108.2541202  17.2737246 101.8083351 107.8335725  18.6852508 102.1584936
 109.3195369  19.1484641 115.1537374 109.0285235  20.0530272 115.0384040
 109.9552353  19.1901169 115.8681444 110.2451576  16.5261490 111.7438734
 110.8415148  16.3017512 111.0295697 110.3026547  15.7846235 112.3464182
 109.8176604  13.9800925  99.5788925 110.0702125  13.4582446  98.8172388
 108.8801163  13.8167070  99.6815608 115.0329964  18.4209554 102.0852325
 114.3975797  18.4944180 102.7973229 114.7027371  19.0103152 101.4071404
 109.5372893  15.8829031 101.7813300 109.4209151  15.2073934 102.4494384
 109.6475153  15.3961405 100.9645453 111.8804434  15.3439178 105.4859989
 111.5162641  14.8169799 106.1972910 112.7371550  14.9537647 105.3126474
 114.2785254  18.8346057 112.1487168 113.9785977  19.7371095 112.0402975
 113.9336313  18.5678240 113.0008321 107.7297735  15.2859853 108.1823872
 106.8048232  15.1536068 108.3901564 107.9782148  16.0654073 108.6793815
 111.4999141  12.8286735 101.4668004 111.3798767  13.2743786 102.3053485
 110.8051730  13.1772053 100.9081542 105.0906546  14.9293127 109.0167661
 105.2198927  15.1827606 109.9307073 104.4103998  15.5220835 108.6972316
 109.2606034  25.5990377 105.1158136 109.1830063  26.5498202 105.1946616
 108.6567677  25.2536249 105.7733062 115.8053790  18.2834027 109.6861920
 115.1762652  18.4479741 108.9837988 115.4179452  18.6975636 110.4572884
 119.6843022  19.2188465 107.0406284 118.9994060  19.5987366 106.4903317
 119.7686871  19.8283791 107.7738231 111.3581752  18.0208435 106.9512005
 111.8220097  18.2996138 106.1616627 111.0938550  17.1191879 106.7685096
 108.2505833  17.5679916 109.8891768 108.8207190  17.9967185 109.2509253
 108.8413945  17.2862501 110.5875954 110.2950638  14.1431587 103.7601570
 110.9974681  14.5952631 104.2275496 109.9631266  13.5015406 104.3881463
 104.0375972  12.4015140 109.0618704 103.2475026  12.6572668 108.5858814
 104.5287219  13.2163478 109.1670744 105.9890717  12.7659719 106.0202180
 105.1921880  12.8778413 106.5385676 105.7616309  13.1046371 105.1543071
 111.8196385  19.2904422 113.9684695 111.8840817  19.7524830 114.8042867
 111.1107309  18.6601787 114.0967005 102.3213675  12.6545630 111.4933694
 102.5721713  13.5392640 111.7591270 102.8573223  12.4750232 110.7208786
 111.5344402  20.9572530 103.8363675 111.3990077  21.8024066 104.2648523
 112.0754215  21.1591808 103.0729609 104.9873800  18.4747968 104.4091600
 105.4998320  19.2691218 104.5597165 105.6396513  17.7774258 104.3425202
 106.7968685  21.5913724 106.4914354 106.9735313  22.5131689 106.3035337
 107.5925518  21.2772143 106.9208733 106.0821041  13.6378356 116.3676517
 105.9674556  12.7363613 116.6683616 105.2265559  13.8842053 116.0161333
 107.9200000  23.1091898 112.4924696 108.4707425  22.9808961 111.7201690
 107.0811476  23.4086787 112.1419589 111.7167171  19.3743026 116.8368927
 112.2495508  18.6131314 116.6068235 111.1881252  19.0816678 117.5793081
 102.9522717  16.8036622 105.1851171 103.7897939  17.2133631 104.9684879
 103.1300984  15.8636064 105.1551365 114.8487149  14.4711703 100.8735004
 114.3333772  15.2416308 101.1123391 114.5764457  13.7976839 101.4968065
 119.8221423  17.2244058 102.8088177 119.0450866  16.8855217 102.3643339
 120.5012904  17.2296681 102.1343142 113.0819884  18.5029018 104.3487739
 112.5541245  17.7681778 104.0360976 112.5807387  19.2803695 104.1027707
 118.0612730  16.6978039 109.4654785 117.4036404  17.3877300 109.5534914
 118.8653129  17.0874471 109.8088772 116.8718189  15.0522411 107.5158727
 117.3850070  15.6852403 108.0180437 117.5219412  14.4523607 107.1502087
 108.1408199  11.1953146 100.7290236 107.3045511  11.5327832 101.0499511
 108.0012968  11.0602125  99.7917373 111.2272484  16.3209229  97.3522712
 110.3199546  16.0898482  97.5513861 111.7243516  15.5246848  97.5396694
 114.1340563  25.0306736 100.2719398 113.4602262  25.3338433 100.8804356
 114.5206385  25.8335816  99.9224855 113.3499019  12.5271867 109.7617068
 112.4321581  12.7486814 109.6038756 113.7659163  12.6018177 108.9028775
 114.1334067  13.9263283 104.8919748 114.8805886  14.4384680 104.5826870
 114.4025657  13.6047335 105.7524141 112.4060717  16.4221823 101.8746702
 111.4971937  16.1380856 101.9719172 112.4355801  16.8420902 101.0150009
 117.6379985  20.0328413 105.6437870 117.1842312  19.1919323 105.7003060
 117.0073952  20.6689811 105.9812650 116.0812924  21.8704910 106.5787688
 116.3735898  22.4309967 105.8600053 116.5911545  22.1633471 107.3340847
 102.9748888  14.1427338 105.8561904 102.7773288  13.5496698 105.1312971
 102.4195552  13.8379548 106.5737843 110.9545611  14.0350444 107.9756497
 111.0094221  13.0824280 107.8998974 110.1436813  14.1909883 108.4597796
 112.1036805  17.9630567  99.2134781 111.6656235  17.2466426  98.7540418
 112.8447246  18.1906682  98.6519872 108.8937971  12.6527504 105.7346876
 108.0805837  12.9521674 106.1412068 109.3896966  12.2583193 106.4521359
 111.0446549  22.6485261 107.6681141 111.0022728  22.8746107 106.7389673
 111.9609248  22.4148635 107.8166942 120.2209920  16.2387764 105.2711099
 120.0827819  16.4289360 104.3432288 119.8646139  17.0007147 105.7279150
 109.1612350  19.5248290 107.4643104 109.9552949  19.0298610 107.2625679
 108.4504042  18.9966153 107.1010809 113.9807194  21.9066385 111.8155471
 114.0344217  22.4757322 112.5833187 113.1121976  22.0768270 111.4509509
 105.4695113  13.6691371 103.5402856 104.5392702  13.6075827 103.7572819
 105.5652585  13.1467324 102.7439498 105.3880663  10.1946184 106.1281098
 105.6487480  11.1091518 106.0190259 106.2097835   9.7270627 106.2777711
 106.8605588  11.6083941 113.2979923 107.5328641  11.4001304 112.6492572
 106.0335374  11.4106027 112.8585155 112.9395294  16.0726647 113.3742403
 113.8687354  16.2237807 113.2011371 112.5186324  16.1610668 112.5191050
 111.7383626  20.0977312 111.1440941 111.5994712  19.7296096 112.0166879
 110.9498222  20.6124951 110.9724899 112.3331778  25.1986408 102.4866477
 112.5083534  24.7274451 103.3012100 111.6464566  25.8252174 102.7147738
 113.2888841  19.4758914 108.5329779 112.9538674  19.4359684 109.4287429
 112.7892787  18.8103630 108.0600189 107.2633085  14.8826544 114.0582360
 107.1252883  14.1506783 114.6593899 108.1738009  14.7935445 113.7766548
 116.2248033  16.8214949  98.8066838 115.6077203  16.0961777  98.7099891
 115.7564521  17.5824309  98.4633913 109.8915386  14.5946504 113.5466039
 110.6015004  13.9539696 113.5052658 109.8484694  14.8459399 114.4692220
 106.8992863  28.3475771 109.2606338 107.1389462  28.9794295 109.9385356
 106.0562060  27.9963811 109.5471697 108.0146579  11.0400373  97.9288143
 107.1376045  10.9189174  97.5650389 108.4904332  10.2486451  97.6767031
  99.5348719  15.8277533 108.0229650 100.2219759  15.5139263 107.4350665
  99.3796848  16.7318897 107.7496901 104.3383441  10.7167729 112.4514673
 104.2541630  10.1093399 111.7165083 103.5166147  11.2076748 112.4524170
 111.4120725  24.1554893 111.6647842 111.3390897  24.9609865 112.1767146
 110.9698118  24.3546859 110.8395863 111.2010505  23.3926663 105.1750663
 110.4178027  23.9348344 105.2688888 111.9003250  23.9100643 105.5744904
 113.8719409  24.0541727 113.8206000 114.5847381  24.6889192 113.7481902
 113.3809437  24.1505593 113.0046002 115.5936936  17.9592980 105.3923292
 114.6593214  18.0794443 105.2227996 115.7713604  17.0565447 105.1283302
 108.9231322  21.8036171 114.6411571 109.6240782  22.4372654 114.7940965
 108.4526437  22.1450902 113.8807210 117.0485718  20.1454121 102.9259478
 117.3245562  20.0310715 103.8353352 116.1790217  19.7471606 102.8871651
 113.6839782  24.3940472 106.5692292 113.8662177  23.5762127 107.0320044
 114.5072768  24.6108164 106.1317182 114.0181948  23.3208657 103.8307340
 114.5469714  22.8101111 103.2177502 114.2810167  23.0051187 104.6952873
 104.5199040  21.3372526 111.5742674 105.1052477  20.5916214 111.7070578
 104.3223879  21.6476483 112.4579338 107.3737695  24.3723773 106.5905116
 106.7048071  24.8569901 106.1069156 107.2350565  24.6192994 107.5048495
  99.1116695  13.9078126 110.2947117  99.1500795  13.3741717 111.0884235
  98.6056988  13.3813332 109.6758094 111.5142964  26.4067517 113.1887774
 112.0661272  26.5699138 113.9536860 111.8549158  26.9971955 112.5167799
 102.7425273  12.6342228 103.3701048 103.0378714  11.7252907 103.3168102
 101.8413308  12.6129968 103.0482051 114.6511351  24.3549492 110.1751457
 114.5262491  23.5539232 109.6662402 115.3090442  24.8495686 109.6865427
 106.2719520  10.7098225 109.3528597 105.5506105  11.3234193 109.2136070
 107.0612775  11.2455990 109.2745243 116.7146260  22.1558512 111.8031007
 115.7676595  22.0363864 111.7309333 117.0629033  21.2681010 111.8857268
 104.4713114  10.3156326 103.4940373 104.1425820   9.4353705 103.3115479
 104.8252485  10.2603995 104.3816763 113.7192693  21.9511229 108.0035359
 113.5717655  21.0227936 108.1842929 114.5446187  21.9731319 107.5192434
 107.5854937  10.6029296 103.8615851 107.9251010  11.1315217 103.1394459
 108.0327058  10.9409702 104.6374418 117.3226815  22.7739787 109.0900232
 118.2473362  22.5682649 108.9524683 117.1542118  22.5256189 109.9989573
 108.4553429  12.7634780 109.5738221 108.3098009  13.0775083 110.4662502
 107.9778632  13.3819680 109.0209119 117.1122131  23.2925455 104.4462323
 117.2859009  22.7271877 103.6936176 117.6051022  24.0926350 104.2641813
 102.9299091  15.3040124 112.5125882 102.3852559  16.0799932 112.6446156
 103.8078441  15.6510928 112.3545003 118.0997304  22.6092219 101.5459221
 118.7948208  23.2298912 101.7646536 118.4420454  21.7587570 101.8211599
 103.7165113  14.4310020 115.4056039 102.9746849  14.5792656 115.9920669
 103.3957857  14.6918286 114.5422788 119.9988727  20.0591925 103.0746552
 120.5240051  20.3979198 102.3495872 119.9111079  19.1238940 102.8909687
 111.6608775  23.9725998 115.2036429 111.9695902  23.7275145 116.0759128
 112.4584257  24.1772637 114.7155299 111.6829387  26.1263908 107.4341805
 111.2434378  25.6340287 108.1274662 112.4337504  25.5836876 107.1933881
 104.1621726  22.3175449 107.4366433 104.9879746  22.0179221 107.0565077
 103.8115778  21.5483071 107.8856222 109.1303260  21.6701917 109.5064107
 108.5083269  21.0072622 109.2066335 109.8008126  21.6963049 108.8237755
 102.3630331  20.2361775 108.3955367 101.5262240  19.8083950 108.2139368
 102.3353977  20.4294219 109.3326158 108.6916766  20.2205840 102.9822568
 108.8404887  20.9041305 102.3289240 109.4983210  20.2010931 103.4972023
 106.4469399  16.2471018 103.9883636 106.2015441  15.3433348 104.1863847
 106.6165314  16.2488169 103.0463114 105.7165047  11.9799376 101.4869798
 105.0234292  12.0543731 100.8309834 105.4716799  11.2159719 102.0091315
 112.1912172  22.7153971 100.4534315 111.6186139  23.3344158 100.0004787
 112.7644966  23.2653333 100.9874237 115.4109432  22.9991121 101.5842897
 116.3440105  22.9336683 101.7875773 115.3232645  23.8347388 101.1257430
 118.0397448  22.3156991  98.5446845 117.9611080  21.9816855  99.4382603
 118.8607115  22.8078759  98.5438317 112.5758971  14.0514784  97.7950367
 113.5218075  13.9220992  97.8638786 112.1973215  13.3129446  98.2719796
 110.7601888  11.9764760  97.7305253 109.8533343  11.6797873  97.8067966
 111.0377869  11.6794578  96.8639539 101.6779828  13.2971123 108.1804299
 101.3582612  12.4436432 107.8878673 101.1313256  13.5119702 108.9362266
 105.4559736  16.0133564 111.8973806 105.6745745  16.9450672 111.9161839
 105.8685509  15.6541539 112.6828609 101.5468088  16.9174035 110.1497421
 100.8531559  16.5027988 109.6367375 102.2941079  16.9594571 109.5530840
 103.4604831  16.8492289 108.0263436 103.4375519  16.9479976 107.0745319
 103.7705467  17.6957440 108.3480602 106.1192208  18.9068444 112.1410050
 107.0735462  18.8752386 112.0739982 105.9204732  18.4459068 112.9560276
 106.7091591  17.4769560 114.7080848 107.5284480  17.9713639 114.7315685
 106.9828398  16.5601528 114.6798415 104.4742437  24.4488063 109.1580248
 104.3396905  23.6888464 108.5918246 104.0574500  25.1728963 108.6909037
 115.6101400  19.6324987  98.1656823 116.3137250  19.8374989  98.7814479
 114.8864049  20.2001749  98.4305907 116.4399211  15.3834848 104.2859093
 116.3834412  15.8403399 103.4466726 116.9927553  14.6225533 104.1081936
 107.6311563  25.3457380 109.3698691 107.5143947  26.2902813 109.2677381
 106.8104009  25.0430942 109.7584490 117.5188098  20.0707516 100.2155283
 118.3533702  19.6388714 100.0332758 117.3572441  19.8989530 101.1432178
 117.1733990  16.5739629 101.5811623 117.1182794  16.4083901 100.6400067
 116.5480045  17.2815662 101.7373812 101.9626505  11.8107694 115.4073045
 102.6085368  11.3006648 115.8960270 101.7543656  12.5476375 115.9816470
 108.6566077  25.9985642 112.5854619 109.5593324  26.0309252 112.9021114
 108.4303447  25.0686093 112.6000955 110.4119679  24.7516629 109.2464698
 109.4615310  24.7518490 109.1329070 110.7152165  24.0049363 108.7300732
 126.1472373  30.5877167 110.3110460 126.7850783  30.4683914 109.6073800
 126.0293216  31.5358011 110.3698412 122.9562079  30.5404595 110.2471985
 122.6180591  30.4245660 109.3592520 123.8251847  30.1395760 110.2272991
 118.8148895  32.3940072 106.2368876 118.2513760  32.3030009 105.4685163
 118.7001290  31.5739976 106.7171368 116.3613327  33.8891263 109.0753096
 117.1534619  33.5482088 108.6599395 116.6009977  33.9986238 109.9955249
 124.3948453  36.0611039 101.5483341 123.7436433  36.6465120 101.1617354
 125.1892816  36.5917234 101.6078378 118.3204081  33.1500176 101.9470475
 119.0934957  32.6029164 101.8083351 118.6729479  34.0144426 102.1584936
 120.1589123  34.4776559 115.1537374 119.8678989  35.3822190 115.0384040
 120.7946108  34.5193086 115.8681444 121.0845330  31.8553407 111.7438734
 121.6808902  31.6309430 111.0295697 121.1420302  31.1138153 112.3464182
 120.6570358  29.3092843  99.5788925 120.9095879  28.7874364  98.8172388
 119.7194918  29.1458988  99.6815608 125.7013641  28.3128621 107.3863668
 126.4876730  27.8948044 107.0354085 125.9652346  29.2174713 107.5545316
 125.8723719  33.7501471 102.0852325 125.2369552  33.8236098 102.7973229
 125.5421125  34.3395070 101.4071404 120.3766647  31.2120949 101.7813300
 120.2602905  30.5365852 102.4494384 120.4868907  30.7253322 100.9645453
 122.7198188  30.6731096 105.4859989 122.3556395  30.1461717 106.1972910
 123.5765304  30.2829565 105.3126474 122.3603675  25.7020995 100.4821337
 122.5278077  26.5701232 100.8491809 122.1700844  25.8648277  99.5582627
 125.1179008  34.1637974 112.1487168 124.8179731  35.0663013 112.0402975
 124.7730068  33.8970157 113.0008321 118.5691490  30.6151771 108.1823872
 117.6441986  30.4827985 108.3901564 118.8175903  31.3945990 108.6793815
 122.3392896  28.1578653 101.4668004 122.2192521  28.6035704 102.3053485
 121.6445484  28.5063971 100.9081542 115.9300301  30.2585045 109.0167661
 116.0592682  30.5119524 109.9307073 115.2497752  30.8512753 108.6972316
 120.0999788  40.9282295 105.1158136 120.0223818  41.8790120 105.1946616
 119.4961432  40.5828167 105.7733062 128.0377962  28.6300126 102.2948338
 128.9495818  28.8627513 102.1196036 127.5287609  29.2137170 101.7323417
 126.6447544  33.6125944 109.6861920 126.0156407  33.7771659 108.9837988
 126.2573206  34.0267554 110.4572884 130.5236776  34.5480382 107.0406284
 129.8387814  34.9279284 106.4903317 130.6080626  35.1575709 107.7738231
 122.1975506  33.3500353 106.9512005 122.6613852  33.6288056 106.1616627
 121.9332304  32.4483797 106.7685096 119.0899587  32.8971834 109.8891768
 119.6600944  33.3259102 109.2509253 119.6807699  32.6154419 110.5875954
 121.1344392  29.4723505 103.7601570 121.8368436  29.9244549 104.2275496
 120.8025021  28.8307324 104.3881463 114.8769726  27.7307058 109.0618704
 114.0868780  27.9864586 108.5858814 115.3680974  28.5455395 109.1670744
 116.8284472  28.0951637 106.0202180 116.0315635  28.2070331 106.5385676
 116.6010064  28.4338289 105.1543071 122.6590139  34.6196340 113.9684695
 122.7234572  35.0816747 114.8042867 121.9501063  33.9893705 114.0967005
 113.1607429  27.9837548 111.4933694 113.4115468  28.8684558 111.7591270
 113.6966978  27.8042150 110.7208786 122.3738157  36.2864448 103.8363675
 122.2383832  37.1315983 104.2648523 122.9147969  36.4883725 103.0729609
 115.8267554  33.8039886 104.4091600 116.3392075  34.5983136 104.5597165
 116.4790267  33.1066176 104.3425202 117.6362439  36.9205642 106.4914354
 117.8129067  37.8423607 106.3035337 118.4319273  36.6064061 106.9208733
 116.9214796  28.9670274 116.3676517 116.8068311  28.0655531 116.6683616
 116.0659313  29.2133971 116.0161333 118.7593755  38.4383816 112.4924696
 119.3101180  38.3100879 111.7201690 117.9205230  38.7378705 112.1419589
 122.5560926  34.7034944 116.8368927 123.0889262  33.9423232 116.6068235
 122.0275007  34.4108595 117.5793081 113.7916471  32.1328540 105.1851171
 114.6291693  32.5425548 104.9684879 113.9694739  31.1927982 105.1551365
 125.6880903  29.8003621 100.8735004 125.1727527  30.5708225 101.1123391
 125.4158212  29.1268757 101.4968065 123.2728014  24.6453321 105.9320242
 122.4169611  24.2560172 105.7525881 123.6854966  24.7245282 105.0720028
 121.0470047  22.2638394 109.3377984 121.9123044  22.0681203 108.9783873
 121.1147556  22.0348746 110.2647340 130.6615177  32.5535975 102.8088177
 129.8844620  32.2147135 102.3643339 131.3406658  32.5588598 102.1343142
 125.4767206  27.6730713 102.6994785 125.1717342  27.9876862 103.5504928
 126.4297649  27.7512133 102.7422118 123.9213638  33.8320936 104.3487739
 123.3935000  33.0973696 104.0360976 123.4201141  34.6095612 104.1027707
 128.9006484  32.0269956 109.4654785 128.2430159  32.7169218 109.5534914
 129.7046884  32.4166388 109.8088772 118.6532366  24.4940602 106.7094351
 119.2276118  24.2715784 105.9767543 119.2403348  24.5629297 107.4622952
 127.7111943  30.3814329 107.5158727 128.2243825  31.0144321 108.0180437
 128.3613167  29.7815525 107.1502087 118.9801953  26.5245063 100.7290236
 118.1439265  26.8619750 101.0499511 118.8406723  26.3894043  99.7917373
 120.9555034  21.3681851 105.4369420 120.3019446  21.0530868 104.8126035
 120.9135508  20.7457592 106.1629243 122.0666238  31.6501146  97.3522712
 121.1593300  31.4190400  97.5513861 122.5637270  30.8538765  97.5396694
 124.9734317  40.3598653 100.2719398 124.2996016  40.6630350 100.8804356
 125.3600139  41.1627734  99.9224855 124.1892774  27.8563785 109.7617068
 123.2715335  28.0778732 109.6038756 124.6052918  27.9310095 108.9028775
 124.9727822  29.2555200 104.8919748 125.7199641  29.7676598 104.5826870
 125.2419411  28.9339253 105.7524141 123.2454472  31.7513741 101.8746702
 122.3365691  31.4672774 101.9719172 123.2749556  32.1712820 101.0150009
 128.4773739  35.3620331 105.6437870 128.0236066  34.5211240 105.7003060
 127.8467706  35.9981729 105.9812650 127.4206659  26.2912317 106.8738537
 126.6829416  25.7789703 107.2048780 127.6733432  25.8512698 106.0621814
 126.9206679  37.1996827 106.5787688 127.2129653  37.7601884 105.8600053
 127.4305299  37.4925388 107.3340847 113.8142642  29.4719255 105.8561904
 113.6167042  28.8788616 105.1312971 113.2589306  29.1671465 106.5737843
 121.7939366  29.3642362 107.9756497 121.8487976  28.4116198 107.8998974
 120.9830568  29.5201801 108.4597796 122.9430560  33.2922485  99.2134781
 122.5049990  32.5758344  98.7540418 123.6841001  33.5198600  98.6519872
 119.7331726  27.9819421 105.7346876 118.9199591  28.2813592 106.1412068
 120.2290720  27.5875110 106.4521359 121.8840304  37.9777178 107.6681141
 121.8416483  38.2038025 106.7389673 122.8003003  37.7440553 107.8166942
 131.0603674  31.5679682 105.2711099 130.9221573  31.7581278 104.3432288
 130.7039893  32.3299065 105.7279150 119.2245801  25.5537777 111.3508111
 119.8645180  25.4126536 110.6531075 118.3923331  25.2672290 110.9746713
 120.0006105  34.8540207 107.4643104 120.7946703  34.3590528 107.2625679
 119.2897797  34.3258071 107.1010809 124.8200949  37.2358303 111.8155471
 124.8737971  37.8049239 112.5833187 123.9515730  37.4060188 111.4509509
 116.3088868  28.9983289 103.5402856 115.3786456  28.9367745 103.7572819
 116.4046340  28.4759242 102.7439498 116.2274417  25.5238102 106.1281098
 116.4881234  26.4383435 106.0190259 117.0491589  25.0562545 106.2777711
 117.6999342  26.9375859 113.2979923 118.3722396  26.7293221 112.6492572
 116.8729129  26.7397945 112.8585155 123.7789049  31.4018565 113.3742403
 124.7081109  31.5529725 113.2011371 123.3580079  31.4902586 112.5191050
 122.5777381  35.4269229 111.1440941 122.4388466  35.0588014 112.0166879
 121.7891977  35.9416869 110.9724899 123.1725532  40.5278326 102.4866477
 123.3477288  40.0566369 103.3012100 122.4858321  41.1544092 102.7147738
 124.1282596  34.8050832 108.5329779 123.7932428  34.7651602 109.4287429
 123.6286541  34.1395548 108.0600189 118.1026840  30.2118462 114.0582360
 117.9646638  29.4798701 114.6593899 119.0131763  30.1227362 113.7766548
 127.0641787  32.1506866  98.8066838 126.4470958  31.4253695  98.7099891
 126.5958276  32.9116227  98.4633913 120.7309140  29.9238421 113.5466039
 121.4408759  29.2831614 113.5052658 120.6878448  30.1751316 114.4692220
 117.7386618  43.6767689 109.2606338 117.9783216  44.3086213 109.9385356
 116.8955814  43.3255729 109.5471697 118.8540333  26.3692291  97.9288143
 117.9769800  26.2481092  97.5650389 119.3298086  25.5778369  97.6767031
 110.3742473  31.1569450 108.0229650 111.0613513  30.8431180 107.4350665
 110.2190602  32.0610815 107.7496901 115.1777195  26.0459647 112.4514673
 115.0935384  25.4385317 111.7165083 114.3559902  26.5368665 112.4524170
 122.2514480  39.4846811 111.6647842 122.1784651  40.2901783 112.1767146
 121.8091873  39.6838777 110.8395863 122.0404259  38.7218581 105.1750663
 121.2571781  39.2640261 105.2688888 122.7397004  39.2392561 105.5744904
 125.3500909  24.5313211 107.8184868 125.8469609  23.7783173 107.4985939
 124.5787891  24.5677527 107.2528078 124.7113163  39.3833645 113.8206000
 125.4241135  40.0181110 113.7481902 124.2203192  39.4797511 113.0046002
 126.4330690  33.2884898 105.3923292 125.4986969  33.4086360 105.2227996
 126.6107359  32.3857365 105.1283302 121.9335878  26.6730594 107.5456553
 121.5633666  26.1201634 108.2337459 122.4294971  26.0688727 106.9931553
 129.8203241  29.1302217 105.9273326 130.2863694  29.9630209 105.8533629
 130.2710742  28.6647199 106.6318584 119.7625077  37.1328089 114.6411571
 120.4634536  37.7664572 114.7940965 119.2920192  37.4742820 113.8807210
 127.8879473  35.4746038 102.9259478 128.1639316  35.3602633 103.8353352
 127.0183971  35.0763523 102.8871651 124.5233537  39.7232389 106.5692292
 124.7055931  38.9054045 107.0320044 125.3466523  39.9400081 106.1317182
 124.8575702  38.6500574 103.8307340 125.3863468  38.1393029 103.2177502
 125.1203922  38.3343105 104.6952873 115.3592795  36.6664444 111.5742674
 115.9446232  35.9208132 111.7070578 115.1617633  36.9768400 112.4579338
 118.2131450  39.7015691 106.5905116 117.5441825  40.1861819 106.1069156
 118.0744320  39.9484911 107.5048495 109.9510449  29.2370044 110.2947117
 109.9894549  28.7033635 111.0884235 109.4450742  28.7105249 109.6758094
 122.3536719  41.7359435 113.1887774 122.9055027  41.8991056 113.9536860
 122.6942912  42.3263872 112.5167799 117.3301212  24.0834584 113.7909659
 117.3942538  24.9449415 113.3787057 117.2668332  23.4708586 113.0582018
 113.5819027  27.9634146 103.3701048 113.8772468  27.0544824 103.3168102
 112.6807063  27.9421885 103.0482051 125.4905106  39.6841410 110.1751457
 125.3656245  38.8831150 109.6662402 126.1484197  40.1787603 109.6865427
 117.1113274  26.0390143 109.3528597 116.3899860  26.6526110 109.2136070
 117.9006530  26.5747907 109.2745243 127.5540014  37.4850430 111.8031007
 126.6070350  37.3655781 111.7309333 127.9022787  36.5972928 111.8857268
 115.3106869  25.6448244 103.4940373 114.9819575  24.7645623 103.3115479
 115.6646239  25.5895912 104.3816763 124.5586448  37.2803146 108.0035359
 124.4111410  36.3519854 108.1842929 125.3839941  37.3023237 107.5192434
 118.4248692  25.9321213 103.8615851 118.7644764  26.4607135 103.1394459
 118.8720812  26.2701620 104.6374418 128.1620569  38.1031705 109.0900232
 129.0867117  37.8974566 108.9524683 127.9935873  37.8548106 109.9989573
 120.4116839  24.4295835 102.0609144 121.1325201  24.8077088 101.5572861
 119.7882143  25.1484712 102.1644122 124.5547962  25.1340984 102.9967476
 124.7711576  26.0165622 102.6956304 124.0742029  24.7427197 102.2673118
 119.2947183  28.0926697 109.5738221 119.1491764  28.4067000 110.4662502
 118.8172387  28.7111598 109.0209119 121.1543566  25.0829245 109.6219110
 121.1405135  24.1870339 109.2851408 121.8715994  25.0899909 110.2557396
 127.9515886  38.6217373 104.4462323 128.1252763  38.0563795 103.6936176
 128.4444777  39.4218267 104.2641813 113.7692845  30.6332042 112.5125882
 113.2246313  31.4091850 112.6446156 114.6472195  30.9802846 112.3545003
 120.5580462  23.9643625 104.8906680 120.6796373  23.0360272 105.0897568
 120.2682504  23.9782311 103.9784996 123.4271652  21.6498536 108.0273400
 123.4493349  21.7137869 107.0725380 123.8439711  20.8103045 108.2213906
 133.8055277  31.3853795 106.0652623 134.2486423  30.6361121 105.6671746
 132.9281787  31.3763932 105.6826355 128.9391058  37.9384137 101.5459221
 129.6341963  38.5590830 101.7646536 129.2814208  37.0879488 101.8211599
 114.5558867  29.7601938 115.4056039 113.8140603  29.9084573 115.9920669
 114.2351612  30.0210203 114.5422788 130.8382481  35.3883842 103.0746552
 131.3633805  35.7271115 102.3495872 130.7504834  34.4530858 102.8909687
 122.5002530  39.3017916 115.2036429 122.8089656  39.0567063 116.0759128
 123.2978012  39.5064555 114.7155299 122.5223142  41.4555826 107.4341805
 122.0828132  40.9632204 108.1274662 123.2731259  40.9128793 107.1933881
 115.0015481  37.6467367 107.4366433 115.8273501  37.3471138 107.0565077
 114.6509533  36.8774989 107.8856222 119.9697014  36.9993835 109.5064107
 119.3477023  36.3364540 109.2066335 120.6401881  37.0254967 108.8237755
 113.2024086  35.5653693 108.3955367 112.3655994  35.1375867 108.2139368
 113.1747731  35.7586136 109.3326158 119.5310521  35.5497758 102.9822568
 119.6798641  36.2333223 102.3289240 120.3376964  35.5302848 103.4972023
 117.2863154  31.5762936 103.9883636 117.0409196  30.6725266 104.1863847
 117.4559069  31.5780086 103.0463114 116.5558801  27.3091293 101.4869798
 115.8628046  27.3835648 100.8309834 116.3110553  26.5451637 102.0091315
 123.0305927  38.0445889 100.4534315 122.4579894  38.6636076 100.0004787
 123.6038720  38.5945250 100.9874237 126.2503186  38.3283039 101.5842897
 127.1833859  38.2628600 101.7875773 126.1626399  39.1639306 101.1257430
 128.8791203  37.6448909  98.5446845 128.8004834  37.3108773  99.4382603
 129.7000870  38.1370677  98.5438317 123.4152725  29.3806701  97.7950367
 124.3611830  29.2512909  97.8638786 123.0366970  28.6421363  98.2719796
 121.5995642  27.3056678  97.7305253 120.6927098  27.0089790  97.8067966
 121.8771623  27.0086496  96.8639539 112.5173583  28.6263041 108.1804299
 112.1976367  27.7728349 107.8878673 111.9707011  28.8411619 108.9362266
 116.2953490  31.3425482 111.8973806 116.5139500  32.2742590 111.9161839
 116.7079264  30.9833457 112.6828609 123.2157708  21.8493567 103.8849494
 122.4058436  21.5040652 104.2604740 123.9042125  21.5401111 104.4737106
 125.1448256  20.9271614 105.5073791 125.6979295  21.3467068 106.1663814
 125.3818343  20.0007362 105.5496747 120.3694427  24.1643613  97.8717232
 121.2313591  24.4898511  98.1313049 120.5544771  23.3775109  97.3590298
 112.3861843  32.2465953 110.1497421 111.6925314  31.8319905 109.6367375
 113.1334834  32.2886489 109.5530840 128.5227063  23.0372139 105.0152455
 127.9425732  23.6956943 104.6330507 128.2562996  22.2149484 104.6039872
 114.2998585  32.1784206 108.0263436 114.2769273  32.2771894 107.0745319
 114.6099222  33.0249357 108.3480602 116.9585963  34.2360361 112.1410050
 117.9129216  34.2044304 112.0739982 116.7598487  33.7750985 112.9560276
 117.5485345  32.8061478 114.7080848 118.3678234  33.3005556 114.7315685
 117.8222153  31.8893446 114.6798415 127.3051941  25.1972230 104.0708803
 126.4177796  25.4821880 103.8528998 127.7205930  25.0365993 103.2236080
 115.3136192  39.7779981 109.1580248 115.1790660  39.0180382 108.5918246
 114.8968254  40.5020881 108.6909037 126.4495155  34.9616904  98.1656823
 127.1531005  35.1666907  98.7814479 125.7257804  35.5293666  98.4305907
 127.2792965  30.7126766 104.2859093 127.2228166  31.1695317 103.4466726
 127.8321307  29.9517450 104.1081936 118.4705318  40.6749298 109.3698691
 118.3537702  41.6194730 109.2677381 117.6497764  40.3722860 109.7584490
 128.3581852  35.3999434 100.2155283 129.1927456  34.9680632 100.0332758
 128.1966195  35.2281447 101.1432178 128.0127744  31.9031547 101.5811623
 127.9576548  31.7375818 100.6400067 127.3873800  32.6107580 101.7373812
 112.8020259  27.1399611 115.4073045 113.4479123  26.6298565 115.8960270
 112.5937410  27.8768293 115.9816470 121.3223870  21.4039656 101.1596941
 121.3102540  22.3481496 101.3165212 122.2147292  21.2209801 100.8656402
 119.4959832  41.3277560 112.5854619 120.3987078  41.3601170 112.9021114
 119.2697202  40.3978011 112.6000955 121.2513434  40.0808546 109.2464698
 120.3009065  40.0810408 109.1329070 121.5545920  39.3341281 108.7300732
 133.7955834  45.8696513 110.2471985 133.4574345  45.7537578 109.3592520
 134.6645602  45.4687678 110.2272991 129.6542649  47.7231989 106.2368876
 129.0907514  47.6321926 105.4685163 129.5395044  46.9031894 106.7171368
 127.2007081  49.2183181 109.0753096 127.9928373  48.8774006 108.6599395
 127.4403731  49.3278156 109.9955249 135.2342208  51.3902957 101.5483341
 134.5830188  51.9757037 101.1617354 136.0286571  51.9209152 101.6078378
 129.1597835  48.4792094 101.9470475 129.9328711  47.9321081 101.8083351
 129.5123234  49.3436343 102.1584936 130.9982878  49.8068476 115.1537374
 130.7072744  50.7114107 115.0384040 131.6339862  49.8485004 115.8681444
 131.9239085  47.1845325 111.7438734 132.5202657  46.9601347 111.0295697
 131.9814056  46.4430070 112.3464182 131.4964113  44.6384760  99.5788925
 131.7489634  44.1166282  98.8172388 130.5588672  44.4750906  99.6815608
 136.5407396  43.6420539 107.3863668 137.3270485  43.2239962 107.0354085
 136.8046100  44.5466631 107.5545316 136.7117473  49.0793389 102.0852325
 136.0763306  49.1528015 102.7973229 136.3814880  49.6686988 101.4071404
 131.2160402  46.5412866 101.7813300 131.0996660  45.8657770 102.4494384
 131.3262662  46.0545240 100.9645453 133.5591943  46.0023013 105.4859989
 133.1950150  45.4753634 106.1972910 134.4159058  45.6121482 105.3126474
 133.1997430  41.0312913 100.4821337 133.3671832  41.8993149 100.8491809
 133.0094599  41.1940195  99.5582627 135.9572763  49.4929892 112.1487168
 135.6573486  50.3954931 112.0402975 135.6123822  49.2262075 113.0008321
 129.4085244  45.9443689 108.1823872 128.4835741  45.8119903 108.3901564
 129.6569657  46.7237908 108.6793815 133.1786650  43.4870571 101.4668004
 133.0586276  43.9327621 102.3053485 132.4839239  43.8355888 100.9081542
 126.7694055  45.5876962 109.0167661 126.8986436  45.8411441 109.9307073
 126.0891507  46.1804670 108.6972316 130.9393543  56.2574212 105.1158136
 130.8617572  57.2082037 105.1946616 130.3355186  55.9120085 105.7733062
 137.4841299  48.9417862 109.6861920 136.8550161  49.1063576 108.9837988
 137.0966961  49.3559472 110.4572884 133.0369261  48.6792270 106.9512005
 133.5007606  48.9579973 106.1616627 132.7726059  47.7775715 106.7685096
 129.9293342  48.2263752 109.8891768 130.4994699  48.6551020 109.2509253
 130.5201454  47.9446336 110.5875954 131.9738147  44.8015423 103.7601570
 132.6762190  45.2536466 104.2275496 131.6418775  44.1599241 104.3881463
 125.7163481  43.0598975 109.0618704 124.9262535  43.3156504 108.5858814
 126.2074728  43.8747313 109.1670744 127.6678226  43.4243555 106.0202180
 126.8709389  43.5362249 106.5385676 127.4403818  43.7630207 105.1543071
 133.4983894  49.9488258 113.9684695 133.5628326  50.4108665 114.8042867
 132.7894818  49.3185623 114.0967005 124.0001184  43.3129466 111.4933694
 124.2509222  44.1976476 111.7591270 124.5360732  43.1334067 110.7208786
 133.2131911  51.6156365 103.8363675 133.0777586  52.4607901 104.2648523
 133.7541724  51.8175643 103.0729609 126.6661309  49.1331803 104.4091600
 127.1785829  49.9275054 104.5597165 127.3184022  48.4358094 104.3425202
 128.4756194  52.2497560 106.4914354 128.6522822  53.1715524 106.3035337
 129.2713027  51.9355979 106.9208733 127.7608550  44.2962191 116.3676517
 127.6462065  43.3947449 116.6683616 126.9053068  44.5425888 116.0161333
 129.5987509  53.7675733 112.4924696 130.1494934  53.6392797 111.7201690
 128.7598985  54.0670622 112.1419589 133.3954680  50.0326861 116.8368927
 133.9283017  49.2715149 116.6068235 132.8668761  49.7400513 117.5793081
 124.6310226  47.4620458 105.1851171 125.4685448  47.8717466 104.9684879
 124.8088493  46.5219900 105.1551365 136.5274658  45.1295538 100.8735004
 136.0121281  45.9000143 101.1123391 136.2551966  44.4560674 101.4968065
 134.1121769  39.9745239 105.9320242 133.2563365  39.5852089 105.7525881
 134.5248721  40.0537200 105.0720028 131.8863801  37.5930312 109.3377984
 132.7516798  37.3973121 108.9783873 131.9541310  37.3640664 110.2647340
 136.3160961  43.0022630 102.6994785 136.0111096  43.3168780 103.5504928
 137.2691403  43.0804050 102.7422118 134.7607393  49.1612854 104.3487739
 134.2328754  48.4265613 104.0360976 134.2594895  49.9387530 104.1027707
 129.4926120  39.8232520 106.7094351 130.0669872  39.6007701 105.9767543
 130.0797103  39.8921214 107.4622952 129.8195707  41.8536981 100.7290236
 128.9833020  42.1911667 101.0499511 129.6800477  41.7185961  99.7917373
 131.7948788  36.6973769 105.4369420 131.1413200  36.3822786 104.8126035
 131.7529262  36.0749509 106.1629243 132.9059993  46.9793064  97.3522712
 131.9987055  46.7482317  97.5513861 133.4031025  46.1830683  97.5396694
 135.8128072  55.6890571 100.2719398 135.1389771  55.9922268 100.8804356
 136.1993894  56.4919651  99.9224855 135.0286528  43.1855702 109.7617068
 134.1109090  43.4070649 109.6038756 135.4446672  43.2602013 108.9028775
 135.8121576  44.5847118 104.8919748 136.5593395  45.0968515 104.5826870
 136.0813166  44.2631171 105.7524141 134.0848226  47.0805659 101.8746702
 133.1759446  46.7964692 101.9719172 134.1143310  47.5004737 101.0150009
 124.6536397  44.8011173 105.8561904 124.4560797  44.2080534 105.1312971
 124.0983061  44.4963383 106.5737843 132.6333120  44.6934279 107.9756497
 132.6881730  43.7408116 107.8998974 131.8224322  44.8493718 108.4597796
 133.7824314  48.6214402  99.2134781 133.3443744  47.9050261  98.7540418
 134.5234755  48.8490517  98.6519872 130.5725480  43.3111339 105.7346876
 129.7593346  43.6105510 106.1412068 131.0684475  42.9167028 106.4521359
 132.7234058  53.3069096 107.6681141 132.6810237  53.5329942 106.7389673
 133.6396757  53.0732471 107.8166942 130.0639555  40.8829695 111.3508111
 130.7038934  40.7418454 110.6531075 129.2317086  40.5964208 110.9746713
 130.8399859  50.1832125 107.4643104 131.6340458  49.6882445 107.2625679
 130.1291551  49.6549988 107.1010809 135.6594703  52.5650221 111.8155471
 135.7131726  53.1341157 112.5833187 134.7909485  52.7352106 111.4509509
 127.1482622  44.3275207 103.5402856 126.2180211  44.2659662 103.7572819
 127.2440094  43.8051160 102.7439498 127.0668172  40.8530020 106.1281098
 127.3274989  41.7675353 106.0190259 127.8885344  40.3854462 106.2777711
 128.5393097  42.2667777 113.2979923 129.2116150  42.0585139 112.6492572
 127.7122883  42.0689863 112.8585155 134.6182803  46.7310483 113.3742403
 135.5474863  46.8821642 113.2011371 134.1973833  46.8194503 112.5191050
 133.4171135  50.7561147 111.1440941 133.2782221  50.3879931 112.0166879
 132.6285731  51.2708786 110.9724899 134.0119287  55.8570244 102.4866477
 134.1871043  55.3858287 103.3012100 133.3252075  56.4836010 102.7147738
 134.9676350  50.1342750 108.5329779 134.6326183  50.0943520 109.4287429
 134.4680296  49.4687466 108.0600189 128.9420594  45.5410380 114.0582360
 128.8040392  44.8090619 114.6593899 129.8525518  45.4519280 113.7766548
 131.5702895  45.2530339 113.5466039 132.2802513  44.6123531 113.5052658
 131.5272203  45.5043234 114.4692220 128.5780372  59.0059606 109.2606338
 128.8176970  59.6378130 109.9385356 127.7349569  58.6547646 109.5471697
 129.6934088  41.6984208  97.9288143 128.8163554  41.5773009  97.5650389
 130.1691841  40.9070287  97.6767031 121.2136228  46.4861368 108.0229650
 121.9007268  46.1723098 107.4350665 121.0584357  47.3902733 107.7496901
 126.0170950  41.3751565 112.4514673 125.9329139  40.7677234 111.7165083
 125.1953656  41.8660583 112.4524170 133.0908234  54.8138729 111.6647842
 133.0178406  55.6193700 112.1767146 132.6485627  55.0130695 110.8395863
 132.8798014  54.0510499 105.1750663 132.0965536  54.5932179 105.2688888
 133.5790759  54.5684478 105.5744904 136.1894664  39.8605128 107.8184868
 136.6863363  39.1075091 107.4985939 135.4181645  39.8969445 107.2528078
 135.5506918  54.7125563 113.8206000 136.2634890  55.3473028 113.7481902
 135.0596946  54.8089429 113.0046002 137.2724445  48.6176815 105.3923292
 136.3380723  48.7378278 105.2227996 137.4501113  47.7149282 105.1283302
 132.7729633  42.0022511 107.5456553 132.4027420  41.4493552 108.2337459
 133.2688725  41.3980645 106.9931553 130.6018831  52.4620006 114.6411571
 131.3028291  53.0956489 114.7940965 130.1313946  52.8034738 113.8807210
 135.3627291  55.0524307 106.5692292 135.5449686  54.2345963 107.0320044
 136.1860277  55.2691999 106.1317182 135.6969457  53.9792492 103.8307340
 136.2257223  53.4684947 103.2177502 135.9597676  53.6635022 104.6952873
 126.1986549  51.9956361 111.5742674 126.7839986  51.2500049 111.7070578
 126.0011388  52.3060318 112.4579338 129.0525204  55.0307609 106.5905116
 128.3835580  55.5153736 106.1069156 128.9138074  55.2776829 107.5048495
 120.7904204  44.5661961 110.2947117 120.8288303  44.0325552 111.0884235
 120.2844497  44.0397167 109.6758094 133.1930473  57.0651352 113.1887774
 133.7448781  57.2282974 113.9536860 133.5336667  57.6555790 112.5167799
 128.1694966  39.4126502 113.7909659 128.2336293  40.2741333 113.3787057
 128.1062087  38.8000504 113.0582018 124.4212782  43.2926064 103.3701048
 124.7166223  42.3836742 103.3168102 123.5200817  43.2713803 103.0482051
 136.3298860  55.0133328 110.1751457 136.2050000  54.2123068 109.6662402
 136.9877951  55.5079521 109.6865427 127.9507029  41.3682060 109.3528597
 127.2293614  41.9818028 109.2136070 128.7400284  41.9039825 109.2745243
 126.1500623  40.9740161 103.4940373 125.8213329  40.0937540 103.3115479
 126.5039994  40.9187830 104.3816763 135.3980202  52.6095064 108.0035359
 135.2505164  51.6811771 108.1842929 136.2233696  52.6315155 107.5192434
 129.2642446  41.2613131 103.8615851 129.6038519  41.7899052 103.1394459
 129.7114567  41.5993537 104.6374418 131.2510593  39.7587753 102.0609144
 131.9718956  40.1369005 101.5572861 130.6275898  40.4776630 102.1644122
 135.3941716  40.4632902 102.9967476 135.6105331  41.3457540 102.6956304
 134.9135783  40.0719115 102.2673118 130.1340938  43.4218615 109.5738221
 129.9885518  43.7358918 110.4662502 129.6566141  44.0403515 109.0209119
 131.9937321  40.4121163 109.6219110 131.9798889  39.5162256 109.2851408
 132.7109749  40.4191827 110.2557396 124.6086600  45.9623959 112.5125882
 124.0640068  46.7383767 112.6446156 125.4865950  46.3094764 112.3545003
 131.3974217  39.2935543 104.8906680 131.5190128  38.3652189 105.0897568
 131.1076259  39.3074229 103.9784996 134.2665407  36.9790454 108.0273400
 134.2887104  37.0429787 107.0725380 134.6833466  36.1394962 108.2213906
 125.3952622  45.0893856 115.4056039 124.6534358  45.2376491 115.9920669
 125.0745366  45.3502121 114.5422788 133.3396284  54.6309834 115.2036429
 133.6483411  54.3858981 116.0759128 134.1371766  54.8356472 114.7155299
 133.3616896  56.7847743 107.4341805 132.9221887  56.2924122 108.1274662
 134.1125013  56.2420711 107.1933881 125.8409235  52.9759284 107.4366433
 126.6667255  52.6763056 107.0565077 125.4903287  52.2066907 107.8856222
 130.8090769  52.3285752 109.5064107 130.1870778  51.6656458 109.2066335
 131.4795635  52.3546884 108.8237755 124.0417840  50.8945611 108.3955367
 123.2049749  50.4667785 108.2139368 124.0141486  51.0878054 109.3326158
 130.3704275  50.8789676 102.9822568 130.5192396  51.5625140 102.3289240
 131.1770719  50.8594766 103.4972023 128.1256908  46.9054853 103.9883636
 127.8802950  46.0017183 104.1863847 128.2952823  46.9072004 103.0463114
 127.3952556  42.6383211 101.4869798 126.7021801  42.7127566 100.8309834
 127.1504308  41.8743555 102.0091315 133.8699681  53.3737806 100.4534315
 133.2973648  53.9927993 100.0004787 134.4432475  53.9237168 100.9874237
 134.2546479  44.7098619  97.7950367 135.2005584  44.5804827  97.8638786
 133.8760724  43.9713281  98.2719796 132.4389397  42.6348595  97.7305253
 131.5320852  42.3381708  97.8067966 132.7165378  42.3378414  96.8639539
 123.3567337  43.9554959 108.1804299 123.0370121  43.1020267 107.8878673
 122.8100765  44.1703537 108.9362266 127.1347245  46.6717400 111.8973806
 127.3533254  47.6034508 111.9161839 127.5473018  46.3125374 112.6828609
 134.0551462  37.1785485 103.8849494 133.2452191  36.8332570 104.2604740
 134.7435879  36.8693029 104.4737106 135.9842011  36.2563532 105.5073791
 136.5373049  36.6758985 106.1663814 136.2212097  35.3299280 105.5496747
 131.2088181  39.4935531  97.8717232 132.0707345  39.8190429  98.1313049
 131.3938525  38.7067027  97.3590298 123.2255597  47.5757870 110.1497421
 122.5319068  47.1611823 109.6367375 123.9728588  47.6178407 109.5530840
 125.1392340  47.5076124 108.0263436 125.1163028  47.6063811 107.0745319
 125.4492976  48.3541275 108.3480602 127.7979717  49.5652279 112.1410050
 128.7522971  49.5336221 112.0739982 127.5992241  49.1042903 112.9560276
 128.3879100  48.1353395 114.7080848 129.2071989  48.6297474 114.7315685
 128.6615907  47.2185363 114.6798415 126.1529946  55.1071899 109.1580248
 126.0184414  54.3472300 108.5918246 125.7362008  55.8312798 108.6909037
 129.3099072  56.0041216 109.3698691 129.1931456  56.9486648 109.2677381
 128.4891518  55.7014777 109.7584490 123.6414014  42.4691529 115.4073045
 124.2872877  41.9590483 115.8960270 123.4331165  43.2060211 115.9816470
 132.1617624  36.7331574 101.1596941 132.1496294  37.6773414 101.3165212
 133.0541046  36.5501719 100.8656402 130.3353586  56.6569478 112.5854619
 131.2380833  56.6893088 112.9021114 130.1090956  55.7269928 112.6000955
 132.0907188  55.4100464 109.2464698 131.1402819  55.4102326 109.1329070
 132.3939674  54.6633199 108.7300732 136.5557235  58.3890893 109.0618704
 135.7656289  58.6448422 108.5858814 137.0468483  59.2039231 109.1670744
 134.8394938  58.6421383 111.4933694 135.0902977  59.5268393 111.7591270
 135.3754487  58.4625985 110.7208786 135.4703980  62.7912375 105.1851171
 136.3079202  63.2009384 104.9684879 135.6482248  61.8511817 105.1551365
 135.4930151  60.1303091 105.8561904 135.2954551  59.5372451 105.1312971
 134.9376815  59.8255301 106.5737843 132.0529982  61.8153286 108.0229650
 132.7401022  61.5015016 107.4350665 131.8978111  62.7194650 107.7496901
 136.8564704  56.7043482 112.4514673 136.7722893  56.0969152 111.7165083
 136.0347411  57.1952501 112.4524170 131.6297958  59.8953879 110.2947117
 131.6682058  59.3617470 111.0884235 131.1238251  59.3689085 109.6758094
 135.2606536  58.6217981 103.3701048 135.5559977  57.7128660 103.3168102
 134.3594572  58.6005721 103.0482051 136.9894378  56.3032079 103.4940373
 136.6607084  55.4229458 103.3115479 137.3433748  56.2479748 104.3816763
 135.4480354  61.2915877 112.5125882 134.9033822  62.0675685 112.6446156
 136.3259704  61.6386681 112.3545003 136.2346376  60.4185773 115.4056039
 135.4928112  60.5668409 115.9920669 135.9139120  60.6794039 114.5422788
 136.6802990  68.3051202 107.4366433 137.5061010  68.0054974 107.0565077
 136.3297042  67.5358824 107.8856222 134.8811595  66.2237528 108.3955367
 134.0443503  65.7959703 108.2139368 134.8535240  66.4169972 109.3326158
 134.1961092  59.2846877 108.1804299 133.8763876  58.4312185 107.8878673
 133.6494520  59.4995455 108.9362266 134.0649352  62.9049788 110.1497421
 133.3712823  62.4903741 109.6367375 134.8122343  62.9470325 109.5530840
 135.9786094  62.8368042 108.0263436 135.9556782  62.9355729 107.0745319
 136.2886731  63.6833193 108.3480602 136.9923701  70.4363816 109.1580248
 136.8578169  69.6764217 108.5918246 136.5755763  71.1604716 108.6909037
 134.4807768  57.7983447 115.4073045 135.1266632  57.2882401 115.8960270
 134.2724919  58.5352128 115.9816470 120.0999789  17.9344417  91.8403442
 120.0223819  18.8852242  91.9191923 119.4961433  17.5890290  92.4978368
 118.7593756  15.4445938  99.2170002 119.3101181  15.3163002  98.4446996
 117.9205232  15.7440827  98.8664895 124.9734319  17.3660776  86.9964705
 124.2996017  17.6692473  87.6049663 125.3600141  18.1689856  86.6470162
 123.1725534  17.5340448  89.2111784 123.3477289  17.0628492  90.0257407
 122.4858322  18.1606215  89.4393045 117.7386619  20.6829811  95.9851644
 117.9783217  21.3148335  96.6630663 116.8955816  20.3317851  96.2717003
 122.2514481  16.4908934  98.3893148 122.1784652  17.2963905  98.9012453
 121.8091874  16.6900899  97.5641170 122.0404261  15.7280704  91.8995970
 121.2571782  16.2702384  91.9934194 122.7397006  16.2454683  92.2990211
 124.7113164  16.3895768 100.5451307 125.4241137  17.0243233 100.4727208
 124.2203193  16.4859634  99.7291309 115.3592796  13.6726566  98.2987980
 115.9446233  12.9270254  98.4315885 115.1617634  13.9830523  99.1824644
 118.2131451  16.7077814  93.3150423 117.5441826  17.1923941  92.8314463
 118.0744321  16.9547034  94.2293801 122.3536720  18.7421557  99.9133081
 122.9055028  18.9053179 100.6782166 122.6942913  19.3325995  99.2413106
 122.5002531  16.3080039 101.9281735 122.8089658  16.0629185 102.8004435
 123.2978013  16.5126677 101.4400606 122.5223143  18.4617948  94.1587112
 122.0828133  17.9694327  94.8519969 123.2731260  17.9190916  93.9179187
 115.0015482  14.6529489  94.1611740 115.8273502  14.3533261  93.7810384
 114.6509534  13.8837112  94.6101529 113.2024087  12.5715816  95.1200674
 112.3655996  12.1437990  94.9384675 113.1747733  12.7648259  96.0571465
 115.3136193  16.7842104  95.8825554 115.1790661  16.0242504  95.3163553
 114.8968255  17.5083003  95.4154343 118.4705319  17.6811421  96.0943997
 118.3537703  18.6256853  95.9922687 117.6497765  17.3784982  96.4829796
 119.4959833  18.3339682  99.3099926 120.3987080  18.3663293  99.6266421
 119.2697203  17.4040133  99.3246261 121.2513435  17.0870669  95.9710004
 120.3009066  17.0872531  95.8574376 121.5545921  16.3403404  95.4546039
 133.7955835  22.8758636  96.9717291 133.4574346  22.7599700  96.0837826
 134.6645603  22.4749801  96.9518297 129.6542650  24.7294112  92.9614182
 129.0907516  24.6384049  92.1930470 129.5395046  23.9094016  93.4416675
 127.2007082  26.2245304  95.7998403 127.9928374  25.8836128  95.3844702
 127.4403733  26.3340279  96.7200556 135.2342209  28.3965080  88.2728647
 134.5830189  28.9819160  87.8862661 136.0286572  28.9271275  88.3323685
 129.1597836  25.4854217  88.6715781 129.9328712  24.9383204  88.5328657
 129.5123235  26.3498466  88.8830243 130.9982879  26.8130599 101.8782681
 130.7072745  27.7176230 101.7629347 131.6339863  26.8547127 102.5926750
 131.9239086  24.1907448  98.4684040 132.5202658  23.9663470  97.7541003
 131.9814057  23.4492193  99.0709488 131.4964114  21.6446883  86.3034231
 131.7489635  21.1228404  85.5417694 130.5588673  21.4813028  86.4060915
 136.7117474  26.0855512  88.8097631 136.0763307  26.1590138  89.5218536
 136.3814881  26.6749110  88.1316711 131.2160403  23.5474989  88.5058606
 131.0996661  22.8719892  89.1739691 131.3262663  23.0607363  87.6890759
 133.5591944  23.0085136  92.2105296 133.1950151  22.4815757  92.9218217
 134.4159060  22.6183605  92.0371781 135.9572764  26.4992015  98.8732474
 135.6573487  27.4017053  98.7648282 135.6123824  26.2324198  99.7253627
 129.4085245  22.9505811  94.9069179 128.4835742  22.8182025  95.1146871
 129.6569659  23.7300031  95.4039121 133.1786652  20.4932693  88.1913311
 133.0586277  20.9389744  89.0298791 132.4839240  20.8418011  87.6326849
 126.7694057  22.5939085  95.7412968 126.8986438  22.8473564  96.6552380
 126.0891508  23.1866793  95.4217623 130.9393544  33.2636335  91.8403442
 130.8617573  34.2144160  91.9191923 130.3355187  32.9182207  92.4978368
 137.4841300  25.9479985  96.4107226 136.8550163  26.1125699  95.7083294
 137.0966962  26.3621594  97.1818190 133.0369262  25.6854393  93.6757312
 133.5007608  25.9642096  92.8861934 132.7726060  24.7837837  93.4930402
 129.9293343  25.2325874  96.6137075 130.4994700  25.6613143  95.9754559
 130.5201455  24.9508459  97.3121260 131.9738148  21.8077545  90.4846877
 132.6762191  22.2598589  90.9520803 131.6418777  21.1661364  91.1126770
 125.7163482  20.0661098  95.7864010 124.9262536  20.3218626  95.3104121
 126.2074729  20.8809436  95.8916051 127.6678227  20.4305677  92.7447487
 126.8709391  20.5424371  93.2630983 127.4403820  20.7692329  91.8788377
 133.4983895  26.9550380 100.6930002 133.5628328  27.4170788 101.5288173
 132.7894819  26.3247745 100.8212311 124.0001185  20.3191588  98.2179001
 124.2509223  21.2038598  98.4836577 124.5360733  20.1396190  97.4454093
 133.2131913  28.6218488  90.5608982 133.0777587  29.4670024  90.9893830
 133.7541725  28.8237765  89.7974916 126.6661310  26.1393926  91.1336907
 127.1785831  26.9337176  91.2842472 127.3184023  25.4420216  91.0670508
 128.4756195  29.2559682  93.2159660 128.6522823  30.1777647  93.0280644
 129.2713028  28.9418101  93.6454040 127.7608551  21.3024314 103.0921823
 127.6462066  20.4009571 103.3928922 126.9053069  21.5488011 102.7406640
 129.5987510  30.7737856  99.2170002 130.1494935  30.6454919  98.4446996
 128.7598986  31.0732745  98.8664895 133.3954681  27.0388984 103.5614234
 133.9283018  26.2777272 103.3313542 132.8668762  26.7462636 104.3038388
 124.6310227  24.4682580  91.9096478 125.4685449  24.8779589  91.6930185
 124.8088495  23.5282022  91.8796671 136.5274659  22.1357661  87.5980310
 136.0121282  22.9062265  87.8368698 136.2551967  21.4622797  88.2213372
 134.7607394  26.1674976  91.0733046 134.2328756  25.4327736  90.7606283
 134.2594897  26.9449653  90.8273014 129.8195709  18.8599104  87.4535542
 128.9833021  19.1973790  87.7744817 129.6800478  18.7248083  86.5162679
 132.9059994  23.9855187  84.0768019 131.9987056  23.7544440  84.2759168
 133.4031026  23.1892806  84.2642000 135.8128073  32.6952694  86.9964705
 135.1389772  32.9984390  87.6049663 136.1993895  33.4981774  86.6470162
 135.0286530  20.1917825  96.4862374 134.1109091  20.4132772  96.3284062
 135.4446673  20.2664135  95.6274082 135.8121577  21.5909241  91.6165054
 136.5593396  22.1030638  91.3072177 136.0813167  21.2693293  92.4769448
 134.0848228  24.0867781  88.5992009 133.1759447  23.8026814  88.6964479
 134.1143311  24.5066860  87.7395316 124.6536398  21.8073296  92.5807211
 124.4560798  21.2142656  91.8558278 124.0983062  21.5025506  93.2983150
 132.6333122  21.6996402  94.7001804 132.6881731  20.7470238  94.6244281
 131.8224324  21.8555841  95.1843103 133.7824315  25.6276525  85.9380087
 133.3443745  24.9112384  85.4785725 134.5234756  25.8552640  85.3765179
 130.5725482  20.3173462  92.4592183 129.7593347  20.6167632  92.8657375
 131.0684476  19.9229150  93.1766665 132.7234059  30.3131219  94.3926448
 132.6810238  30.5392065  93.4634980 133.6396758  30.0794593  94.5412249
 130.8399860  27.1894248  94.1888410 131.6340459  26.6944568  93.9870985
 130.1291553  26.6612111  93.8256116 135.6594705  29.5712343  98.5400778
 135.7131727  30.1403280  99.3078494 134.7909486  29.7414228  98.1754815
 127.1482624  21.3337329  90.2648163 126.2180212  21.2721785  90.4818125
 127.2440096  20.8113282  89.4684804 127.0668173  17.8592142  92.8526405
 127.3274990  18.7737475  92.7435565 127.8885345  17.3916585  93.0023018
 128.5393098  19.2729899 100.0225229 129.2116152  19.0647262  99.3737878
 127.7122885  19.0751985  99.5830462 134.6182804  23.7372605 100.0987710
 135.5474864  23.8883765  99.9256677 134.1973834  23.8256626  99.2436356
 133.4171136  27.7623270  97.8686247 133.2782222  27.3942054  98.7412186
 132.6285732  28.2770909  97.6970205 134.0119288  32.8632366  89.2111784
 134.1871044  32.3920409  90.0257407 133.3252076  33.4898132  89.4393045
 134.9676351  27.1404872  95.2575085 134.6326184  27.1005642  96.1532735
 134.4680297  26.4749588  94.7845495 128.9420595  22.5472502 100.7827666
 128.8040393  21.8152741 101.3839205 129.8525519  22.4581402 100.5011854
 131.5702896  22.2592462 100.2711346 132.2802515  21.6185654 100.2297964
 131.5272204  22.5105357 101.1937527 128.5780374  36.0121729  95.9851644
 128.8176972  36.6440253  96.6630663 127.7349570  35.6609769  96.2717003
 129.6934089  18.7046331  84.6533449 128.8163555  18.5835132  84.2895696
 130.1691842  17.9132409  84.4012338 121.2136229  23.4923491  94.7474956
 121.9007269  23.1785221  94.1595972 121.0584358  24.3964855  94.4742208
 126.0170951  18.3813687  99.1759980 125.9329140  17.7739357  98.4410390
 125.1953658  18.8722706  99.1769476 133.0908235  31.8200851  98.3893148
 133.0178407  32.6255823  98.9012453 132.6485628  32.0192817  97.5641170
 132.8798015  31.0572621  91.8995970 132.0965537  31.5994302  91.9934194
 133.5790760  31.5746601  92.2990211 135.5506919  31.7187685 100.5451307
 136.2634891  32.3535150 100.4727208 135.0596948  31.8151551  99.7291309
 137.2724446  25.6238938  92.1168598 136.3380725  25.7440401  91.9473303
 137.4501114  24.7211405  91.8528608 130.6018832  29.4682129 101.3656878
 131.3028292  30.1018612 101.5186272 130.1313947  29.8096860 100.6052517
 135.3627292  32.0586429  93.2937598 135.5449687  31.2408085  93.7565351
 136.1860278  32.2754122  92.8562488 135.6969458  30.9854615  90.5552647
 136.2257224  30.4747069  89.9422809 135.9597677  30.6697145  91.4198180
 126.1986550  29.0018484  98.2987980 126.7839987  28.2562172  98.4315885
 126.0011389  29.3122441  99.1824644 129.0525206  32.0369731  93.3150423
 128.3835581  32.5215859  92.8314463 128.9138075  32.2838952  94.2293801
 120.7904205  21.5724084  97.0192423 120.8288305  21.0387675  97.8129542
 120.2844498  21.0459290  96.4003401 133.1930474  34.0713475  99.9133081
 133.7448782  34.2345096 100.6782166 133.5336668  34.6617913  99.2413106
 124.4212783  20.2988186  90.0946355 124.7166224  19.3898865  90.0413409
 123.5200819  20.2775926  89.7727357 136.3298862  32.0195450  96.8996763
 136.2050001  31.2185190  96.3907709 136.9877953  32.5141644  96.4110733
 127.9507030  18.3744183  96.0773903 127.2293616  18.9880151  95.9381377
 128.7400286  18.9101948  95.9990549 126.1500624  17.9802284  90.2185680
 125.8213331  17.0999663  90.0360786 126.5039995  17.9249953  91.1062069
 135.3980203  29.6157187  94.7280666 135.2505166  28.6873894  94.9088236
 136.2233697  29.6377277  94.2437741 129.2642448  18.2675254  90.5861158
 129.6038520  18.7961175  89.8639766 129.7114568  18.6055660  91.3619724
 130.1340939  20.4280737  96.2983527 129.9885520  20.7421041  97.1907809
 129.6566143  21.0465638  95.7454426 124.6086601  22.9686082  99.2371189
 124.0640069  23.7445890  99.3691463 125.4865951  23.3156886  99.0790310
 125.3952623  22.0955978 102.1301345 124.6534359  22.2438614 102.7165976
 125.0745367  22.3564244 101.2668095 133.3396286  31.6371956 101.9281735
 133.6483412  31.3921103 102.8004435 134.1371768  31.8418595 101.4400606
 133.3616898  33.7909866  94.1587112 132.9221888  33.2986245  94.8519969
 134.1125015  33.2482834  93.9179187 125.8409237  29.9821407  94.1611740
 126.6667257  29.6825179  93.7810384 125.4903289  29.2129029  94.6101529
 130.8090770  29.3347875  96.2309414 130.1870779  28.6718580  95.9311642
 131.4795637  29.3609007  95.5483061 124.0417842  27.9007733  95.1200674
 123.2049750  27.4729908  94.9384675 124.0141487  28.0940177  96.0571465
 130.3704277  27.8851798  89.7067874 130.5192397  28.5687263  89.0534547
 131.1770720  27.8656888  90.2217330 128.1256910  23.9116976  90.7128943
 127.8802952  23.0079306  90.9109153 128.2952824  23.9134127  89.7708421
 127.3952557  19.6445334  88.2115105 126.7021802  19.7189689  87.5555141
 127.1504309  18.8805677  88.7336621 133.8699682  30.3799929  87.1779622
 133.2973649  30.9990116  86.7250093 134.4432476  30.9299291  87.7119544
 134.2546481  21.7160742  84.5195674 135.2005585  21.5866950  84.5884092
 133.8760726  20.9775404  84.9965102 132.4389398  19.6410718  84.4550559
 131.5320853  19.3443831  84.5313273 132.7165379  19.3440536  83.5884846
 123.3567338  20.9617081  94.9049606 123.0370123  20.1082390  94.6123980
 122.8100766  21.1765660  95.6607573 127.1347246  23.6779522  98.6219112
 127.3533256  24.6096630  98.6407146 127.5473020  23.3187497  99.4073916
 123.2255598  24.5819993  96.8742727 122.5319070  24.1673946  96.3612682
 123.9728589  24.6240529  96.2776146 125.1392341  24.5138247  94.7508742
 125.1163029  24.6125934  93.7990625 125.4492977  25.3603398  95.0725908
 127.7979719  26.5714402  98.8655357 128.7522972  26.5398344  98.7985288
 127.5992242  26.1105025  99.6805583 128.3879101  25.1415518 101.4326154
 129.2071990  25.6359596 101.4560992 128.6615909  24.2247486 101.4043722
 126.1529947  32.1134021  95.8825554 126.0184415  31.3534422  95.3163553
 125.7362010  32.8374921  95.4154343 129.3099073  33.0103338  96.0943997
 129.1931458  33.9548771  95.9922687 128.4891520  32.7076900  96.4829796
 123.6414015  19.4753652 102.1318351 124.2872879  18.9652606 102.6205577
 123.4331166  20.2122333 102.7061777 130.3353587  33.6631600  99.3099926
 131.2380834  33.6955210  99.6266421 130.1090958  32.7332051  99.3246261
 132.0907190  32.4162587  95.9710004 131.1402821  32.4164448  95.8574376
 132.3939676  31.6695321  95.4546039 136.5557237  35.3953016  95.7864010
 135.7656291  35.6510544  95.3104121 137.0468484  36.2101353  95.8916051
 134.8394940  35.6483506  98.2179001 135.0902978  36.5330516  98.4836577
 135.3754488  35.4688108  97.4454093 135.4703981  39.7974498  91.9096478
 136.3079203  40.2071506  91.6930185 135.6482249  38.8573940  91.8796671
 135.4930153  37.1365213  92.5807211 135.2954552  36.5434574  91.8558278
 134.9376817  36.8317423  93.2983150 132.0529984  38.8215408  94.7474956
 132.7401023  38.5077138  94.1595972 131.8978112  39.7256773  94.4742208
 136.8564706  33.7105605  99.1759980 136.7722894  33.1031275  98.4410390
 136.0347412  34.2014623  99.1769476 131.6297960  36.9016002  97.0192423
 131.6682059  36.3679592  97.8129542 131.1238253  36.3751207  96.4003401
 135.2606537  35.6280104  90.0946355 135.5559978  34.7190782  90.0413409
 134.3594573  35.6067843  89.7727357 136.9894379  33.3094202  90.2185680
 136.6607085  32.4291580  90.0360786 137.3433750  33.2541870  91.1062069
 135.4480356  38.2978000  99.2371189 134.9033824  39.0737808  99.3691463
 136.3259705  38.6448804  99.0790310 136.2346377  37.4247896 102.1301345
 135.4928114  37.5730531 102.7165976 135.9139122  37.6856161 101.2668095
 136.6802991  45.3113325  94.1611740 137.5061011  45.0117096  93.7810384
 136.3297043  44.5420947  94.6101529 134.8811596  43.2299651  95.1200674
 134.0443505  42.8021825  94.9384675 134.8535242  43.4232094  96.0571465
 134.1961093  36.2908999  94.9049606 133.8763877  35.4374307  94.6123980
 133.6494521  36.5057577  95.6607573 134.0649353  39.9111911  96.8742727
 133.3712824  39.4965863  96.3612682 134.8122344  39.9532447  96.2776146
 135.9786095  39.8430164  94.7508742 135.9556783  39.9417852  93.7990625
 136.2886732  40.6895315  95.0725908 136.9923702  47.4425939  95.8825554
 136.8578170  46.6826340  95.3163553 136.5755764  48.1666839  95.4154343
 134.4807770  34.8045569 102.1318351 135.1266633  34.2944523 102.6205577
 134.2724921  35.5414251 102.7061777 136.6802992  22.3175447  80.8857047
 137.5061012  22.0179219  80.5055690 136.3297044  21.5483070  81.3346835
 134.8811597  20.2361774  81.8445980 134.0443506  19.8083948  81.6629982
 134.8535243  20.4294217  82.7816771 136.9923703  24.4488061  82.6070861
 136.8578171  23.6888462  82.0408859 136.5755765  25.1728961  82.1399650
  57.0303706  77.6376903 150.4541482  56.1230768  77.4066156 150.6532631
  57.5274738  76.8414522 150.6415464  58.3790193  75.3682458 150.8969138
  59.3249298  75.2388666 150.9657556  58.0004438  74.6297120 151.3738566
  59.3585923  59.0548919 141.3747418  58.7073902  59.6402999 140.9881431
  60.1530286  59.5855113 141.4342455  65.6252647  55.5473854 142.6352254
  64.8482089  55.2085014 142.1907416  66.3044128  55.5526478 141.9607219
  57.0303708  54.6439025 137.1786789  56.1230769  54.4128279 137.3777938
  57.5274740  53.8476645 137.3660771  59.9371787  63.3536533 140.0983475
  59.2633485  63.6568229 140.7068433  60.3237609  64.1565613 139.7488932
  57.9068029  56.2860364 139.0398858  57.4687459  55.5696223 138.5804495
  58.6478470  56.5136479 138.4783949  58.1363002  63.5216205 142.3130554
  58.3114757  63.0504248 143.1276177  57.4495790  64.1481971 142.5411815
  62.0279257  55.1444746 138.6330915  61.4108427  54.4191574 138.5363968
  61.5595745  55.9054106 138.2897990  62.8516942  58.4683918 142.7523555
  63.1276786  58.3540512 143.6617429  61.9821441  58.0701402 142.7135728
  59.8213171  61.6438453 143.6571417  60.3500938  61.1330908 143.0441579
  60.0841391  61.3280984 144.5216950  62.9153355  61.6155252 144.2726400
  63.0890232  61.0501674 143.5200253  63.4082246  62.4156147 144.0905890
  63.9028527  60.9322016 141.3723298  64.5979432  61.5528709 141.5910613
  64.2451677  60.0817367 141.6475676  65.8019950  58.3821722 142.9010629
  66.3271275  58.7208994 142.1759949  65.7142303  57.4468737 142.7173764
  57.9943396  61.0383768 140.2798392  57.4217363  61.6573955 139.8268864
  58.5676189  61.5883129 140.8138314  61.2140656  61.3220918 141.4106974
  62.1471329  61.2566480 141.6139850  61.1263868  62.1577185 140.9521507
  63.8428672  60.6386788 138.3710922  63.7642304  60.3046652 139.2646680
  64.6638339  61.1308556 138.3702394  58.3790194  52.3744581 137.6214444
  59.3249299  52.2450789 137.6902863  58.0004439  51.6359242 138.0983873
  61.4132624  57.9554784 137.9920900  62.1168474  58.1604786 138.6078556
  60.6895273  58.5231546 138.2569984  63.3219321  58.3937313 140.0419360
  64.1564925  57.9618511 139.8596835  63.1603664  58.2219327 140.9696255
  62.9765214  54.8969426 141.4075700  62.9214017  54.7313698 140.4664144
  62.3511269  55.6045459 141.5637889  71.9503597  68.9106964 150.1374537
  72.5882006  68.7913711 149.4337877  71.8324439  69.8587808 150.1962489
  68.7593303  68.8634392 150.0736062  68.4211814  68.7475457 149.1856597
  69.6283071  68.4625557 150.0537068  64.6180119  70.7169868 146.0632953
  64.0544984  70.6259805 145.2949240  64.5032514  69.8969773 146.5435445
  62.1644550  72.2121060 148.9017173  62.9565842  71.8711885 148.4863472
  62.4041201  72.3216035 149.8219326  70.1979677  74.3840836 141.3747418
  69.5467657  74.9694917 140.9881431  70.9924040  74.9147031 141.4342455
  64.1235304  71.4729973 141.7734552  64.8966180  70.9258960 141.6347428
  64.4760703  72.3374223 141.9849013  66.8876554  70.1783204 151.5702811
  67.4840126  69.9539227 150.8559774  66.9451525  69.4367950 152.1728259
  66.4601582  67.6322639 139.4053002  66.7127103  67.1104161 138.6436465
  65.5226141  67.4688785 139.5079685  71.5044865  66.6358418 147.2127745
  72.2907954  66.2177841 146.8618162  71.7683569  67.5404510 147.3809393
  71.6754942  72.0731268 141.9116402  71.0400775  72.1465895 142.6237306
  71.3452349  72.6624867 141.2335481  76.9053292  66.5733651 148.1160724
  77.6378464  66.0032868 148.3498553  76.1492648  66.1855251 148.5567229
  66.1797871  69.5350745 141.6077377  66.0634129  68.8595649 142.2758461
  66.2900131  69.0483119 140.7909530  68.5229412  68.9960893 145.3124066
  68.1587619  68.4691513 146.0236987  69.3796528  68.6059362 145.1390551
  68.1634899  64.0250792 140.3085414  68.3309301  64.8931029 140.6755886
  67.9732068  64.1878074 139.3846704  64.3722713  68.9381568 148.0087949
  63.4473210  68.8057782 148.2165641  64.6207127  69.7175787 148.5057892
  74.3207376  65.0050311 149.6548682  73.4124253  64.9365720 149.3607443
  74.2694972  65.4822256 150.4830508  68.1424120  66.4808450 141.2932081
  68.0223745  66.9265500 142.1317562  67.4476708  66.8293767 140.7345619
  61.7331525  68.5814842 148.8431738  61.8623906  68.8349320 149.7571150
  61.0528976  69.1742550 148.5236393  65.9031012  79.2512091 144.9422213
  65.8255042  80.2019917 145.0210693  65.2992655  78.9057964 145.5997139
  76.1869022  63.2066750 151.4326556  75.5443402  63.4999283 150.7866351
  75.6823951  63.0919670 152.2379753  73.8409186  66.9529923 142.1212415
  74.7527042  67.1857310 141.9460113  73.3318833  67.5366967 141.5587494
  68.0006730  71.6730149 146.7776082  68.4645076  71.9517852 145.9880704
  67.7363528  70.7713594 146.5949173  64.8930811  71.2201631 149.7155845
  65.4632168  71.6488899 149.0773330  65.4838923  70.9384216 150.4140031
  66.9375616  67.7953302 143.5865647  67.6399659  68.2474345 144.0539573
  66.6056245  67.1537121 144.2145540  62.6315695  66.4181434 145.8466257
  61.8346859  66.5300128 146.3649753  62.4041288  66.7568086 144.9807148
  68.1769381  74.6094244 143.6627752  68.0415056  75.4545780 144.0912600
  68.7179193  74.8113522 142.8993686  61.6298778  72.1269682 144.2355677
  62.1423299  72.9212933 144.3861242  62.2821491  71.4295973 144.1689279
  63.4393663  75.2435439 146.3178431  63.6160291  76.1653403 146.1299414
  64.2350496  74.9293858 146.7472810  59.5947695  70.4558337 145.0115248
  60.4322917  70.8655345 144.7948956  59.7725963  69.5157779 144.9815442
  71.4912127  68.1233417 140.6999081  70.9758750  68.8938022 140.9387468
  71.2189435  67.4498554 141.3232142  69.0759238  62.9683118 145.7584319
  68.2200834  62.5789969 145.5789958  69.4886190  63.0475079 144.8984105
  76.4646401  70.8765772 142.6352254  75.6875844  70.5376932 142.1907416
  77.1437882  70.8818395 141.9607219  71.2798430  65.9960510 142.5258862
  70.9748566  66.3106659 143.3769005  72.2328872  66.0741929 142.5686195
  69.7244862  72.1550733 144.1751816  69.1966224  71.4203492 143.8625053
  69.2232365  72.9325409 143.9291784  64.4563590  62.8170399 146.5358428
  65.0307342  62.5945581 145.8031620  65.0434572  62.8859094 147.2887029
  73.5143167  68.7044126 147.3422804  74.0275049  69.3374118 147.8444514
  74.1644391  68.1045322 146.9766164  64.7833177  64.8474860 140.5554313
  63.9470489  65.1849547 140.8763588  64.6437946  64.7123840 139.6181450
  66.7586257  59.6911648 145.2633497  66.1050670  59.3760665 144.6390112
  66.7166732  59.0687388 145.9893320  67.8697462  69.9730943 137.1786789
  66.9624524  69.7420197 137.3777938  68.3668494  69.1768562 137.3660771
  70.7765541  78.6828450 140.0983475  70.1027240  78.9860147 140.7068433
  71.1631363  79.4857531 139.7488932  69.9923998  66.1793582 149.5881145
  69.0746559  66.4008529 149.4302833  70.4084141  66.2539892 148.7292852
  70.7759045  67.5784997 144.7183825  71.5230864  68.0906394 144.4090947
  71.0450635  67.2569050 145.5788218  69.0485696  70.0743538 141.7010779
  68.1396915  69.7902571 141.7983249  69.0780779  70.4942617 140.8414086
  74.2804963  73.6850127 145.4701947  73.8267290  72.8441037 145.5267137
  73.6498930  74.3211526 145.8076727  73.2237883  64.6142113 146.7002614
  72.4860639  64.1019500 147.0312857  73.4764656  64.1742495 145.8885891
  72.7237902  75.5226624 146.4051765  73.0160877  76.0831681 145.6864130
  73.2336523  75.8155185 147.1604924  73.3249510  57.3918366 147.2944383
  73.6308387  56.5315729 147.0070298  74.0502115  57.9835986 147.0943377
  59.6173866  67.7949052 145.6825981  59.4198266  67.2018413 144.9577048
  59.0620530  67.4901262 146.4001920  67.5970590  67.6872159 147.8020574
  67.6519199  66.7345995 147.7263051  66.7861792  67.8431598 148.2861873
  68.7461783  71.6152282 139.0398858  68.3081213  70.8988141 138.5804495
  69.4872224  71.8428396 138.4783949  65.5362950  66.3049218 145.5610953
  64.7230815  66.6043389 145.9676145  66.0321944  65.9104907 146.2785436
  67.6871528  76.3006975 147.4945218  67.6447706  76.5267822 146.5653750
  68.6034226  76.0670350 147.6431019  76.8634898  69.8909479 145.0975176
  76.7252797  70.0811075 144.1696365  76.5071117  70.6528861 145.5543227
  65.8037328  73.1770004 147.2907181  66.5977927  72.6820324 147.0889756
  65.0929021  72.6487867 146.9274886  62.1120092  67.3213086 143.3666933
  61.1817680  67.2597541 143.5836896  62.2077564  66.7989039 142.5703575
  62.0305641  63.8467899 145.9545175  62.2912458  64.7613232 145.8454336
  62.8522813  63.3792341 146.1041788  68.9756756  78.8508123 142.3130554
  69.1508512  78.3796166 143.1276177  68.2889544  79.4773889 142.5411815
  69.9313819  73.1280629 148.3593856  69.5963652  73.0881399 149.2551506
  69.4317765  72.4625345 147.8864266  72.8673011  70.4736663 138.6330915
  72.2502182  69.7483491 138.5363968  72.3989500  71.2346024 138.2897990
  64.6571557  64.6922088 137.7552220  63.7801023  64.5710888 137.3914466
  65.1329310  63.9008166 137.5031108  56.1773697  69.4799247 147.8493727
  56.8644737  69.1660977 147.2614742  56.0221826  70.3840612 147.5760978
  67.8435483  77.0448378 145.0014740  67.0603005  77.5870058 145.0952965
  68.5428228  77.5622358 145.4008981  71.1532133  62.8543007 147.6448945
  71.6500833  62.1012970 147.3250016  70.3819115  62.8907324 147.0792155
  72.2361914  71.6114695 145.2187369  71.3018193  71.7316157 145.0492073
  72.4138582  70.7087161 144.9547379  67.7367102  64.9960390 147.3720630
  67.3664889  64.4431431 148.0601536  68.2326194  64.3918524 146.8195630
  75.6234465  67.4532014 145.7537403  76.0894917  68.2860005 145.6797706
  76.0741966  66.9876995 146.4582661  73.6910696  73.7975835 142.7523555
  73.9670540  73.6832430 143.6617429  72.8215195  73.3993320 142.7135728
  70.3264760  78.0462186 146.3956369  70.5087155  77.2283842 146.8584121
  71.1497746  78.2629878 145.9581259  70.6606926  76.9730371 143.6571417
  71.1894692  76.4622826 143.0441579  70.9235145  76.6572901 144.5216950
  61.1624019  74.9894240 151.4006751  61.7477455  74.2437928 151.5334655
  60.9648857  75.2998197 152.2843415  64.0162674  78.0245488 146.4169193
  63.3473049  78.5091615 145.9333233  63.8775543  78.2714708 147.3312572
  59.3850251  66.2863943 143.1965125  59.6803692  65.3774621 143.1432179
  58.4838287  66.2651682 142.8746128  61.1138092  63.9678040 143.3204450
  60.7850799  63.0875419 143.1379556  61.4677463  63.9125709 144.2080840
  70.3617671  75.6032943 147.8299436  70.2142634  74.6749651 148.0107006
  71.1871165  75.6253034 147.3456511  64.2279916  64.2551010 143.6879928
  64.5675988  64.7836932 142.9658536  64.6752036  64.5931416 144.4638495
  66.2148063  62.7525632 141.8873221  66.9356425  63.1306885 141.3836938
  65.5913367  63.4714509 141.9908199  70.3579186  63.4570781 142.8231553
  70.5742800  64.3395419 142.5220381  69.8773253  63.0656994 142.0937195
  73.7547109  76.9447169 144.2726400  73.9283987  76.3793592 143.5200253
  74.2476001  77.7448064 144.0905890  66.3611686  62.2873422 144.7170757
  66.4827597  61.3590069 144.9161645  66.0713728  62.3012108 143.8049073
  79.6086501  69.7083592 145.8916700  80.0517647  68.9590918 145.4935823
  78.7313011  69.6993729 145.5090432  74.7422282  76.2613934 141.3723298
  75.4373186  76.8820626 141.5910613  75.0845432  75.4109285 141.6475676
  76.6413705  73.7113639 142.9010629  77.1665029  74.0500912 142.1759949
  76.5536058  72.7760655 142.7173764  60.8046705  75.9697163 147.2630510
  61.6304725  75.6700935 146.8829154  60.4540757  75.2004786 147.7120299
  65.7728238  75.3223632 149.3328184  65.1508247  74.6594337 149.0330412
  66.4433105  75.3484764 148.6501832  59.0055310  73.8883490 148.2219444
  58.1687218  73.4605664 148.0403445  58.9778955  74.0815933 149.1590235
  65.3341745  73.8727555 142.8086645  65.4829865  74.5563019 142.1553317
  66.1408188  73.8532645 143.3236100  63.0894378  69.8992733 143.8147713
  62.8440420  68.9955063 144.0127924  63.2590292  69.9009883 142.8727191
  62.3590025  65.6321090 141.3133875  61.6659270  65.7065445 140.6573911
  62.1141777  64.8681434 141.8355392  68.8337150  76.3675685 140.2798392
  68.2611117  76.9865873 139.8268864  69.4069944  76.9175047 140.8138314
  72.0534410  76.6512836 141.4106974  72.9865083  76.5858397 141.6139850
  71.9657623  77.4869102 140.9521507  74.6822427  75.9678706 138.3710922
  74.6036058  75.6338570 139.2646680  75.5032094  76.4600474 138.3702394
  69.2183949  67.7036498 137.6214444  70.1643054  67.5742706 137.6902863
  68.8398194  66.9651160 138.0983873  75.1905833  59.3692504 147.5841336
  74.9930654  59.0607592 148.4684668  75.8005539  60.0954143 147.7139266
  67.4026866  65.6286475 137.5569330  66.4958321  65.3319587 137.6332043
  67.6802847  65.3316293 136.6903616  69.0188932  60.1723364 143.7113571
  68.2089660  59.8270449 144.0868817  69.7073349  59.8630908 144.3001183
  70.9479480  59.2501411 145.3337868  71.5010519  59.6696865 145.9927891
  71.1849566  58.3237159 145.3760824  66.1725651  62.4873410 137.6981309
  67.0344815  62.8128308 137.9577126  66.3575995  61.7004906 137.1854375
  74.3258287  61.3601936 144.8416532  73.7456956  62.0186740 144.4594584
  74.0594220  60.5379281 144.4303949  72.7761853  60.7606994 147.0437852
  73.2761632  60.8723529 146.2352171  73.4197461  60.4568047 147.6838661
  60.1029809  70.5014003 147.8527513  60.0800497  70.6001691 146.9009396
  60.4130445  71.3479154 148.1744679  73.1083165  63.5202027 143.8972880
  72.2209020  63.8051677 143.6793075  73.5237154  63.3595790 143.0500157
  76.4597701  63.5448548 147.6127219  77.2358091  64.0345000 147.8851836
  75.7345835  63.9706602 148.0699089  78.8970260  64.2576167 148.6701160
  79.4914751  64.0171903 147.9594468  78.9696844  63.5383297 149.2974696
  61.1167416  78.1009778 148.9844325  60.9821883  77.3410179 148.4182323
  60.6999478  78.8250678 148.5173114  72.2526379  73.2846701 137.9920900
  72.9562229  73.4896704 138.6078556  71.5289027  73.8523463 138.2569984
  73.0824189  69.0356563 144.1123170  73.0259390  69.4925114 143.2730803
  73.6352531  68.2747247 143.9346013  76.8928995  64.8246294 144.9373290
  76.6365929  64.4242930 145.7681498  76.2681863  65.5390088 144.8123429
  81.2041333  67.5642368 147.4444581  80.6440891  67.6335557 148.2176143
  80.5984836  67.3883352 146.7244077  74.1613076  73.7229231 140.0419360
  74.9958680  73.2910429 139.8596835  73.9997419  73.5511244 140.9696255
  73.8158968  70.2261344 141.4075700  73.7607772  70.0605615 140.4664144
  73.1905023  70.9337377 141.5637889  67.1255094  59.7269453 140.9861018
  67.1133763  60.6711293 141.1429289  68.0178515  59.5439598 140.6920479
  70.9407213  56.3212229 145.2406955  70.1739609  55.7670716 145.3863637
  71.3517918  56.3934098 146.1021106  77.2995337  82.9614557 139.4053002
  77.5520857  82.4396078 138.6436465  76.3619896  82.7980703 139.5079685
  79.0028653  79.3542710 140.3085414  79.1703056  80.2222946 140.6755886
  78.8125822  79.5169992 139.3846704  75.6226931  80.1766778 140.5554313
  74.7864244  80.5141464 140.8763588  75.4831701  80.0415758 139.6181450
  77.5980012  75.0203566 145.2633497  76.9444424  74.7052583 144.6390112
  77.5560486  74.3979306 145.9893320  78.7091217  85.3022861 137.1786789
  77.8018278  85.0712114 137.3777938  79.2062249  84.5060480 137.3660771
  72.9513846  82.6505004 143.3666933  72.0211434  82.5889459 143.5836896
  73.0471318  82.1280956 142.5703575  75.4965311  80.0214005 137.7552220
  74.6194778  79.9002806 137.3914466  75.9723065  79.2300084 137.5031108
  70.2244005  81.6155861 143.1965125  70.5197446  80.7066539 143.1432179
  69.3232041  81.5943600 142.8746128  71.9531847  79.2969958 143.3204450
  71.6244553  78.4167337 143.1379556  72.3071218  79.2417627 144.2080840
  77.0541817  78.0817550 141.8873221  77.7750180  78.4598802 141.3836938
  76.4307121  78.8006426 141.9908199  77.2005440  77.6165340 144.7170757
  77.3221351  76.6881986 144.9161645  76.9107483  77.6304026 143.8049073
  73.1983780  80.9613008 141.3133875  72.5053025  81.0357363 140.6573911
  72.9535532  80.1973352 141.8355392  80.0577703  83.0328416 137.6214444
  81.0036808  82.9034624 137.6902863  79.6791948  82.2943078 138.0983873
  78.2420620  80.9578392 137.5569330  77.3352076  80.6611505 137.6332043
  78.5196601  80.6608210 136.6903616  79.8582686  75.5015282 143.7113571
  79.0483414  75.1562367 144.0868817  80.5467103  75.1922826 144.3001183
  77.0119405  77.8165328 137.6981309  77.8738569  78.1420226 137.9577126
  77.1969749  77.0296823 137.1854375  77.9648848  75.0561371 140.9861018
  77.9527518  76.0003210 141.1429289  78.8572270  74.8731516 140.6920479
  81.7800968  71.6504147 145.2406955  81.0133363  71.0962634 145.3863637
  82.1911672  71.7226016 146.1021106  59.3585924  36.0611041 128.0992724
  58.7073904  36.6465122 127.7126738  60.1530287  36.5917236 128.1587762
  65.6252648  32.5535977 129.3597561  64.8482091  32.2147136 128.9152723
  66.3044129  32.5588600 128.6852526  57.0303709  31.6501148 123.9032096
  56.1230771  31.4190401 124.1023245  57.5274741  30.8538767 124.0906077
  59.9371788  40.3598655 126.8228782  59.2633487  40.6630352 127.4313740
  60.3237610  41.1627736 126.4734239  57.9068030  33.2922487 125.7644164
  57.4687460  32.5758345 125.3049802  58.6478471  33.5198601 125.2029256
  58.1363003  40.5278328 129.0375861  58.3114759  40.0566371 129.8521484
  57.4495791  41.1544094 129.2657122  62.0279258  32.1506868 125.3576222
  61.4108428  31.4253696 125.2609275  61.5595746  32.9116228 125.0143296
  62.8516943  35.4746040 129.4768862  63.1276787  35.3602635 130.3862736
  61.9821442  35.0763525 129.4381035  59.8213173  38.6500576 130.3816724
  60.3500939  38.1393031 129.7686886  60.0841392  38.3343106 131.2462257
  62.9153356  38.6217374 130.9971707  63.0890234  38.0563797 130.2445559
  63.4082247  39.4218269 130.8151197  63.9028529  37.9384139 128.0968605
  64.5979433  38.5590831 128.3155920  64.2451679  37.0879490 128.3720983
  65.8019952  35.3883844 129.6255936  66.3271276  35.7271117 128.9005256
  65.7142304  34.4530860 129.4419070  57.9943397  38.0445890 127.0043699
  57.4217364  38.6636078 126.5514170  58.5676191  38.5945252 127.5383621
  61.2140657  38.3283041 128.1352281  62.1471330  38.2628602 128.3385156
  61.1263870  39.1639307 127.6766814  63.8428674  37.6448911 125.0956228
  63.7642305  37.3108774 125.9891986  64.6638340  38.1370679 125.0947701
  58.3790196  29.3806703 124.3459751  59.3249300  29.2512911 124.4148169
  58.0004441  28.6421365 124.8229179  61.4132625  34.9616906 124.7166207
  62.1168475  35.1666909 125.3323862  60.6895274  35.5293668 124.9815290
  63.3219323  35.3999435 126.7664667  64.1564927  34.9680634 126.5842142
  63.1603666  35.2281449 127.6941561  62.9765215  31.9031549 128.1321006
  62.9214019  31.7375820 127.1909450  62.3511270  32.6107582 128.2883196
  71.9503598  45.9169087 136.8619844  72.5882008  45.7975834 136.1583184
  71.8324441  46.8649931 136.9207796  68.7593304  45.8696515 136.7981368
  68.4211816  45.7537579 135.9101903  69.6283072  45.4687680 136.7782374
  64.6180120  47.7231991 132.7878259  64.0544985  47.6321928 132.0194547
  64.5032515  46.9031896 133.2680752  62.1644552  49.2183183 135.6262480
  62.9565844  48.8774007 135.2108779  62.4041202  49.3278158 136.5464633
  70.1979678  51.3902959 128.0992724  69.5467658  51.9757039 127.7126738
  70.9924041  51.9209154 128.1587762  64.1235306  48.4792096 128.4979858
  64.8966182  47.9321083 128.3592734  64.4760705  49.3436345 128.7094320
  66.8876555  47.1845327 138.2948117  67.4840127  46.9601349 137.5805080
  66.9451527  46.4430072 138.8973565  66.4601583  44.6384762 126.1298308
  66.7127104  44.1166283 125.3681771  65.5226143  44.4750908 126.2324992
  71.5044866  43.6420540 133.9373052  72.2907956  43.2239964 133.5863469
  71.7683571  44.5466633 134.1054700  71.6754944  49.0793391 128.6361708
  71.0400777  49.1528017 129.3482613  71.3452350  49.6686990 127.9580788
  76.9053293  43.5795774 134.8406030  77.6378465  43.0094990 135.0743860
  76.1492649  43.1917374 135.2812536  66.1797872  46.5412868 128.3322683
  66.0634130  45.8657771 129.0003768  66.2900132  46.0545242 127.5154836
  68.5229413  46.0023015 132.0369373  68.1587620  45.4753636 132.7482294
  69.3796529  45.6121484 131.8635858  68.1634900  41.0312915 127.0330721
  68.3309302  41.8993151 127.4001192  67.9732069  41.1940197 126.1092010
  70.9210233  49.4929894 138.6996551  70.6210956  50.3954933 138.5912359
  70.5761293  49.2262077 139.5517704  64.3722715  45.9443691 134.7333256
  63.4473211  45.8119905 134.9410948  64.6207128  46.7237910 135.2303198
  74.3207377  42.0112434 136.3793989  73.4124254  41.9427842 136.0852750
  74.2694973  42.4884379 137.2075814  68.1424121  43.4870572 128.0177388
  68.0223746  43.9327623 128.8562868  67.4476709  43.8355890 127.4590926
  61.7331526  45.5876964 135.5677045  61.8623907  45.8411443 136.4816457
  61.0528977  46.1804672 135.2481700  65.9031013  56.2574214 131.6667519
  65.8255043  57.2082039 131.7456000  65.2992657  55.9120087 132.3242445
  76.1869023  40.2128872 138.1571863  75.5443404  40.5061405 137.5111657
  75.6823952  40.0981793 138.9625059  73.8409187  43.9592046 128.8457722
  74.7527043  44.1919432 128.6705420  73.3318834  44.5429090 128.2832801
  72.4478769  48.9417864 136.2371303  71.8187632  49.1063578 135.5347371
  72.0604432  49.3559474 137.0082267  76.3268001  49.8772302 133.5915667
  75.6419039  50.2571203 133.0412701  76.4111851  50.4867628 134.3247615
  73.5818933  47.5232261 140.1911011  73.7935828  48.1664021 139.5145392
  73.5348681  46.6894577 139.7232941  68.0006731  48.6792272 133.5021389
  68.4645077  48.9579975 132.7126011  67.7363529  47.7775717 133.3194479
  64.8930812  48.2263754 136.4401152  65.4632169  48.6551022 135.8018636
  65.4838924  47.9446338 137.1385337  66.9375617  44.8015424 130.3110954
  67.6399661  45.2536468 130.7784880  66.6056246  44.1599243 130.9390847
  74.6964761  50.4004216 138.3633368  75.5182205  49.9984404 138.0816050
  74.6927164  50.2972450 139.3149484  62.6315697  43.4243556 132.5711564
  61.8346860  43.5362251 133.0895060  62.4041289  43.7630209 131.7052454
  68.4621364  49.9488260 140.5194079  68.5265797  50.4108667 141.3552250
  67.7532288  49.3185624 140.6476388  82.7870754  46.7442965 134.7118340
  82.0334462  46.1750363 134.5562344  82.9218295  46.7105629 135.6588974
  68.1769382  51.6156367 130.3873059  68.0415057  52.4607903 130.8157907
  68.7179195  51.8175645 129.6238993  61.6298779  49.1331805 130.9600984
  62.1423300  49.9275055 131.1106549  62.2821492  48.4358096 130.8934585
  63.4393664  52.2497561 133.0423737  63.6160292  53.1715526 132.8544721
  64.2350498  51.9355981 133.4718117  64.5624980  53.7675735 139.0434079
  65.1132405  53.6392798 138.2711073  63.7236455  54.0670624 138.6928972
  71.9019096  52.5182733 142.5454802  71.8837572  53.3391615 142.0535071
  72.8239016  52.3936809 142.7704943  59.5947696  47.4620459 131.7360555
  60.4322918  47.8717468 131.5194262  59.7725964  46.5219902 131.7060748
  71.4912128  45.1295540 127.4244387  70.9758752  45.9000145 127.6632775
  71.2189437  44.4560676 128.0477449  69.0759239  39.9745241 132.4829626
  68.2200836  39.5852091 132.3035265  69.4886191  40.0537202 131.6229411
  76.4646402  47.8827895 129.3597561  75.6875845  47.5439054 128.9152723
  77.1437883  47.8880518 128.6852526  71.2798431  43.0022632 129.2504169
  70.9748567  43.3168781 130.1014312  72.2328874  43.0804052 129.2931502
  69.7244863  49.1612855 130.8997123  69.1966225  48.4265615 130.5870360
  69.2232366  49.9387532 130.6537091  74.7037709  47.3561876 136.0164169
  74.0461384  48.0461137 136.1044298  75.5078109  47.7458308 136.3598155
  64.4563591  39.8232522 133.2603734  65.0307343  39.6007703 132.5276927
  65.0434573  39.8921216 134.0132335  73.5143168  45.7106249 134.0668111
  74.0275050  46.3436240 134.5689820  74.1644392  45.1107444 133.7011471
  64.7833178  41.8536983 127.2799619  63.9470490  42.1911669 127.6008894
  64.6437948  41.7185963 126.3426756  66.7586259  36.6973771 131.9878804
  66.1050671  36.3822788 131.3635418  66.7166733  36.0749511 132.7138627
  67.8697463  46.9793066 123.9032096  66.9624525  46.7482319 124.1023245
  68.3668495  46.1830685 124.0906077  70.7765542  55.6890573 126.8228782
  70.1027241  55.9922270 127.4313740  71.1631364  56.4919653 126.4734239
  69.9923999  43.1855704 136.3126451  69.0746560  43.4070651 136.1548139
  70.4084143  43.2602015 135.4538159  70.7759047  44.5847120 131.4429131
  71.5230866  45.0968517 131.1336254  71.0450636  44.2631173 132.3033525
  69.0485697  47.0805661 128.4256086  68.1396916  46.7964693 128.5228556
  69.0780781  47.5004739 127.5659393  74.2804964  50.6912250 132.1947253
  73.8267291  49.8503160 132.2512444  73.6498931  51.3273648 132.5322033
  73.2237884  41.6204236 133.4247921  72.4860641  41.1081622 133.7558163
  73.4764657  41.1804618 132.6131198  72.7237904  52.5288747 133.1297071
  73.0160878  53.0893804 132.4109437  73.2336524  52.8217308 133.8850231
  73.3249511  34.3980488 134.0189690  73.6308388  33.5377852 133.7315605
  74.0502116  34.9898108 133.8188684  59.6173867  44.8011175 132.4071288
  59.4198267  44.2080535 131.6822355  59.0620531  44.4963385 133.1247227
  67.5970591  44.6934281 134.5265881  67.6519201  43.7408118 134.4508358
  66.7861793  44.8493720 135.0107180  68.7461785  48.6214404 125.7644164
  68.3081215  47.9050263 125.3049802  69.4872226  48.8490519 125.2029256
  65.5362951  43.3111341 132.2856260  64.7230816  43.6105511 132.6921452
  66.0321945  42.9167030 133.0030742  67.6871529  53.3069098 134.2190525
  67.6447708  53.5329944 133.2899057  68.6034228  53.0732472 134.3676326
  76.8634900  46.8971601 131.8220483  76.7252798  47.0873197 130.8941672
  76.5071118  47.6590984 132.2788534  76.8904279  48.9648128 136.8331754
  77.3240786  48.8723417 137.6814808  77.6035860  48.9405629 136.1951770
  65.8037330  50.1832127 134.0152487  66.5977928  49.6882447 133.8135062
  65.0929022  49.6549990 133.6520193  70.6232174  52.5650222 138.3664855
  70.6769196  53.1341159 139.1342571  69.7546955  52.7352107 138.0018892
  62.1120093  44.3275209 130.0912240  61.1817681  44.2659664 130.3082202
  62.2077565  43.8051161 129.2948881  62.0305642  40.8530021 132.6790482
  62.2912459  41.7675355 132.5699642  62.8522814  40.3854464 132.8287095
  77.7519829  49.0071829 139.3664640  77.9455719  49.9117639 139.6123915
  77.6520447  48.5479248 140.2003225  69.5820274  46.7310484 139.9251787
  70.5112334  46.8821644 139.7520754  69.1611304  46.8194505 139.0700433
  68.3808606  50.7561149 137.6950324  68.2419691  50.3879933 138.5676263
  67.5923202  51.2708788 137.5234282  68.9756758  55.8570245 129.0375861
  69.1508513  55.3858288 129.8521484  68.2889546  56.4836012 129.2657122
  69.9313821  50.1342752 135.0839162  69.5963653  50.0943522 135.9796812
  69.4317766  49.4687467 134.6109573  72.8673012  47.4798786 125.3576222
  72.2502183  46.7545614 125.2609275  72.3989501  48.2408146 125.0143296
  74.5227144  52.1897694 143.0182002  74.4639690  51.5056914 142.3512585
  74.9246662  52.9316684 142.5662628  63.5417843  59.0059608 135.8115721
  63.7814441  59.6378132 136.4894740  62.6987039  58.6547648 136.0981080
  64.6571558  41.6984210 124.4797526  63.7801025  41.5773011 124.1159773
  65.1329311  40.9070288 124.2276415  74.5244551  50.1537278 141.2495982
  73.6371330  49.8163200 141.3722381  75.0943102  49.4220309 141.4864747
  56.1773698  46.4861370 134.5739033  56.8644738  46.1723100 133.9860049
  56.0221827  47.3902735 134.3006285  68.0545705  54.8138731 138.2157225
  67.9815876  55.6193702 138.7276530  67.6123098  55.0130696 137.3905247
  67.8435484  54.0510501 131.7260047  67.0603006  54.5932181 131.8198271
  68.5428229  54.5684480 132.1254288  71.1532134  39.8605130 134.3694252
  71.6500834  39.1075092 134.0495322  70.3819116  39.8969447 133.8037461
  79.0061892  45.5645496 136.0112544  78.9951768  46.4470211 135.6406477
  78.1379271  45.2117046 135.8167081  70.5144388  54.7125565 140.3715384
  71.2272360  55.3473029 140.2991285  70.0234417  54.8089431 139.5555386
  72.2361915  48.6176817 131.9432675  71.3018194  48.7378280 131.7737380
  72.4138584  47.7149284 131.6792685  67.7367103  42.0022513 134.0965937
  67.3664891  41.4493553 134.7846842  68.2326196  41.3980646 133.5440937
  75.6234466  44.4594136 132.4782710  76.0894919  45.2922128 132.4043012
  76.0741967  43.9939118 133.1827968  65.5656302  52.4620008 141.1920955
  66.2665761  53.0956491 141.3450349  65.0951417  52.8034740 140.4316594
  73.6910698  50.8037958 129.4768862  73.9670541  50.6894552 130.3862736
  72.8215196  50.4055443 129.4381035  73.3657588  45.0164615 139.0173505
  72.7129038  45.2640523 138.3625958  73.7437968  44.2028754 138.6835982
  70.3264762  55.0524309 133.1201675  70.5087156  54.2345965 133.5829428
  71.1497748  55.2692001 132.6826565  70.6606927  53.9792494 130.3816724
  71.1894693  53.4684948 129.7686886  70.9235147  53.6635024 131.2462257
  61.1624020  51.9956363 138.1252057  61.7477457  51.2500051 138.2579962
  60.9648858  52.3060320 139.0088721  64.0162675  55.0307610 133.1414500
  63.3473050  55.5153738 132.6578540  63.8775545  55.2776831 134.0557878
  68.1567944  57.0651354 139.7397158  68.7086252  57.2282975 140.5046243
  68.4974137  57.6555792 139.0677183  59.3850252  43.2926065 129.9210432
  59.6803693  42.3836744 129.8677486  58.4838288  43.2713805 129.5991434
  71.2936331  55.0133329 136.7260840  71.1687470  54.2123069 136.2171786
  71.9515422  55.5079523 136.2374810  73.3571239  52.8142350 138.3540390
  72.4101575  52.6947701 138.2818717  73.7054012  51.9264848 138.4366652
  61.1138094  40.9740163 130.0449757  60.7850800  40.0937542 129.8624863
  61.4677464  40.9187832 130.9326146  70.3617673  52.6095066 134.5544743
  70.2142635  51.6811773 134.7352313  71.1871166  52.6315157 134.0701818
  64.2279917  41.2613133 130.4125235  64.5675989  41.7899054 129.6903843
  64.6752037  41.5993539 131.1883801  73.9651794  53.4323625 135.6409615
  74.8898342  53.2266486 135.5034066  73.7967098  53.1840026 136.5498957
  66.2148064  39.7587754 128.6118527  66.9356426  40.1369007 128.1082244
  65.5913368  40.4776631 128.7153505  70.3579187  40.4632903 129.5476860
  70.5742801  41.3457541 129.2465688  69.8773254  40.0719117 128.8182502
  73.7547111  53.9509292 130.9971707  73.9283988  53.3855714 130.2445559
  74.2476002  54.7510187 130.8151197  66.3611687  39.2935545 131.4416064
  66.4827598  38.3652191 131.6406952  66.0713729  39.3074231 130.5294380
  79.6086502  46.7145715 132.6162007  80.0517648  45.9653040 132.2181130
  78.7313012  46.7055851 132.2335738  74.7422283  53.2676056 128.0968605
  75.4373188  53.8882749 128.3155920  75.0845433  52.4171408 128.3720983
  76.6413706  50.7175762 129.6255936  77.1665030  51.0563035 128.9005256
  76.5536059  49.7822777 129.4419070  68.3033755  54.6309836 141.7545812
  68.6120881  54.3858982 142.6268512  69.1009237  54.8356474 141.2664683
  68.3254367  56.7847745 133.9851189  67.8859357  56.2924124 134.6784046
  69.0762484  56.2420713 133.7443264  60.8046706  52.9759286 133.9875817
  61.6304726  52.6763058 133.6074461  60.4540758  52.2066908 134.4365606
  65.7728239  52.3285754 136.0573491  65.1508248  51.6656459 135.7575719
  66.4433106  52.3546886 135.3747138  59.0055311  50.8945613 134.9464751
  58.1687219  50.4667787 134.7648752  58.9778956  51.0878056 135.8835542
  76.3307612  51.3508666 144.9307134  75.5403156  51.3332804 144.3911633
  76.0940967  51.8896959 145.6856170  76.4505487  48.2001132 142.2439862
  76.5003492  48.0351139 143.1855385  76.3419411  47.3328391 141.8537743
  65.3341746  50.8789678 129.5331951  65.4829866  51.5625142 128.8798624
  66.1408189  50.8594768 130.0481407  77.9523684  50.6198073 142.4881884
  77.6608492  50.9828054 143.3245345  77.3395815  49.9065082 142.3095216
  79.1519366  48.1850953 135.0084454  79.9866258  48.6240757 135.1722014
  79.2878495  47.7089606 134.1892700  76.2010872  45.7430688 140.9561942
  76.6764994  45.9358334 140.1480793  75.2776438  45.7989874 140.7105325
  63.0894379  46.9054855 130.5393020  62.8440421  46.0017185 130.7373230
  63.2590294  46.9072006 129.5972498  62.3590027  42.6383213 128.0379182
  61.6659271  42.7127568 127.3819218  62.1141778  41.8743556 128.5600698
  68.8337152  53.3737808 127.0043699  68.2611119  53.9927995 126.5514170
  69.4069945  53.9237170 127.5383621  74.9012541  42.6196448 139.1890247
  75.8529964  42.7194546 139.2102471  74.7315992  41.8274717 139.6988332
  72.0534411  53.6574958 128.1352281  72.9865084  53.5920520 128.3385156
  71.9657624  54.4931225 127.6766814  74.6822428  52.9740829 125.0956228
  74.6036060  52.6400692 125.9891986  75.5032095  53.4662596 125.0947701
  77.3800619  45.8402568 138.3032547  77.3476939  44.9018569 138.4892231
  77.9901243  45.9186605 137.5698372  69.2183950  44.7098621 124.3459751
  70.1643055  44.5804829 124.4148169  68.8398195  43.9713283 124.8229179
  77.5295108  42.6313611 138.3490830  77.0134156  41.8472068 138.1620759
  78.4135056  42.3032328 138.5137350  75.1905835  36.3754627 134.3086643
  74.9930656  36.0669715 135.1929975  75.8005540  37.1016266 134.4384573
  83.1977169  46.9018575 137.4438584  83.9280558  46.6403863 138.0046287
  82.5884115  46.1647297 137.4840652  81.2792466  45.0426437 138.0413035
  80.5525630  44.9082402 137.4329527  80.8639753  45.3503266 138.8469753
  67.4026867  42.6348597 124.2814636  66.4958323  42.3381710 124.3577350
  67.6802848  42.3378415 123.4148923  69.0188933  37.1785487 130.4358878
  68.2089661  36.8332572 130.8114124  69.7073350  36.8693031 131.0246489
  70.9479481  36.2563534 132.0583174  71.5010520  36.6758987 132.7173197
  71.1849568  35.3299282 132.1006130  66.1725652  39.4935532 124.4226616
  67.0344816  39.8190431 124.6822433  66.3575996  38.7067028 123.9099681
  74.3258288  38.3664059 131.5661839  73.7456957  39.0248863 131.1839891
  74.0594221  37.5441403 131.1549256  72.7761855  37.7669117 133.7683159
  73.2761633  37.8785651 132.9597478  73.4197463  37.4630169 134.4083967
  60.1029810  47.5076126 134.5772819  60.0800498  47.6063813 133.6254702
  60.4130447  48.3541277 134.8989985  73.1083166  40.5264149 130.6218187
  72.2209021  40.8113800 130.4038382  73.5237155  40.3657913 129.7745464
  76.4597702  40.5510670 134.3372526  77.2358093  41.0407123 134.6097143
  75.7345837  40.9768724 134.7944396  78.8970261  41.2638289 135.3946467
  79.4914752  41.0234025 134.6839775  78.9696845  40.5445420 136.0220003
  61.1167417  55.1071900 135.7089632  60.9821885  54.3472301 135.1427630
  60.6999479  55.8312800 135.2418420  72.2526380  50.2908824 124.7166207
  72.9562230  50.4958826 125.3323862  71.5289029  50.8585586 124.9815290
  73.0824190  46.0418685 130.8368477  73.0259391  46.4987237 129.9976109
  73.6352533  45.2809370 130.6591320  76.8928996  41.8308417 131.6618596
  76.6365930  41.4305053 132.4926804  76.2681864  42.5452211 131.5368736
  81.2041334  44.5704490 134.1689888  80.6440892  44.6397680 134.9421450
  80.5984837  44.3945475 133.4489384  64.2736543  56.0041217 135.9208074
  64.1568927  56.9486650 135.8186764  63.4528989  55.7014779 136.3093873
  74.1613077  50.7291353 126.7664667  74.9958681  50.2972552 126.5842142
  73.9997420  50.5573367 127.6941561  73.8158969  47.2323466 128.1321006
  73.7607773  47.0667738 127.1909450  73.1905025  47.9399499 128.2883196
  67.1255095  36.7331575 127.7106325  67.1133765  37.6773415 127.8674595
  68.0178517  36.5501721 127.4165786  65.2991057  56.6569479 139.1364003
  66.2018303  56.6893090 139.4530498  65.0728427  55.7269930 139.1510338
  67.0544659  55.4100466 135.7974081  66.1040290  55.4102327 135.6838453
  67.3577145  54.6633200 135.2810116  70.9407214  33.3274352 131.9652261
  70.1739610  32.7732839 132.1108944  71.3517919  33.3996221 132.8266413
  82.7897352  61.2461004 136.8619844  83.4275762  61.1267752 136.1583184
  82.6718195  62.1941848 136.9207796  79.5987059  61.1988432 136.7981368
  79.2605570  61.0829497 135.9101903  80.4676827  60.7979597 136.7782374
  75.4573874  63.0523909 132.7878259  74.8938739  62.9613846 132.0194547
  75.3426269  62.2323813 133.2680752  80.0806842  62.3523284 142.7567574
  80.0695482  61.9576082 141.8848077  80.2427481  61.6189357 143.3501345
  73.0038306  64.5475100 135.6262480  73.7959598  64.2065925 135.2108779
  73.2434956  64.6570075 136.5464633  81.0373433  66.7194876 128.0992724
  80.3861413  67.3048957 127.7126738  81.8317796  67.2501071 128.1587762
  74.9629060  63.8084014 128.4979858  75.7359936  63.2613001 128.3592734
  75.3154459  64.6728263 128.7094320  76.8014103  65.1360396 141.7046758
  76.5103969  66.0406027 141.5893424  77.4371087  65.1776923 142.4190827
  77.7270310  62.5137244 138.2948117  78.3233882  62.2893267 137.5805080
  77.7845281  61.7721990 138.8973565  77.2995338  59.9676680 126.1298308
  77.5520859  59.4458201 125.3681771  76.3619897  59.8042825 126.2324992
  82.3438621  58.9712458 133.9373052  83.1301710  58.5531881 133.5863469
  82.6077325  59.8758550 134.1054700  82.5148698  64.4085308 128.6361708
  81.8794531  64.4819935 129.3482613  82.1846105  64.9978907 127.9580788
  87.7447048  58.9087691 134.8406030  88.4772220  58.3386908 135.0743860
  86.9886404  58.5209292 135.2812536  77.0191627  61.8704786 128.3322683
  76.9027885  61.1949689 129.0003768  77.1293887  61.3837160 127.5154836
  79.3623168  61.3314933 132.0369373  78.9981375  60.8045554 132.7482294
  80.2190284  60.9413402 131.8635858  85.2672468  52.6209265 139.3000639
  84.9355793  53.4904676 139.0761854  84.6718082  52.3045549 139.9794669
  79.0028655  56.3604832 127.0330721  79.1703057  57.2285069 127.4001192
  78.8125824  56.5232114 126.1092010  81.7603988  64.8221811 138.6996551
  81.4604711  65.7246850 138.5912359  81.4155047  64.5553995 139.5517704
  75.2116469  61.2735608 134.7333256  74.2866966  61.1411822 134.9410948
  75.4600882  62.0529827 135.2303198  85.1601132  57.3404352 136.3793989
  84.2518009  57.2719760 136.0852750  85.1088727  57.8176297 137.2075814
  78.9817875  58.8162490 128.0177388  78.8617501  59.2619541 128.8562868
  78.2870464  59.1647808 127.4590926  72.5725280  60.9168882 135.5677045
  72.7017661  61.1703361 136.4816457  71.8922732  61.5096590 135.2481700
  76.7424768  71.5866132 131.6667519  76.6648797  72.5373957 131.7456000
  76.1386411  71.2412004 132.3242445  79.2341997  58.7593997 144.3228886
  78.4575331  59.3187917 144.3131751  79.8732560  59.2450780 144.8443756
  87.0262778  55.5420790 138.1571863  86.3837158  55.8353323 137.5111657
  86.5217706  55.4273710 138.9625059  84.6802942  59.2883963 128.8457722
  85.5920798  59.5211350 128.6705420  84.1712589  59.8721007 128.2832801
  77.4888370  61.5679451 143.8846853  78.2303054  62.1064494 143.6081677
  76.7825355  62.1945739 144.0418405  82.9643709  63.7108591 142.4819015
  83.3727065  63.2691002 141.7373647  82.2420971  63.1361219 142.7353207
  79.3174779  58.6481198 139.8552572  80.1635975  59.0720611 139.9987221
  79.2573417  57.9914822 140.5491135  83.2872524  64.2709782 136.2371303
  82.6581386  64.4355496 135.5347371  82.8998186  64.6851391 137.0082267
  87.1661756  65.2064219 133.5915667  86.4812794  65.5863121 133.0412701
  87.2505605  65.8159546 134.3247615  82.4674225  56.3085566 141.5133745
  82.2235157  57.0627627 140.9768021  82.7434155  56.6870914 142.3480992
  84.4212687  62.8524178 140.1911011  84.6329583  63.4955938 139.5145392
  84.3742436  62.0186495 139.7232941  82.0238916  55.4641999 137.0947583
  81.1623395  55.7623253 137.3864320  82.0501351  55.6812398 136.1628616
  78.8400486  64.0084190 133.5021389  79.3038831  64.2871893 132.7126011
  78.5757284  63.1067634 133.3194479  75.7324567  63.5555671 136.4401152
  76.3025924  63.9842940 135.8018636  76.3232679  63.2738256 137.1385337
  77.7769372  60.1307342 130.3110954  78.4793415  60.5828386 130.7784880
  77.4450000  59.4891161 130.9390847  76.2249733  58.7219099 144.6862163
  75.5948394  59.4035380 144.9197560  76.1185821  58.6102180 143.7415301
  71.5194706  58.3890895 135.6128087  70.7293760  58.6448423 135.1368198
  72.0105953  59.2039233 135.7180128  85.5358515  65.7296134 138.3633368
  86.3575959  65.3276321 138.0816050  85.5320918  65.6264368 139.3149484
  73.4709451  58.7535474 132.5711564  72.6740614  58.8654168 133.0895060
  73.2435043  59.0922126 131.7052454  79.3015119  65.2780177 140.5194079
  79.3659551  65.7400584 141.3552250  78.5926043  64.6477542 140.6476388
  69.8032409  58.6421385 138.0443078  70.0540447  59.5268395 138.3100654
  70.3391957  58.4625987 137.2718170  93.6264508  62.0734882 134.7118340
  92.8728217  61.5042280 134.5562344  93.7612050  62.0397547 135.6588974
  79.0163136  66.9448285 130.3873059  78.8808811  67.7899820 130.8157907
  79.5572949  67.1467562 129.6238993  72.4692534  64.4623723 130.9600984
  72.9817054  65.2566973 131.1106549  73.1215247  63.7650013 130.8934585
  74.2787419  67.5789479 133.0423737  74.4554047  68.5007444 132.8544721
  75.0744252  67.2647898 133.4718117  78.4198437  54.4397744 144.6407671
  79.1608150  55.0404897 144.5612133  78.6516360  53.6975381 144.0825713
  73.5639775  59.6254111 142.9185900  73.4493290  58.7239368 143.2192999
  72.7084293  59.8717808 142.5670717  80.6431613  67.5671851 144.5173401
  80.1995467  66.7808230 144.1994305  81.3048826  67.7551002 143.8517292
  75.4018734  69.0967653 139.0434079  75.9526159  68.9684716 138.2711073
  74.5630210  69.3962542 138.6928972  82.7412851  67.8474651 142.5454802
  82.7231326  68.6683532 142.0535071  83.6632771  67.7228726 142.7704943
  79.1985905  65.3618781 143.3878311  79.7314242  64.6007069 143.1577619
  78.6699986  65.0692432 144.1302465  82.3655600  50.4678847 138.9171952
  82.0219869  51.3580488 138.8411063  82.7334563  50.2780504 138.0541537
  70.4341451  62.7912377 131.7360555  71.2716673  63.2009385 131.5194262
  70.6119718  61.8511819 131.7060748  82.3305883  60.4587458 127.4244387
  81.8152506  61.2292062 127.6632775  82.0583191  59.7852594 128.0477449
  79.9152994  55.3037158 132.4829626  79.0594590  54.9144009 132.3035265
  80.3279946  55.3829119 131.6229411  81.4452140  52.8383502 136.8821186
  80.9416936  52.8013637 136.0688991  81.7382747  53.7476244 136.9417842
  77.6895026  52.9222231 135.8887367  78.5548023  52.7265040 135.5293257
  77.7572535  52.6932583 136.8156724  87.3040157  63.2119812 129.3597561
  86.5269600  62.8730972 128.9152723  87.9831638  63.2172436 128.6852526
  82.1192186  58.3314550 129.2504169  81.8142322  58.6460699 130.1014312
  83.0722628  58.4095970 129.2931502  80.5638618  64.4904773 130.8997123
  80.0359979  63.7557533 130.5870360  80.0626121  65.2679449 130.6537091
  85.5431464  62.6853794 136.0164169  84.8855138  63.3753055 136.1044298
  86.3471863  63.0750226 136.3598155  75.2957345  55.1524439 133.2603734
  75.8701097  54.9299621 132.5276927  75.8828328  55.2213134 134.0132335
  84.3536923  61.0398166 134.0668111  84.8668804  61.6728158 134.5689820
  85.0038147  60.4399362 133.7011471  75.6226933  57.1828900 127.2799619
  74.7864245  57.5203587 127.6008894  75.4831702  57.0477880 126.3426756
  77.5980013  52.0265688 131.9878804  76.9444425  51.7114705 131.3635418
  77.5560487  51.4041429 132.7138627  78.7091218  62.3084983 123.9032096
  77.8018280  62.0774237 124.1023245  79.2062250  61.5122603 124.0906077
  81.6159297  71.0182491 126.8228782  80.9420996  71.3214187 127.4313740
  82.0025119  71.8211571 126.4734239  80.8317753  58.5147622 136.3126451
  79.9140315  58.7362569 136.1548139  81.2477897  58.5893932 135.4538159
  81.6152801  59.9139038 131.4429131  82.3624620  60.4260435 131.1336254
  81.8844391  59.5923090 132.3033525  79.8879451  62.4097578 128.4256086
  78.9790671  62.1256611 128.5228556  79.9174535  62.8296657 127.5659393
  85.1198719  66.0204168 132.1947253  84.6661046  65.1795078 132.2512444
  84.4892686  66.6565566 132.5322033  84.0631638  56.9496154 133.4247921
  83.3254395  56.4373540 133.7558163  84.3158412  56.5096535 132.6131198
  83.5631658  67.8580664 133.1297071  83.8554632  68.4185722 132.4109437
  84.0730279  68.1509225 133.8850231  84.1643266  49.7272406 134.0189690
  84.4702143  48.8669769 133.7315605  84.8895871  50.3190026 133.8188684
  70.4567622  60.1303092 132.4071288  70.2592022  59.5372453 131.6822355
  69.9014286  59.8255303 133.1247227  78.4364345  60.0226199 134.5265881
  78.4912955  59.0700035 134.4508358  77.6255547  60.1785638 135.0107180
  79.5855539  63.9506322 125.7644164  79.1474969  63.2342181 125.3049802
  80.3265980  64.1782437 125.2029256  76.3756705  58.6403259 132.2856260
  75.5624571  58.9397429 132.6921452  76.8715700  58.2458947 133.0030742
  78.5265283  68.6361016 134.2190525  78.4841462  68.8621862 133.2899057
  79.4427982  68.4024390 134.3676326  81.9730917  59.1045083 141.1171154
  82.3280305  59.3316556 141.9765620  82.6203048  59.4363460 140.4948409
  87.7028654  62.2263519 131.8220483  87.5646553  62.4165115 130.8941672
  87.3464873  62.9882902 132.2788534  75.8670780  56.2121614 137.9017495
  76.5070159  56.0710373 137.2040458  75.0348311  55.9256127 137.5256097
  87.7298034  64.2940046 136.8331754  88.1634540  64.2015335 137.6814808
  88.4429614  64.2697546 136.1951770  76.6431084  65.5124045 134.0152487
  77.4371683  65.0174365 133.8135062  75.9322776  64.9841908 133.6520193
  81.4625929  67.8942140 138.3664855  81.5162951  68.4633076 139.1342571
  80.5940710  68.0644025 138.0018892  72.9513848  59.6567126 130.0912240
  72.0211436  59.5951582 130.3082202  73.0471319  59.1343079 129.2948881
  72.8699397  56.1821939 132.6790482  73.1306214  57.0967272 132.5699642
  73.6916569  55.7146382 132.8287095  74.3424322  57.5959696 139.8489306
  75.0147375  57.3877058 139.2001955  73.5154108  57.3981782 139.4094539
  88.5913583  64.3363747 139.3664640  88.7849473  65.2409557 139.6123915
  88.4914201  63.8771166 140.2003225  80.2449894  54.2221637 141.8654967
  79.5977809  54.9211587 141.7719444  81.0150909  54.6557781 142.2331215
  83.6528692  64.4870489 144.9405520  83.5014198  64.2581041 144.0235604
  83.6433371  65.4441091 144.9536865  80.4214028  62.0602402 139.9251787
  81.3506088  62.2113562 139.7520754  80.0005058  62.1486423 139.0700433
  79.2202360  66.0853067 137.6950324  79.0813446  65.7171851 138.5676263
  78.4316956  66.6000706 137.5234282  79.8150512  71.1862163 129.0375861
  79.9902268  70.7150206 129.8521484  79.1283300  71.8127929 129.2657122
  80.7707575  65.4634669 135.0839162  80.4357408  65.4235439 135.9796812
  80.2711521  64.7979385 134.6109573  74.7451819  60.8702299 140.6091743
  74.6071617  60.1382538 141.2103282  75.6556743  60.7811199 140.3275931
  83.7066767  62.8090704 125.3576222  83.0895937  62.0837532 125.2609275
  83.2383255  63.5700064 125.0143296  77.3734120  60.5822259 140.0975423
  78.0833738  59.9415451 140.0562042  77.3303428  60.8335153 141.0201604
  85.3620898  67.5189612 143.0182002  85.3033445  66.8348832 142.3512585
  85.7640417  68.2608602 142.5662628  76.0863054  57.5687476 141.9171063
  75.5500411  57.1178215 142.5692659  75.4979762  57.7033385 141.1741527
  74.3811597  74.3351526 135.8115721  74.6208196  74.9670050 136.4894740
  73.5380794  73.9839566 136.0981080  75.4965313  57.0276128 124.4797526
  74.6194779  56.9064929 124.1159773  75.9723066  56.2362206 124.2276415
  85.3638306  65.4829196 141.2495982  84.4765085  65.1455118 141.3722381
  85.9336857  64.7512227 141.4864747  67.0167453  61.8153288 134.5739033
  67.7038493  61.5015018 133.9860049  66.8615582  62.7194652 134.3006285
  71.8202175  56.7043484 139.0024057  71.7360364  56.0969154 138.2674467
  70.9984881  57.1952502 139.0033553  78.8939459  70.1430648 138.2157225
  78.8209631  70.9485620 138.7276530  78.4516852  70.3422614 137.3905247
  78.6829239  69.3802418 131.7260047  77.8996761  69.9224098 131.8198271
  79.3821984  69.8976398 132.1254288  81.9925889  55.1897048 134.3694252
  82.4894588  54.4367010 134.0495322  81.2212870  55.2261364 133.8037461
  89.8455646  60.8937413 136.0112544  89.8345523  61.7762129 135.6406477
  88.9773026  60.5408964 135.8167081  81.3538143  70.0417482 140.3715384
  82.0666115  70.6764947 140.2991285  80.8628171  70.1381348 139.5555386
  83.0755670  63.9468735 131.9432675  82.1411948  64.0670197 131.7737380
  83.2532338  63.0441202 131.6792685  78.5760858  57.3314431 134.0965937
  78.2058645  56.7785471 134.7846842  79.0719950  56.7272564 133.5440937
  86.4628221  59.7886054 132.4782710  86.9288673  60.6214046 132.4043012
  86.9135721  59.3231036 133.1827968  76.4050056  67.7911926 141.1920955
  77.1059516  68.4248409 141.3450349  75.9345171  68.1326657 140.4316594
  84.5304452  66.1329875 129.4768862  84.8064296  66.0186470 130.3862736
  83.6608951  65.7347360 129.4381035  84.4344884  52.1566641 136.5173611
  83.5207963  52.3870868 136.6855818  84.8637985  52.2405085 137.3687643
  84.2051342  60.3456533 139.0173505  83.5522792  60.5932441 138.3625958
  84.5831722  59.5320671 138.6835982  81.1658516  70.3816226 133.1201675
  81.3480911  69.5637882 133.5829428  81.9891502  70.5983919 132.6826565
  81.5000682  69.3084411 130.3816724  82.0288448  68.7976866 129.7686886
  81.7628901  68.9926942 131.2462257  80.2538915  61.0876344 145.5039542
  79.5779552  60.9870474 146.1741917  81.0766549  60.9315558 145.9675539
  72.0017774  67.3248281 138.1252057  72.5871211  66.5791969 138.2579962
  71.8042613  67.6352237 139.0088721  74.8556429  70.3599528 133.1414500
  74.1866805  70.8445656 132.6578540  74.7169299  70.6068749 134.0557878
  66.5935429  59.8953881 136.8456500  66.6319529  59.3617472 137.6393619
  66.0875722  59.3689086 136.2267478  78.9961698  72.3943272 139.7397158
  79.5480006  72.5574893 140.5046243  79.3367892  72.9847709 139.0677183
  73.9726191  54.7418421 140.3419043  74.0367518  55.6033252 139.9296440
  73.9093312  54.1292423 139.6091401  73.4478464  56.8141554 143.9892077
  74.0750503  56.4318631 144.6029601  72.5906383  56.5955756 144.3547770
  83.8472572  67.2204529 145.5945813  84.3912476  67.8334487 145.1000767
  83.2659417  67.7784108 146.1112826  70.2244007  58.6217983 129.9210432
  70.5197448  57.7128662 129.8677486  69.3232042  58.6005723 129.5991434
  82.1330085  70.3425247 136.7260840  82.0081225  69.5414987 136.2171786
  82.7909176  70.8371441 136.2374810  73.7538254  56.6973980 135.9037980
  73.0324839  57.3109947 135.7645454  74.5431509  57.2331744 135.8254626
  84.1964994  68.1434267 138.3540390  83.2495329  68.0239618 138.2818717
  84.5447767  67.2556765 138.4366652  76.5564567  54.0328406 142.1778632
  77.0798969  54.2790703 142.9404942  76.3376900  54.8648441 141.7581770
  71.9531848  56.3032081 130.0449757  71.6244554  55.4229460 129.8624863
  72.3071219  56.2479749 130.9326146  81.2011427  67.9386983 134.5544743
  81.0536389  67.0103691 134.7352313  82.0264921  67.9607074 134.0701818
  75.0673671  56.5905051 130.4125235  75.4069744  57.1190972 129.6903843
  75.5145792  56.9285457 131.1883801  84.8045549  68.7615542 135.6409615
  85.7292096  68.5558404 135.5034066  84.6360852  68.5131943 136.5498957
  77.7617112  54.9742101 139.8628303  77.4213933  54.1749914 140.2648983
  77.0556118  55.2743812 139.2905136  78.4133584  52.0591414 138.3155626
  79.2359653  51.5851892 138.1934516  78.6571648  52.8381897 138.8154312
  77.0541818  55.0879672 128.6118527  77.7750181  55.4660925 128.1082244
  76.4307123  55.8068549 128.7153505  81.1972941  55.7924821 129.5476860
  81.4136556  56.6749459 129.2465688  80.7167009  55.4011035 128.8182502
  75.9372163  58.7510534 136.1247604  75.7916743  59.0650837 137.0171886
  75.4597366  59.3695435 135.5718503  77.7968546  55.7413082 136.1728494
  77.7830114  54.8454176 135.8360792  78.5140974  55.7483746 136.8066780
  79.6494676  56.1750423 138.2181621  79.3912454  57.0967493 138.2165952
  79.1179717  55.7780857 138.9082086  84.5940865  69.2801210 130.9971707
  84.7677743  68.7147632 130.2445559  85.0869756  70.0802105 130.8151197
  70.4117825  61.2915879 139.0635266  69.8671293  62.0675687 139.1955540
  71.2897175  61.6386683 138.9054387  77.2005442  54.6227463 131.4416064
  77.3221353  53.6944109 131.6406952  76.9107484  54.6366149 130.5294380
  80.0696632  52.3082373 134.5782784  80.0918329  52.3721706 133.6234763
  80.4864691  51.4686882 134.7723290  90.4480256  62.0437633 132.6162007
  90.8911402  61.2944958 132.2181130  89.5706767  62.0347769 132.2335738
  85.5816038  68.5967974 128.0968605  86.2766942  69.2174667 128.3155920
  85.9239188  67.7463325 128.3720983  71.1983847  60.4185775 141.9565422
  70.4565583  60.5668410 142.5430053  70.8776591  60.6794041 141.0932172
  87.4807461  66.0467680 129.6255936  88.0058785  66.3854952 128.9005256
  87.3929813  65.1114695 129.4419070  79.1427509  69.9601753 141.7545812
  79.4514636  69.7150900 142.6268512  79.9402991  70.1648392 141.2664683
  79.1648121  72.1139663 133.9851189  78.7253112  71.6216042 134.6784046
  79.9156238  71.5712631 133.7443264  71.6440460  68.3051204 133.9875817
  72.4698480  68.0054976 133.6074461  71.2934512  67.5358826 134.4365606
  76.6121994  67.6577672 136.0573491  75.9902003  66.9948377 135.7575719
  77.2826861  67.6838804 135.3747138  69.8449065  66.2237530 134.9464751
  69.0080974  65.7959705 134.7648752  69.8172711  66.4169974 135.8835542
  76.6846521  56.1359460 145.6505997  76.7334677  57.0121583 145.2683766
  77.2269035  55.5936853 145.0777640  87.1701367  66.6800583 144.9307134
  86.3796910  66.6624722 144.3911633  86.9334721  67.2188877 145.6856170
  87.2899242  63.5293050 142.2439862  87.3397247  63.3643057 143.1855385
  87.1813165  62.6620309 141.8537743  76.1735501  66.2081595 129.5331951
  76.3223621  66.8917060 128.8798624  76.9801944  66.1886685 130.0481407
  84.5803004  59.5123978 143.5599169  85.4812867  59.3730442 143.2683167
  84.6550979  59.6778432 144.4997346  78.9145810  56.8890832 142.4052355
  78.0449119  57.1824398 142.1334944  79.1505290  57.4731277 143.1259619
  88.7917439  65.9489991 142.4881884  88.5002247  66.3119972 143.3245345
  88.1789570  65.2356999 142.3095216  89.9913121  63.5142871 135.0084454
  90.8260012  63.9532675 135.1722014  90.1272250  63.0381524 134.1892700
  87.0404627  61.0722606 140.9561942  87.5158748  61.2650252 140.1480793
  86.1170192  61.1281792 140.7105325  73.9288133  62.2346773 130.5393020
  73.6834175  61.3309103 130.7373230  74.0984048  62.2363923 129.5972498
  81.6184843  53.1070449 139.9217776  82.1366787  53.8431476 139.5964264
  81.2639976  53.4134443 140.7564535  73.1983781  57.9675131 128.0379182
  72.5053026  58.0419485 127.3819218  72.9535533  57.2035474 128.5600698
  81.8697438  49.5270732 135.4418672  82.1499191  48.8593921 136.0679099
  82.6548044  49.7199827 134.9293336  79.6730906  68.7029726 127.0043699
  79.1004873  69.3219913 126.5514170  80.2463700  69.2529087 127.5383621
  85.7406296  57.9488366 139.1890247  86.6923719  58.0486463 139.2102471
  85.5709746  57.1566634 139.6988332  83.7620675  55.0343949 139.3749648
  83.1670607  55.3148962 138.6796137  83.4770372  55.5237850 140.1466389
  82.8928166  68.9866876 128.1352281  83.8258839  68.9212438 128.3385156
  82.8051379  69.8223143 127.6766814  85.5216182  68.3032746 125.0956228
  85.4429814  67.9692610 125.9891986  86.3425849  68.7954514 125.0947701
  88.2194374  61.1694486 138.3032547  88.1870694  60.2310486 138.4892231
  88.8294997  61.2478522 137.5698372  80.0577705  60.0390539 124.3459751
  81.0036809  59.9096747 124.4148169  79.6791949  59.3005200 124.8229179
  88.3688862  57.9605529 138.3490830  87.8527911  57.1763986 138.1620759
  89.2528811  57.6324246 138.5137350  86.0299589  51.7046545 134.3086643
  85.8324410  51.3961633 135.1929975  86.6399295  52.4308183 134.4384573
  94.0370924  62.2310492 137.4438584  94.7674312  61.9695780 138.0046287
  93.4277869  61.4939214 137.4840652  92.1186221  60.3718355 138.0413035
  91.3919384  60.2374320 137.4329527  91.7033508  60.6795184 138.8469753
  79.9416397  64.0908285 145.8060408  80.8619407  64.2686884 146.0000455
  79.9065980  63.1464330 145.6540107  78.2420622  57.9640515 124.2814636
  77.3352077  57.6673628 124.3577350  78.5196603  57.6670333 123.4148923
  69.1598562  59.2846878 134.7313683  68.8401346  58.4312186 134.4388057
  68.6131990  59.4995456 135.4871650  72.9378470  62.0009319 138.4483189
  73.1564479  62.9326427 138.4671223  73.3504243  61.6417294 139.2337993
  79.8582687  52.5077405 130.4358878  79.0483416  52.1624490 130.8114124
  80.5467104  52.1984948 131.0246489  81.7873236  51.5855451 132.0583174
  82.3404274  52.0050905 132.7173197  82.0243322  50.6591200 132.1006130
  77.8106335  57.5742525 147.8385938  77.7103062  58.5236882 147.7698029
  77.5927877  57.2460764 146.9662008  77.0119406  54.8227450 124.4226616
  77.8738570  55.1482348 124.6822433  77.1969750  54.0358946 123.9099681
  69.0286822  62.9049790 136.7006804  68.3350293  62.4903743 136.1876759
  69.7759813  62.9470326 136.1040223  85.1652043  53.6955977 131.5661839
  84.5850712  54.3540781 131.1839891  84.8987975  52.8733321 131.1549256
  83.6155609  53.0961034 133.7683159  84.1155388  53.2077569 132.9597478
  84.2591217  52.7922087 134.4083967  77.6737605  61.0039664 146.6551000
  77.1904687  61.8040024 146.8614889  77.7598544  61.0147609 145.7018444
  70.9423565  62.8368044 134.5772819  70.9194253  62.9355731 133.6254702
  71.2524201  63.6833194 134.8989985  73.6010942  64.8944199 138.6919434
  74.5554196  64.8628141 138.6249365  73.4023466  64.4334822 139.5069660
  74.1910325  63.4645315 141.2590231  75.0103214  63.9589393 141.2825069
  74.4647132  62.5477283 141.2307799  83.9476921  55.8556067 130.6218187
  83.0602776  56.1405718 130.4038382  84.3630910  55.6949830 129.7745464
  87.2991457  55.8802588 134.3372526  88.0751847  56.3699040 134.6097143
  86.5739591  56.3060642 134.7944396  89.7364016  56.5930207 135.3946467
  90.3308506  56.3525943 134.6839775  89.8090599  55.8737338 136.0220003
  71.9561171  70.4363818 135.7089632  71.8215639  69.6764219 135.1427630
  71.5393234  71.1604718 135.2418420  83.0920134  65.6200742 124.7166207
  83.7955984  65.8250744 125.3323862  82.3682783  66.1877504 124.9815290
  83.9217945  61.3710603 130.8368477  83.8653146  61.8279154 129.9976109
  84.4746287  60.6101287 130.6591320  87.7322750  57.1600335 131.6618596
  87.4759685  56.7596970 132.4926804  87.1075618  57.8744129 131.5368736
  92.0435088  59.8996408 134.1689888  91.4834646  59.9689597 134.9421450
  91.4378592  59.7237393 133.4489384  75.1130297  71.3333135 135.9208074
  74.9962681  72.2778568 135.8186764  74.2922743  71.0306697 136.3093873
  85.0006832  66.0583271 126.7664667  85.8352436  65.6264469 126.5842142
  84.8391175  65.8865285 127.6941561  84.6552724  62.5615384 128.1321006
  84.6001528  62.3959656 127.1909450  84.0298779  63.2691417 128.2883196
  69.4445239  57.7983449 141.9582428  70.0904102  57.2882402 142.4469654
  69.2362390  58.5352130 142.5325854  81.9698631  64.8664296 147.4574569
  82.8389791  65.0404948 147.0961204  81.4905383  65.6858713 147.3350298
  77.9648849  52.0623493 127.7106325  77.9527519  53.0065333 127.8674595
  78.8572271  51.8793639 127.4165786  76.1384811  71.9861397 139.1364003
  77.0412058  72.0185007 139.4530498  75.9122181  71.0561848 139.1510338
  77.8938413  70.7392384 135.7974081  76.9434044  70.7394245 135.6838453
  78.1970899  69.9925118 135.2810116  81.7800969  48.6566270 131.9652261
  81.0133365  48.1024756 132.1108944  82.1911674  48.7288139 132.8266413
  93.6291107  76.5752922 136.8619844  94.2669517  76.4559669 136.1583184
  93.5111950  77.5233766 136.9207796  90.4380813  76.5280350 136.7981368
  90.0999325  76.4121415 135.9101903  91.3070581  76.1271515 136.7782374
  86.2967629  78.3815826 132.7878259  85.7332494  78.2905763 132.0194547
  86.1820024  77.5615731 133.2680752  83.8432061  79.8767018 135.6262480
  84.6353353  79.5357843 135.2108779  84.0828711  79.9861993 136.5464633
  91.8767187  82.0486794 128.0992724  91.2255167  82.6340875 127.7126738
  92.6711550  82.5792989 128.1587762  85.8022815  79.1375931 128.4979858
  86.5753691  78.5904918 128.3592734  86.1548213  80.0020181 128.7094320
  88.5664064  77.8429162 138.2948117  89.1627636  77.6185184 137.5805080
  88.6239036  77.1013908 138.8973565  88.1389092  75.2968597 126.1298308
  88.3914613  74.7750119 125.3681771  87.2013652  75.1334743 126.2324992
  93.1832375  74.3004376 133.9373052  93.9695464  73.8823799 133.5863469
  93.4471080  75.2050468 134.1054700  93.3542453  79.7377226 128.6361708
  92.7188286  79.8111853 129.3482613  93.0239859  80.3270825 127.9580788
  98.5840802  74.2379609 134.8406030  99.3165974  73.6678826 135.0743860
  97.8280158  73.8501209 135.2812536  87.8585381  77.1996703 128.3322683
  87.7421639  76.5241607 129.0003768  87.9687641  76.7129077 127.5154836
  90.2016922  76.6606850 132.0369373  89.8375129  76.1337471 132.7482294
  91.0584038  76.2705320 131.8635858  96.1066223  67.9501183 139.3000639
  95.7749548  68.8196594 139.0761854  95.5111836  67.6337467 139.9794669
  89.8422409  71.6896750 127.0330721  90.0096811  72.5576987 127.4001192
  89.6519578  71.8524032 126.1092010  86.0510224  76.6027526 134.7333256
  85.1260720  76.4703740 134.9410948  86.2994637  77.3821745 135.2303198
  95.9994886  72.6696269 136.3793989  95.0911763  72.6011678 136.0852750
  95.9482482  73.1468214 137.2075814  89.8211630  74.1454408 128.0177388
  89.7011255  74.5911458 128.8562868  89.1264218  74.4939725 127.4590926
  83.4119035  76.2460799 135.5677045  83.5411416  76.4995278 136.4816457
  82.7316486  76.8388507 135.2481700  87.5818522  86.9158049 131.6667519
  87.5042552  87.8665875 131.7456000  86.9780166  86.5703922 132.3242445
  97.8656532  70.8712708 138.1571863  97.2230913  71.1645241 137.5111657
  97.3611461  70.7565628 138.9625059  95.5196696  74.6175881 128.8457722
  96.4314552  74.8503268 128.6705420  95.0106343  75.2012925 128.2832801
  90.1568534  73.9773115 139.8552572  91.0029729  74.4012529 139.9987221
  90.0967172  73.3206740 140.5491135  92.8632671  70.7933917 137.0947583
  92.0017150  71.0915170 137.3864320  92.8895106  71.0104316 136.1628616
  89.6794240  79.3376107 133.5021389  90.1432586  79.6163810 132.7126011
  89.4151038  78.4359552 133.3194479  86.5718321  78.8847589 136.4401152
  87.1419678  79.3134857 135.8018636  87.1626433  78.6030174 137.1385337
  88.6163126  75.4599260 130.3110954  89.3187170  75.9120303 130.7784880
  88.2843755  74.8183079 130.9390847  82.3588460  73.7182812 135.6128087
  81.5687514  73.9740341 135.1368198  82.8499708  74.5331150 135.7180128
  84.3103206  74.0827392 132.5711564  83.5134369  74.1946086 133.0895060
  84.0828798  74.4214044 131.7052454  80.6426163  73.9713303 138.0443078
  80.8934202  74.8560313 138.3100654  81.1785712  73.7917904 137.2718170
  89.8556891  82.2740202 130.3873059  89.7202566  83.1191738 130.8157907
  90.3966703  82.4759480 129.6238993  83.3086288  79.7915640 130.9600984
  83.8210809  80.5858891 131.1106549  83.9609001  79.0941931 130.8934585
  85.1181173  82.9081397 133.0423737  85.2947801  83.8299361 132.8544721
  85.9138007  82.5939816 133.4718117  84.4033530  74.9546029 142.9185900
  84.2887045  74.0531286 143.2192999  83.5478047  75.2009725 142.5670717
  93.2049355  65.7970764 138.9171952  92.8613624  66.6872406 138.8411063
  93.5728317  65.6072422 138.0541537  81.2735205  78.1204295 131.7360555
  82.1110427  78.5301303 131.5194262  81.4513473  77.1803737 131.7060748
  93.1699637  75.7879375 127.4244387  92.6546261  76.5583980 127.6632775
  92.8976946  75.1144512 128.0477449  90.7546748  70.6329076 132.4829626
  89.8988345  70.2435927 132.3035265  91.1673700  70.7121037 131.6229411
  92.2845895  68.1675419 136.8821186  91.7810691  68.1305555 136.0688991
  92.5776502  69.0768162 136.9417842  88.5288781  68.2514149 135.8887367
  89.3941778  68.0556958 135.5293257  88.5966290  68.0224501 136.8156724
  98.1433911  78.5411730 129.3597561  97.3663354  78.2022890 128.9152723
  98.8225392  78.5464353 128.6852526  92.9585940  73.6606467 129.2504169
  92.6536076  73.9752617 130.1014312  93.9116383  73.7387887 129.2931502
  91.4032372  79.8196691 130.8997123  90.8753734  79.0849450 130.5870360
  90.9019875  80.5971367 130.6537091  86.1351100  70.4816357 133.2603734
  86.7094852  70.2591539 132.5276927  86.7222082  70.5505052 134.0132335
  95.1930677  76.3690084 134.0668111  95.7062559  77.0020076 134.5689820
  95.8431901  75.7691279 133.7011471  86.4620687  72.5120818 127.2799619
  85.6257999  72.8495505 127.6008894  86.3225457  72.3769798 126.3426756
  88.4373768  67.3557606 131.9878804  87.7838180  67.0406623 131.3635418
  88.3954242  66.7333346 132.7138627  89.5484972  77.6376901 123.9032096
  88.6412034  77.4066154 124.1023245  90.0456004  76.8414520 124.0906077
  92.4553051  86.3474408 126.8228782  91.7814750  86.6506105 127.4313740
  92.8418873  87.1503489 126.4734239  91.6711508  73.8439540 136.3126451
  90.7534069  74.0654487 136.1548139  92.0871652  73.9185850 135.4538159
  92.4546556  75.2430955 131.4429131  93.2018375  75.7552352 131.1336254
  92.7238145  74.9215008 132.3033525  90.7273206  77.7389496 128.4256086
  89.8184425  77.4548529 128.5228556  90.7568290  78.1588574 127.5659393
  95.9592473  81.3496085 132.1947253  95.5054800  80.5086995 132.2512444
  95.3286440  81.9857484 132.5322033  94.9025393  72.2788071 133.4247921
  94.1648150  71.7665458 133.7558163  95.1552166  71.8388453 132.6131198
  94.4025413  83.1872582 133.1297071  94.6948387  83.7477639 132.4109437
  94.9124033  83.4801143 133.8850231  95.0037020  65.0564323 134.0189690
  95.3095897  64.1961687 133.7315605  95.7289625  65.6481944 133.8188684
  81.2961376  75.4595010 132.4071288  81.0985776  74.8664371 131.6822355
  80.7408040  75.1547220 133.1247227  89.2758100  75.3518117 134.5265881
  89.3306710  74.3991953 134.4508358  88.4649302  75.5077556 135.0107180
  90.4249294  79.2798240 125.7644164  89.9868724  78.5634099 125.3049802
  91.1659735  79.5074354 125.2029256  87.2150460  73.9695176 132.2856260
  86.4018325  74.2689347 132.6921452  87.7109454  73.5750865 133.0030742
  89.3659038  83.9652933 134.2190525  89.3235217  84.1913779 133.2899057
  90.2821737  83.7316308 134.3676326  98.5422408  77.5555437 131.8220483
  98.4040307  77.7457033 130.8941672  98.1858627  78.3174819 132.2788534
  86.7064535  71.5413532 137.9017495  87.3463914  71.4002291 137.2040458
  85.8742065  71.2548045 137.5256097  87.4824839  80.8415962 134.0152487
  88.2765437  80.3466282 133.8135062  86.7716531  80.3133825 133.6520193
  83.7907602  74.9859044 130.0912240  82.8605190  74.9243499 130.3082202
  83.8865074  74.4634997 129.2948881  83.7093151  71.5113857 132.6790482
  83.9699968  72.4259190 132.5699642  84.5310323  71.0438299 132.8287095
  85.1818076  72.9251614 139.8489306  85.8541130  72.7168976 139.2001955
  84.3547863  72.7273700 139.4094539  91.0843648  69.5513555 141.8654967
  90.4371563  70.2503505 141.7719444  91.8544664  69.9849699 142.2331215
  90.6544266  86.5154081 129.0375861  90.8296022  86.0442124 129.8521484
  89.9677055  87.1419847 129.2657122  91.6101330  80.7926587 135.0839162
  91.2751162  80.7527357 135.9796812  91.1105275  80.1271303 134.6109573
  85.5845574  76.1994217 140.6091743  85.4465372  75.4674456 141.2103282
  86.4950497  76.1103117 140.3275931  94.5460521  78.1382621 125.3576222
  93.9289692  77.4129449 125.2609275  94.0777010  78.8991982 125.0143296
  88.2127874  75.9114176 140.0975423  88.9227493  75.2707368 140.0562042
  88.1697182  76.1627071 141.0201604  86.9256808  72.8979394 141.9171063
  86.3894165  72.4470133 142.5692659  86.3373517  73.0325303 141.1741527
  86.3359067  72.3568046 124.4797526  85.4588534  72.2356846 124.1159773
  86.8116820  71.5654124 124.2276415  77.8561207  77.1445205 134.5739033
  78.5432247  76.8306935 133.9860049  77.7009336  78.0486570 134.3006285
  82.6595930  72.0335402 139.0024057  82.5754118  71.4261071 138.2674467
  81.8378636  72.5244420 139.0033553  89.5222993  84.7094336 131.7260047
  88.7390515  85.2516016 131.8198271  90.2215738  85.2268316 132.1254288
  92.8319643  70.5188965 134.3694252  93.3288343  69.7658928 134.0495322
  92.0606625  70.5553282 133.8037461  93.9149424  79.2760653 131.9432675
  92.9805703  79.3962115 131.7737380  94.0926093  78.3733119 131.6792685
  89.4154612  72.6606348 134.0965937  89.0452400  72.1077389 134.7846842
  89.9113705  72.0564482 133.5440937  97.3021975  75.1177972 132.4782710
  97.7682428  75.9505963 132.4043012  97.7529476  74.6522953 133.1827968
  95.3698207  81.4621793 129.4768862  95.6458050  81.3478388 130.3862736
  94.5002705  81.0639278 129.4381035  95.2738638  67.4858559 136.5173611
  94.3601718  67.7162786 136.6855818  95.7031740  67.5697003 137.3687643
  92.0052271  85.7108144 133.1201675  92.1874665  84.8929800 133.5829428
  92.8285257  85.9275836 132.6826565  92.3394436  84.6376329 130.3816724
  92.8682202  84.1268784 129.7686886  92.6022656  84.3218859 131.2462257
  82.8411529  82.6540198 138.1252057  83.4264966  81.9083886 138.2579962
  82.6436367  82.9644155 139.0088721  85.6950184  85.6891446 133.1414500
  85.0260559  86.1737573 132.6578540  85.5563054  85.9360666 134.0557878
  77.4329183  75.2245799 136.8456500  77.4713283  74.6909389 137.6393619
  76.9269476  74.6981004 136.2267478  84.8119946  70.0710339 140.3419043
  84.8761272  70.9325170 139.9296440  84.7487066  69.4584341 139.6091401
  84.2872218  72.1433472 143.9892077  84.9144257  71.7610549 144.6029601
  83.4300137  71.9247674 144.3547770  81.0637761  73.9509901 129.9210432
  81.3591202  73.0420579 129.8677486  80.1625797  73.9297640 129.5991434
  84.5932008  72.0265897 135.9037980  83.8718594  72.6401865 135.7645454
  85.3825264  72.5623662 135.8254626  87.3958322  69.3620324 142.1778632
  87.9192723  69.6082620 142.9404942  87.1770655  70.1940359 141.7581770
  82.7925603  71.6323998 130.0449757  82.4638309  70.7521377 129.8624863
  83.1464973  71.5771667 130.9326146  92.0405182  83.2678901 134.5544743
  91.8930144  82.3395609 134.7352313  92.8658675  83.2898992 134.0701818
  85.9067426  71.9196968 130.4125235  86.2463498  72.4482889 129.6903843
  86.3539546  72.2577374 131.1883801  88.6010867  70.3034019 139.8628303
  88.2607687  69.5041832 140.2648983  87.8949873  70.6035730 139.2905136
  89.2527338  67.3883331 138.3155626  90.0753408  66.9143810 138.1934516
  89.4965402  68.1673815 138.8154312  87.8935573  70.4171590 128.6118527
  88.6143935  70.7952843 128.1082244  87.2700877  71.1360467 128.7153505
  92.0366696  71.1216739 129.5476860  92.2530310  72.0041377 129.2465688
  91.5560763  70.7302952 128.8182502  86.7765917  74.0802452 136.1247604
  86.6310498  74.3942755 137.0171886  86.2991121  74.6987352 135.5718503
  88.6362300  71.0705000 136.1728494  88.6223869  70.1746093 135.8360792
  89.3534728  71.0775664 136.8066780  90.4888431  71.5042340 138.2181621
  90.2306209  72.4259411 138.2165952  89.9573471  71.1072775 138.9082086
  95.4334620  84.6093127 130.9971707  95.6071497  84.0439550 130.2445559
  95.9263511  85.4094022 130.8151197  81.2511579  76.6207796 139.0635266
  80.7065047  77.3967604 139.1955540  82.1290929  76.9678601 138.9054387
  88.0399196  69.9519380 131.4416064  88.1615107  69.0236026 131.6406952
  87.7501238  69.9658066 130.5294380  90.9090386  67.6374291 134.5782784
  90.9312083  67.7013624 133.6234763  91.3258445  66.7978799 134.7723290
 101.2874011  77.3729550 132.6162007 101.7305157  76.6236875 132.2181130
 100.4100521  77.3639687 132.2335738  96.4209792  83.9259892 128.0968605
  97.1160697  84.5466584 128.3155920  96.7632942  83.0755243 128.3720983
  82.0377601  75.7477693 141.9565422  81.2959337  75.8960328 142.5430053
  81.7170346  76.0085958 141.0932172  98.3201215  81.3759597 129.6255936
  98.8452539  81.7146870 128.9005256  98.2323568  80.4406613 129.4419070
  82.4834215  83.6343121 133.9875817  83.3092235  83.3346893 133.6074461
  82.1328267  82.8650744 134.4365606  87.4515748  82.9869590 136.0573491
  86.8295757  82.3240295 135.7575719  88.1220615  83.0130722 135.3747138
  80.6842820  81.5529448 134.9464751  79.8474728  81.1251622 134.7648752
  80.6566465  81.7461891 135.8835542  87.0129255  81.5373513 129.5331951
  87.1617375  82.2208977 128.8798624  87.8195698  81.5178603 130.0481407
  84.7681888  77.5638691 130.5393020  84.5227930  76.6601021 130.7373230
  84.9377803  77.5655841 129.5972498  92.4578598  68.4362367 139.9217776
  92.9760542  69.1723394 139.5964264  92.1033731  68.7426360 140.7564535
  84.0377536  73.2967048 128.0379182  83.3446780  73.3711403 127.3819218
  83.7929287  72.5327392 128.5600698  92.7091192  64.8562650 135.4418672
  92.9892946  64.1885839 136.0679099  93.4941799  65.0491745 134.9293336
  90.5124661  84.0321643 127.0043699  89.9398628  84.6511831 126.5514170
  91.0857454  84.5821005 127.5383621  94.6014430  70.3635867 139.3749648
  94.0064362  70.6440879 138.6796137  94.3164127  70.8529768 140.1466389
  93.7321920  84.3158794 128.1352281  94.6652593  84.2504355 128.3385156
  93.6445133  85.1515060 127.6766814  96.3609937  83.6324664 125.0956228
  96.2823569  83.2984527 125.9891986  97.1819604  84.1246432 125.0947701
  90.8971459  75.3682456 124.3459751  91.8430564  75.2388664 124.4148169
  90.5185704  74.6297118 124.8229179  96.8693344  67.0338462 134.3086643
  96.6718165  66.7253550 135.1929975  97.4793049  67.7600101 134.4384573
  89.0814376  73.2932433 124.2814636  88.1745832  72.9965545 124.3577350
  89.3590357  72.9962251 123.4148923  79.9992317  74.6138796 134.7313683
  79.6795101  73.7604104 134.4388057  79.4525745  74.8287374 135.4871650
  83.7772224  77.3301237 138.4483189  83.9958234  78.2618345 138.4671223
  84.1897998  76.9709211 139.2337993  90.6976442  67.8369322 130.4358878
  89.8877170  67.4916407 130.8114124  91.3860859  67.5276866 131.0246489
  92.6266990  66.9147369 132.0583174  93.1798029  67.3342823 132.7173197
  92.8637077  65.9883117 132.1006130  87.8513161  70.1519368 124.4226616
  88.7132325  70.4774266 124.6822433  88.0363505  69.3650864 123.9099681
  79.8680577  78.2341707 136.7006804  79.1744048  77.8195660 136.1876759
  80.6153568  78.2762244 136.1040223  96.0045797  69.0247894 131.5661839
  95.4244466  69.6832698 131.1839891  95.7381730  68.2025239 131.1549256
  94.4549364  68.4252952 133.7683159  94.9549142  68.5369486 132.9597478
  95.0984972  68.1214005 134.4083967  81.7817319  78.1659961 134.5772819
  81.7588007  78.2647649 133.6254702  82.0917956  79.0125112 134.8989985
  84.4404697  80.2236116 138.6919434  85.3947951  80.1920059 138.6249365
  84.2417221  79.7626740 139.5069660  94.7870675  71.1847985 130.6218187
  93.8996530  71.4697635 130.4038382  95.2024664  71.0241748 129.7745464
  98.1385211  71.2094506 134.3372526  98.9145602  71.6990958 134.6097143
  97.4133346  71.6352560 134.7944396 100.5757770  71.9222125 135.3946467
 101.1702261  71.6817861 134.6839775 100.6484354  71.2029255 136.0220003
  82.7954926  85.7655736 135.7089632  82.6609394  85.0056137 135.1427630
  82.3786988  86.4896636 135.2418420  93.9313889  80.9492659 124.7166207
  94.6349739  81.1542662 125.3323862  93.2076538  81.5169421 124.9815290
  94.7611699  76.7002521 130.8368477  94.7046900  77.1571072 129.9976109
  95.3140042  75.9393205 130.6591320  98.5716505  72.4892252 131.6618596
  98.3153439  72.0888888 132.4926804  97.9469373  73.2036046 131.5368736
 102.8828843  75.2288326 134.1689888 102.3228401  75.2981515 134.9421450
 102.2772346  75.0529310 133.4489384  95.8400586  81.3875188 126.7664667
  96.6746190  80.9556387 126.5842142  95.6784929  81.2157202 127.6941561
  95.4946478  77.8907302 128.1321006  95.4395282  77.7251573 127.1909450
  94.8692534  78.5983335 128.2883196  80.2838993  73.1275366 141.9582428
  80.9297857  72.6174320 142.4469654  80.0756144  73.8644048 142.5325854
  88.8042604  67.3915411 127.7106325  88.7921274  68.3357251 127.8674595
  89.6966026  67.2085556 127.4165786  92.6194723  63.9858187 131.9652261
  91.8527119  63.4316674 132.1108944  93.0305428  64.0580056 132.8266413
  98.9782847  90.6260515 126.1298308  99.2308368  90.1042036 125.3681771
  98.0407406  90.4626661 126.2324992 100.6816164  87.0188668 127.0330721
 100.8490566  87.8868904 127.4001192 100.4913333  87.1815950 126.1092010
  97.3014441  87.8412736 127.2799619  96.4651754  88.1787422 127.6008894
  97.1619211  87.7061716 126.3426756  99.2767522  82.6849524 131.9878804
  98.6231934  82.3698541 131.3635418  99.2347996  82.0625264 132.7138627
 100.3878727  92.9668819 123.9032096  99.4805789  92.7358072 124.1023245
 100.8849759  92.1706438 124.0906077  94.6301356  90.3150962 130.0912240
  93.6998945  90.2535417 130.3082202  94.7258828  89.7926914 129.2948881
  97.1752822  87.6859963 124.4797526  96.2982288  87.5648764 124.1159773
  97.6510575  86.8946042 124.2276415  91.9031516  89.2801818 129.9210432
  92.1984957  88.3712497 129.8677486  91.0019551  89.2589558 129.5991434
  93.6319357  86.9615916 130.0449757  93.3032063  86.0813295 129.8624863
  93.9858728  86.9063585 130.9326146  98.7329327  85.7463507 128.6118527
  99.4537690  86.1244760 128.1082244  98.1094632  86.4652384 128.7153505
  98.8792951  85.2811298 131.4416064  99.0008862  84.3527944 131.6406952
  98.5894993  85.2949984 130.5294380  94.8771290  88.6258966 128.0379182
  94.1840535  88.7003321 127.3819218  94.6323042  87.8619309 128.5600698
 101.7365214  90.6974374 124.3459751 102.6824318  90.5680582 124.4148169
 101.3579458  89.9589036 124.8229179  99.9208131  88.6224350 124.2814636
  99.0139586  88.3257463 124.3577350 100.1984112  88.3254168 123.4148923
 101.5370196  83.1661240 130.4358878 100.7270925  82.8208325 130.8114124
 102.2254613  82.8568784 131.0246489  98.6906915  85.4811285 124.4226616
  99.5526079  85.8066184 124.6822433  98.8757259  84.6942781 123.9099681
  99.6436358  82.7207328 127.7106325  99.6315028  83.6649168 127.8674595
 100.5359780  82.5377474 127.4165786 103.4588478  79.3150105 131.9652261
 102.6920874  78.7608592 132.1108944 103.8699183  79.3871974 132.8266413
  59.3585925  13.0673164 114.8238031  58.7073905  13.6527244 114.4372045
  60.1530288  13.5979359 114.8833068  65.6252649   9.5598100 116.0842868
  64.8482092   9.2209259 115.6398030  66.3044130   9.5650723 115.4097833
  57.0303710   8.6563271 110.6277402  56.1230772   8.4252524 110.8268551
  57.5274742   7.8600890 110.8151384  59.9371789  17.3660778 113.5474088
  59.2633488  17.6692475 114.1559046  60.3237611  18.1689858 113.1979546
  57.9068031  10.2984609 112.4889471  57.4687461   9.5820468 112.0295108
  58.6478472  10.5260724 111.9274562  58.1363004  17.5340450 115.7621168
  58.3114760  17.0628493 116.5766790  57.4495792  18.1606216 115.9902428
  62.0279259   9.1568991 112.0821529  61.4108430   8.4315819 111.9854581
  61.5595748   9.9178351 111.7388603  62.8516944  12.4808163 116.2014168
  63.1276788  12.3664757 117.1108042  61.9821443  12.0825648 116.1626341
  59.8213174  15.6562699 117.1062030  60.3500940  15.1455153 116.4932193
  60.0841393  15.3405229 117.9707563  62.9153357  15.6279497 117.7217013
  63.0890235  15.0625919 116.9690866  63.4082249  16.4280392 117.5396503
  63.9028530  14.9446261 114.8213912  64.5979434  15.5652954 115.0401226
  64.2451680  14.0941613 115.0966290  65.8019953  12.3945967 116.3501242
  66.3271277  12.7333240 115.6250562  65.7142306  11.4592982 116.1664377
  57.9943398  15.0508013 113.7289005  57.4217365  15.6698200 113.2759477
  58.5676192  15.6007375 114.2628927  61.2140658  15.3345163 114.8597588
  62.1471331  15.2690725 115.0630463  61.1263871  16.1701430 114.4012120
  63.8428675  14.6511033 111.8201535  63.7642306  14.3170897 112.7137293
  64.6638342  15.1432801 111.8193007  58.3790197   6.3868826 111.0705058
  59.3249302   6.2575034 111.1393476  58.0004442   5.6483488 111.5474486
  61.4132627  11.9679029 111.4411513  62.1168477  12.1729031 112.0569169
  60.6895275  12.5355791 111.7060597  63.3219324  12.4061558 113.4909973
  64.1564928  11.9742757 113.3087448  63.1603667  12.2343572 114.4186868
  62.9765216   8.9093671 114.8566313  62.9214020   8.7437943 113.9154757
  62.3511271   9.6169704 115.0128502  71.9503599  22.9231209 123.5865150
  72.5882009  22.8037957 122.8828490  71.8324442  23.8712053 123.6453102
  68.7593305  22.8758637 123.5226675  68.4211817  22.7599702 122.6347210
  69.6283074  22.4749802 123.5027681  64.6180121  24.7294114 119.5123566
  64.0544986  24.6384051 118.7439854  64.5032516  23.9094018 119.9926058
  62.1644553  26.2245305 122.3507786  62.9565845  25.8836130 121.9354086
  62.4041203  26.3340280 123.2709940  70.1979680  28.3965081 114.8238031
  69.5467660  28.9819162 114.4372045  70.9924043  28.9271276 114.8833068
  64.1235307  25.4854219 115.2225165  64.8966183  24.9383206 115.0838041
  64.4760706  26.3498468 115.4339627  66.8876556  24.1907449 125.0193424
  67.4840129  23.9663472 124.3050387  66.9451528  23.4492195 125.6218872
  66.4601585  21.6446885 112.8543615  66.7127105  21.1228406 112.0927078
  65.5226144  21.4813030 112.9570299  71.5044868  20.6482663 120.6618358
  72.2907957  20.2302086 120.3108775  71.7683572  21.5528755 120.8300007
  71.6754945  26.0855513 115.3607015  71.0400778  26.1590140 116.0727920
  71.3452351  26.6749112 114.6826094  76.9053295  20.5857896 121.5651337
  77.6378467  20.0157113 121.7989166  76.1492650  20.1979497 122.0057842
  66.1797873  23.5474991 115.0567990  66.0634132  22.8719894 115.7249074
  66.2900133  23.0607365 114.2400143  68.5229414  23.0085138 118.7614679
  68.1587622  22.4815759 119.4727601  69.3796530  22.6183607 118.5881165
  68.1634901  18.0375037 113.7576028  68.3309304  18.9055274 114.1246499
  67.9732070  18.2002319 112.8337317  70.9210235  26.4992016 125.4241858
  70.6210958  27.4017055 125.3157665  70.5761294  26.2324200 126.2763011
  64.3722716  22.9505813 121.4578563  63.4473212  22.8182027 121.6656254
  64.6207129  23.7300032 121.9548505  74.3207378  19.0174557 123.1039295
  73.4124256  18.9489965 122.8098056  74.2694974  19.4946501 123.9321121
  68.1424122  20.4932695 114.7422695  68.0223747  20.9389746 115.5808175
  67.4476711  20.8418013 114.1836233  61.7331527  22.5939087 122.2922352
  61.8623908  22.8473566 123.2061763  61.0528978  23.1866795 121.9727007
  65.9031014  33.2636337 118.3912826  65.8255044  34.2144162 118.4701306
  65.2992658  32.9182209 119.0487752  76.1869025  17.2190995 124.8817169
  75.5443405  17.5123528 124.2356964  75.6823953  17.1043915 125.6870366
  73.8409188  20.9654168 115.5703029  74.7527045  21.1981555 115.3950726
  73.3318835  21.5491212 115.0078107  72.4478771  25.9479987 122.9616610
  71.8187633  26.1125701 122.2592678  72.0604433  26.3621596 123.7327574
  76.3268003  26.8834424 120.3160974  75.6419041  27.2633326 119.7658007
  76.4111852  27.4929751 121.0492922  73.5818934  24.5294383 126.9156317
  73.7935829  25.1726143 126.2390698  73.5348682  23.6956700 126.4478247
  68.0006733  25.6854395 120.2266695  68.4645078  25.9642098 119.4371318
  67.7363531  24.7837839 120.0439786  64.8930814  25.2325876 123.1646458
  65.4632171  25.6613145 122.5263943  65.4838925  24.9508461 123.8630644
  66.9375619  21.8077547 117.0356260  67.6399662  22.2598591 117.5030187
  66.6056247  21.1661366 117.6636153  74.6964762  27.4066339 125.0878675
  75.5182206  27.0046526 124.8061356  74.6927165  27.3034573 126.0394791
  62.6315698  20.4305679 119.2956871  61.8346861  20.5424373 119.8140366
  62.4041290  20.7692331 118.4297761  68.4621366  26.9550382 127.2439385
  68.5265798  27.4170789 128.0797557  67.7532289  26.3247747 127.3721695
  82.7870755  23.7505087 121.4363646  82.0334464  23.1812485 121.2807651
  82.9218296  23.7167752 122.3834281  68.1769383  28.6218490 117.1118366
  68.0415058  29.4670025 117.5403213  68.7179196  28.8237767 116.3484299
  61.6298781  26.1393928 117.6846291  62.1423301  26.9337178 117.8351855
  62.2821493  25.4420218 117.6179892  63.4393665  29.2559684 119.7669044
  63.6160294  30.1777649 119.5790028  64.2350499  28.9418103 120.1963424
  64.5624981  30.7737858 125.7679386  65.1132406  30.6454921 124.9956380
  63.7236457  31.0732747 125.4174279  71.9019098  29.5244856 129.2700109
  71.8837573  30.3453737 128.7780378  72.8239018  29.3998931 129.4950250
  59.5947697  24.4682582 118.4605861  60.4322919  24.8779590 118.2439569
  59.7725965  23.5282024 118.4306055  71.4912130  22.1357663 114.1489694
  70.9758753  22.9062267 114.3878082  71.2189438  21.4622799 114.7722756
  69.0759241  16.9807363 119.2074932  68.2200837  16.5914214 119.0280571
  69.4886192  17.0599324 118.3474718  76.4646404  24.8890017 116.0842868
  75.6875846  24.5501177 115.6398030  77.1437885  24.8942640 115.4097833
  71.2798433  20.0084755 115.9749475  70.9748568  20.3230904 116.8259618
  72.2328875  20.0866175 116.0176808  69.7244865  26.1674978 117.6242429
  69.1966226  25.4327738 117.3115667  69.2232367  26.9449654 117.3782398
  74.7037711  24.3623999 122.7409476  74.0461385  25.0523260 122.8289604
  75.5078110  24.7520430 123.0843462  64.4563592  16.8294644 119.9849041
  65.0307344  16.6069826 119.2522234  65.0434575  16.8983339 120.7377642
  73.5143169  22.7168371 120.7913417  74.0275051  23.3498363 121.2935127
  74.1644393  22.1169567 120.4256777  64.7833179  18.8599105 114.0044926
  63.9470492  19.1973792 114.3254201  64.6437949  18.7248085 113.0672063
  66.7586260  13.7035893 118.7124110  66.1050672  13.3884910 118.0880725
  66.7166734  13.0811634 119.4383933  67.8697465  23.9855188 110.6277402
  66.9624526  23.7544442 110.8268551  68.3668497  23.1892808 110.8151384
  70.7765544  32.6952695 113.5474088  70.1027242  32.9984392 114.1559046
  71.1631366  33.4981776 113.1979546  69.9924000  20.1917827 123.0371758
  69.0746562  20.4132774 122.8793446  70.4084144  20.2664137 122.1783465
  70.7759048  21.5909242 118.1674438  71.5230867  22.1030640 117.8581560
  71.0450638  21.2693295 119.0278832  69.0485698  24.0867783 115.1501392
  68.1396917  23.8026816 115.2473862  69.0780782  24.5066862 114.2904699
  74.2804966  27.6974373 118.9192560  73.8267293  26.8565283 118.9757750
  73.6498932  28.3335771 119.2567340  73.2237885  18.6266359 120.1493227
  72.4860642  18.1143745 120.4803470  73.4764659  18.1866740 119.3376504
  72.7237905  29.5350869 119.8542378  73.0160879  30.0955926 119.1354744
  73.2336525  29.8279430 120.6095537  73.3249512  11.4042611 120.7434997
  73.6308389  10.5439974 120.4560912  74.0502117  11.9960231 120.5433991
  59.6173869  21.8073297 119.1316595  59.4198268  21.2142658 118.4067661
  59.0620533  21.5025507 119.8492533  67.5970592  21.6996404 121.2511188
  67.6519202  20.7470240 121.1753664  66.7861794  21.8555843 121.7352486
  68.7461786  25.6276527 112.4889471  68.3081216  24.9112386 112.0295108
  69.4872227  25.8552642 111.9274562  65.5362952  20.3173463 119.0101567
  64.7230818  20.6167634 119.4166759  66.0321946  19.9229152 119.7276049
  67.6871530  30.3131220 120.9435831  67.6447709  30.5392067 120.0144363
  68.6034229  30.0794595 121.0921632  76.8634901  23.9033724 118.5465790
  76.7252799  24.0935320 117.6186979  76.5071120  24.6653107 119.0033841
  76.8904280  25.9710251 123.5577061  77.3240787  25.8785540 124.4060115
  77.6035861  25.9467751 122.9197077  65.8037331  27.1894249 120.7397794
  66.5977929  26.6944570 120.5380369  65.0929023  26.6612113 120.3765500
  70.6232175  29.5712345 125.0910162  70.6769198  30.1403281 125.8587878
  69.7546957  29.7414230 124.7264199  62.1120094  21.3337331 116.8157547
  61.1817682  21.2721787 117.0327509  62.2077566  20.8113284 116.0194188
  62.0305643  17.8592144 119.4035788  62.2912461  18.7737477 119.2944949
  62.8522816  17.3916587 119.5532401  77.7519830  26.0133952 126.0909946
  77.9455720  26.9179762 126.3369221  77.6520448  25.5541371 126.9248531
  69.5820275  23.7372607 126.6497093  70.5112335  23.8883767 126.4766061
  69.1611305  23.8256628 125.7945740  68.3808607  27.7623271 124.4195631
  68.2419692  27.3942056 125.2921569  67.5923203  28.2770911 124.2479589
  68.9756759  32.8632368 115.7621168  69.1508514  32.3920411 116.5766790
  68.2889547  33.4898134 115.9902428  69.9313822  27.1404874 121.8084469
  69.5963655  27.1005644 122.7042119  69.4317768  26.4749590 121.3354879
  72.8673014  24.4860908 112.0821529  72.2502184  23.7607737 111.9854581
  72.3989502  25.2470269 111.7388603  74.5227145  29.1959817 129.7427309
  74.4639691  28.5119037 129.0757892  74.9246664  29.9378807 129.2907935
  63.5417844  36.0121731 122.5361028  63.7814442  36.6440255 123.2140046
  62.6987041  35.6609771 122.8226387  64.6571560  18.7046333 111.2042833
  63.7801026  18.5835134 110.8405080  65.1329313  17.9132411 110.9521721
  74.5244553  27.1599401 127.9741289  73.6371331  26.8225323 128.0967687
  75.0943104  26.4282432 128.2110054  56.1773700  23.4923493 121.2984340
  56.8644739  23.1785223 120.7105355  56.0221828  24.3964857 121.0251591
  68.0545706  31.8200853 124.9402532  67.9815877  32.6255825 125.4521836
  67.6123099  32.0192819 124.1150553  67.8435486  31.0572623 118.4505353
  67.0603007  31.5994303 118.5443578  68.5428231  31.5746603 118.8499595
  71.1532136  16.8667253 121.0939559  71.6500835  16.1137215 120.7740629
  70.3819117  16.9031569 120.5282768  79.0061893  22.5707618 122.7357850
  78.9951769  23.4532334 122.3651783  78.1379272  22.2179169 122.5412387
  70.5144389  31.7187687 127.0960690  71.2272362  32.3535152 127.0236592
  70.0234418  31.8151553 126.2800692  72.2361916  25.6238940 118.6677982
  71.3018195  25.7440402 118.4982686  72.4138585  24.7211407 118.4037992
  67.7367104  19.0084636 120.8211243  67.3664892  18.4555676 121.5092149
  68.2326197  18.4042769 120.2686243  75.6234468  21.4656259 119.2028016
  76.0894920  22.2984251 119.1288319  76.0741968  21.0001241 119.9073275
  65.5656303  29.4682131 127.9166261  66.2665762  30.1018614 128.0695656
  65.0951418  29.8096862 127.1561901  73.6910699  27.8100080 116.2014168
  73.9670543  27.6956675 117.1108042  72.8215198  27.4117565 116.1626341
  73.3657589  22.0226738 125.7418812  72.7129039  22.2702646 125.0871264
  73.7437969  21.2090876 125.4081289  70.3264763  32.0586431 119.8446982
  70.5087157  31.2408087 120.3074734  71.1497749  32.2754123 119.4071872
  70.6606928  30.9854616 117.1062030  71.1894695  30.4747071 116.4932193
  70.9235148  30.6697147 117.9707563  61.1624021  29.0018486 124.8497364
  61.7477458  28.2562174 124.9825268  60.9648859  29.3122442 125.7334028
  64.0162676  32.0369733 119.8659806  63.3473052  32.5215861 119.3823846
  63.8775546  32.2838953 120.7803185  68.1567945  34.0713477 126.4642465
  68.7086253  34.2345098 127.2291550  68.4974138  34.6617914 125.7922490
  59.3850253  20.2988188 116.6455738  59.6803694  19.3898866 116.5922792
  58.4838289  20.2775927 116.3236741  71.2936332  32.0195452 123.4506147
  71.1687472  31.2185192 122.9417092  71.9515423  32.5141645 122.9620117
  73.3571241  29.8204472 125.0785697  72.4101576  29.7009823 125.0064024
  73.7054014  28.9326970 125.1611958  61.1138095  17.9802286 116.7695064
  60.7850801  17.0999665 116.5870170  61.4677466  17.9249954 117.6571453
  70.3617674  29.6157188 121.2790049  70.2142636  28.6873896 121.4597619
  71.1871167  29.6377279 120.7947124  64.2279918  18.2675255 117.1370541
  64.5675991  18.7961177 116.4149150  64.6752039  18.6055662 117.9129108
  73.9651796  30.4385747 122.3654922  74.8898343  30.2328608 122.2279373
  73.7967099  30.1902148 123.2744263  66.2148065  16.7649877 115.3363834
  66.9356428  17.1431130 114.8327551  65.5913369  17.4838754 115.4398812
  70.3579188  17.4695026 116.2722166  70.5742803  18.3519664 115.9710995
  69.8773255  17.0781239 115.5427808  73.7547112  30.9571415 117.7217013
  73.9283989  30.3917837 116.9690866  74.2476003  31.7572309 117.5396503
  66.3611688  16.2997668 118.1661371  66.4827600  15.3714314 118.3652258
  66.0713731  16.3136353 117.2539686  79.6086503  23.7207838 119.3407313
  80.0517649  22.9715163 118.9426436  78.7313013  23.7117974 118.9581045
  74.7422284  30.2738179 114.8213912  75.4373189  30.8944872 115.0401226
  75.0845434  29.4233530 115.0966290  76.6413707  27.7237885 116.3501242
  77.1665032  28.0625157 115.6250562  76.5536060  26.7884900 116.1664377
  68.3033756  31.6371958 128.4791119  68.6120883  31.3921105 129.3513819
  69.1009238  31.8418597 127.9909989  68.3254368  33.7909868 120.7096496
  67.8859359  33.2986246 121.4029352  69.0762485  33.2482835 120.4688571
  60.8046707  29.9821409 120.7121124  61.6304727  29.6825181 120.3319767
  60.4540759  29.2129031 121.1610912  65.7728240  29.3347877 122.7818797
  65.1508250  28.6718582 122.4821025  66.4433107  29.3609009 122.0992445
  59.0055312  27.9007735 121.6710057  58.1687221  27.4729909 121.4894059
  58.9778958  28.0940178 122.6080848  76.3307614  28.3570788 131.6552440
  75.5403157  28.3394927 131.1156940  76.0940968  28.8959082 132.4101477
  76.4505489  25.2063255 128.9685169  76.5003494  25.0413262 129.9100692
  76.3419412  24.3390514 128.5783050  65.3341747  27.8851800 116.2577258
  65.4829868  28.5687265 115.6043931  66.1408191  27.8656890 116.7726714
  77.9523685  27.6260196 129.2127190  77.6608494  27.9890177 130.0490651
  77.3395817  26.9127204 129.0340523  79.1519368  25.1913076 121.7329761
  79.9866259  25.6302880 121.8967321  79.2878497  24.7151729 120.9138006
  76.2010874  22.7492811 127.6807248  76.6764995  22.9420457 126.8726100
  75.2776439  22.8051996 127.4350632  63.0894380  23.9116978 117.2638327
  62.8440422  23.0079308 117.4618537  63.2590295  23.9134128 116.3217805
  62.3590028  19.6445335 114.7624488  61.6659273  19.7189690 114.1064524
  62.1141780  18.8805679 115.2846005  68.8337153  30.3799931 113.7289005
  68.2611120  30.9990118 113.2759477  69.4069946  30.9299292 114.2628927
  74.9012543  19.6258571 125.9135554  75.8529966  19.7256668 125.9347778
  74.7315993  18.8336839 126.4233638  72.0534413  30.6637081 114.8597588
  72.9865086  30.5982642 115.0630463  71.9657625  31.4993348 114.4012120
  74.6822429  29.9802951 111.8201535  74.6036061  29.6462815 112.7137293
  75.5032096  30.4724719 111.8193007  77.3800620  22.8464690 125.0277854
  77.3476941  21.9080691 125.2137538  77.9901244  22.9248727 124.2943679
  69.2183951  21.7160743 111.0705058  70.1643056  21.5866952 111.1393476
  68.8398196  20.9775405 111.5474486  77.5295109  19.6375734 125.0736137
  77.0134158  18.8534191 124.8866066  78.4135057  19.3094450 125.2382656
  75.1905836  13.3816749 121.0331950  74.9930657  13.0731838 121.9175282
  75.8005541  14.1078388 121.1629879  83.1977170  23.9080697 124.1683891
  83.9280559  23.6465985 124.7291594  82.5884116  23.1709419 124.2085958
  81.2792467  22.0488560 124.7658342  80.5525631  21.9144525 124.1574833
  80.8639754  22.3565388 125.5715060  67.4026868  19.6410720 111.0059943
  66.4958324  19.3443833 111.0822657  67.6802849  19.3440538 110.1394229
  69.0188934  14.1847610 117.1604184  68.2089662  13.8394694 117.5359430
  69.7073351  13.8755153 117.7491796  70.9479482  13.2625656 118.7828481
  71.5010521  13.6821110 119.4418504  71.1849569  12.3361404 118.8251437
  66.1725653  16.4997655 111.1471922  67.0344817  16.8252553 111.4067740
  66.3575997  15.7129151 110.6344988  74.3258290  15.3726181 118.2907145
  73.7456959  16.0310986 117.9085198  74.0594222  14.5503526 117.8794563
  72.7761856  14.7731239 120.4928466  73.2761634  14.8847774 119.6842784
  73.4197464  14.4692292 121.1329274  60.1029811  24.5138248 121.3018126
  60.0800499  24.6125936 120.3500009  60.4130448  25.3603399 121.6235292
  73.1083168  17.5326272 117.3463493  72.2209023  17.8175922 117.1283688
  73.5237157  17.3720035 116.4990770  76.4597704  17.5572793 121.0617833
  77.2358094  18.0469245 121.3342450  75.7345838  17.9830847 121.5189702
  78.8970262  18.2700412 122.1191773  79.4914753  18.0296148 121.4085082
  78.9696846  17.5507543 122.7465310  61.1167418  32.1134023 122.4334938
  60.9821886  31.3534424 121.8672936  60.6999480  32.8374923 121.9663727
  72.2526381  27.2970947 111.4411513  72.9562231  27.5020949 112.0569169
  71.5289030  27.8647708 111.7060597  73.0824191  23.0480808 117.5613784
  73.0259393  23.5049359 116.7221416  73.6352534  22.2871492 117.3836626
  76.8928997  18.8370540 118.3863903  76.6365931  18.4367175 119.2172111
  76.2681865  19.5514334 118.2614042  81.2041335  21.5766613 120.8935195
  80.6440893  21.6459802 121.6666757  80.5984838  21.4007598 120.1734691
  64.2736544  33.0103340 122.6453381  64.1568928  33.9548773 122.5432071
  63.4528990  32.7076902 123.0339180  74.1613078  27.7353476 113.4909973
  74.9958682  27.3034674 113.3087448  73.9997421  27.5635489 114.4186868
  73.8158971  24.2385589 114.8566313  73.7607774  24.0729860 113.9154757
  73.1905026  24.9461622 115.0128502  67.1255096  13.7393698 114.4351631
  67.1133766  14.6835538 114.5919902  68.0178518  13.5563843 114.1411092
  65.2991058  33.6631602 125.8609309  66.2018305  33.6955212 126.1775804
  65.0728428  32.7332053 125.8755645  67.0544660  32.4162588 122.5219388
  66.1040291  32.4164450 122.4083760  67.3577146  31.6695323 122.0055422
  70.9407216  10.3336475 118.6897568  70.1739611   9.7794961 118.8354250
  71.3517921  10.4058343 119.5511720  82.7897354  38.2523127 123.5865150
  83.4275763  38.1329874 122.8828490  82.6718196  39.2003971 123.6453102
  79.5987060  38.2050555 123.5226675  79.2605571  38.0891620 122.6347210
  80.4676828  37.8041720 123.5027681  75.4573876  40.0586031 119.5123566
  74.8938741  39.9675968 118.7439854  75.3426271  39.2385936 119.9926058
  80.0806843  39.3585407 129.4812880  80.0695484  38.9638205 128.6093384
  80.2427482  38.6251479 130.0746652  73.0038307  41.5537223 122.3507786
  73.7959599  41.2128048 121.9354086  73.2434958  41.6632198 123.2709940
  81.0373434  43.7256999 114.8238031  80.3861414  44.3111079 114.4372045
  81.8317797  44.2563194 114.8833068  74.9629061  40.8146136 115.2225165
  75.7359937  40.2675123 115.0838041  75.3154460  41.6790386 115.4339627
  76.8014104  42.1422518 128.4292064  76.5103970  43.0468149 128.3138731
  77.4371088  42.1839046 129.1436134  77.7270311  39.5199367 125.0193424
  78.3233883  39.2955389 124.3050387  77.7845282  38.7784112 125.6218872
  77.2995339  36.9738802 112.8543615  77.5520860  36.4520324 112.0927078
  76.3619898  36.8104948 112.9570299  82.3438622  35.9774581 120.6618358
  83.1301711  35.5594004 120.3108775  82.6077326  36.8820673 120.8300007
  82.5148699  41.4147431 115.3607015  81.8794532  41.4882058 116.0727920
  82.1846106  42.0041030 114.6826094  87.7447049  35.9149814 121.5651337
  88.4772221  35.3449031 121.7989166  86.9886405  35.5271414 122.0057842
  77.0191628  38.8766908 115.0567990  76.9027886  38.2011812 115.7249074
  77.1293888  38.3899282 114.2400143  79.3623169  38.3377055 118.7614679
  78.9981376  37.8107676 119.4727601  80.2190285  37.9475524 118.5881165
  85.2672469  29.6271388 126.0245945  84.9355794  30.4966799 125.8007160
  84.6718083  29.3107672 126.7039976  79.0028656  33.3666955 113.7576028
  79.1703058  34.2347191 114.1246499  78.8125825  33.5294237 112.8337317
  81.7603989  41.8283934 125.4241858  81.4604712  42.7308973 125.3157665
  81.4155049  41.5616117 126.2763011  75.2116471  38.2797731 121.4578563
  74.2866967  38.1473945 121.6656254  75.4600884  39.0591950 121.9548505
  85.1601133  34.3466474 123.1039295  84.2518010  34.2781883 122.8098056
  85.1088729  34.8238419 123.9321121  78.9817877  35.8224613 114.7422695
  78.8617502  36.2681663 115.5808175  78.2870465  36.1709930 114.1836233
  72.5725282  37.9231004 122.2922352  72.7017663  38.1765483 123.2061763
  71.8922733  38.5158712 121.9727007  76.7424769  48.5928254 118.3912826
  76.6648799  49.5436079 118.4701306  76.1386412  48.2474127 119.0487752
  79.2341999  35.7656120 131.0474193  78.4575333  36.3250040 131.0377057
  79.8732562  36.2512903 131.5689063  87.0262779  32.5482913 124.8817169
  86.3837159  32.8415446 124.2356964  86.5217708  32.4335833 125.6870366
  84.6802943  36.2946086 115.5703029  85.5920799  36.5273473 115.3950726
  84.1712590  36.8783130 115.0078107  77.4888371  38.5741573 130.6092160
  78.2303055  39.1126617 130.3326983  76.7825356  39.2007862 130.7663712
  82.9643711  40.7170714 129.2064321  83.3727067  40.2753124 128.4618954
  82.2420972  40.1423341 129.4598514  79.3174781  35.6543320 126.5797878
  80.1635976  36.0782734 126.7232527  79.2573418  34.9976945 127.2736441
  83.2872525  41.2771904 122.9616610  82.6581388  41.4417618 122.2592678
  82.8998187  41.6913514 123.7327574  87.1661757  42.2126342 120.3160974
  86.4812795  42.5925243 119.7658007  87.2505606  42.8221669 121.0492922
  82.4674226  33.3147689 128.2379052  82.2235158  34.0689749 127.7013327
  82.7434156  33.6933036 129.0726299  84.4212689  39.8586301 126.9156317
  84.6329584  40.5018061 126.2390698  84.3742437  39.0248618 126.4478247
  82.0238918  32.4704122 123.8192890  81.1623397  32.7685375 124.1109627
  82.0501352  32.6874521 122.8873922  78.8400487  41.0146312 120.2266695
  79.3038833  41.2934015 119.4371318  78.5757285  40.1129757 120.0439786
  75.7324568  40.5617794 123.1646458  76.3025925  40.9905062 122.5263943
  76.3232680  40.2800379 123.8630644  77.7769373  37.1369465 117.0356260
  78.4793416  37.5890508 117.5030187  77.4450002  36.4953284 117.6636153
  76.2249735  35.7281221 131.4107470  75.5948395  36.4097502 131.6442867
  76.1185823  35.6164303 130.4660608  71.5194707  35.3953017 122.3373394
  70.7293761  35.6510546 121.8613505  72.0105954  36.2101355 122.4425434
  85.5358517  42.7358257 125.0878675  86.3575960  42.3338444 124.8061356
  85.5320920  42.6326491 126.0394791  73.4709452  35.7597597 119.2956871
  72.6740616  35.8716291 119.8140366  73.2435045  36.0984249 118.4297761
  79.3015120  42.2842300 127.2439385  79.3659553  42.7462707 128.0797557
  78.5926044  41.6539665 127.3721695  69.8032410  35.6483508 124.7688385
  70.0540448  36.5330518 125.0345961  70.3391958  35.4688109 123.9963477
  93.6264510  39.0797005 121.4363646  92.8728218  38.5104403 121.2807651
  93.7612051  39.0459669 122.3834281  79.0163138  43.9510407 117.1118366
  78.8808813  44.7961943 117.5403213  79.5572950  44.1529685 116.3484299
  72.4692535  41.4685845 117.6846291  72.9817056  42.2629096 117.8351855
  73.1215248  40.7712136 117.6179892  74.2787420  44.5851602 119.7669044
  74.4554048  45.5069566 119.5790028  75.0744253  44.2710021 120.1963424
  78.4198438  31.4459866 131.3652977  79.1608152  32.0467019 131.2857440
  78.6516361  30.7037504 130.8071020  73.5639776  36.6316234 129.6431207
  73.4493292  35.7301491 129.9438306  72.7084294  36.8779930 129.2916024
  80.6431614  44.5733974 131.2418708  80.1995468  43.7870352 130.9239612
  81.3048828  44.7613124 130.5762598  75.4018735  46.1029775 125.7679386
  75.9526160  45.9746839 124.9956380  74.5630211  46.4024664 125.4174279
  82.7412852  44.8536774 129.2700109  82.7231328  45.6745655 128.7780378
  83.6632772  44.7290849 129.4950250  79.1985906  42.3680903 130.1123617
  79.7314243  41.6069191 129.8822925  78.6699987  42.0754555 130.8547772
  82.3655601  27.4740969 125.6417259  82.0219871  28.3642611 125.5656370
  82.7334564  27.2842627 124.7786844  70.4341452  39.7974500 118.4605861
  71.2716674  40.2071508 118.2439569  70.6119720  38.8573942 118.4306055
  82.3305884  37.4649580 114.1489694  81.8152507  38.2354185 114.3878082
  82.0583192  36.7914716 114.7722756  79.9152995  32.3099281 119.2074932
  79.0594591  31.9206131 119.0280571  80.3279947  32.3891242 118.3474718
  81.4452142  29.8445624 123.6066492  80.9416937  29.8075760 122.7934298
  81.7382749  30.7538367 123.6663149  77.6895028  29.9284354 122.6132674
  78.5548024  29.7327163 122.2538563  77.7572536  29.6994706 123.5402031
  87.3040158  40.2181935 116.0842868  86.5269601  39.8793094 115.6398030
  87.9831639  40.2234558 115.4097833  82.1192187  35.3376672 115.9749475
  81.8142323  35.6522822 116.8259618  83.0722629  35.4158092 116.0176808
  80.5638619  41.4966896 117.6242429  80.0359981  40.7619655 117.3115667
  80.0626122  42.2741572 117.3782398  85.5431465  39.6915916 122.7409476
  84.8855140  40.3815178 122.8289604  86.3471864  40.0812348 123.0843462
  75.2957347  32.1586562 119.9849041  75.8701099  31.9361743 119.2522234
  75.8828329  32.2275256 120.7377642  84.3536924  38.0460289 120.7913417
  84.8668806  38.6790281 121.2935127  85.0038148  37.4461484 120.4256777
  75.6226934  34.1891023 114.0044926  74.7864246  34.5265710 114.3254201
  75.4831703  34.0540003 113.0672063  77.5980014  29.0327811 118.7124110
  76.9444427  28.7176828 118.0880725  77.5560489  28.4103551 119.4383933
  78.7091219  39.3147106 110.6277402  77.8018281  39.0836359 110.8268551
  79.2062251  38.5184725 110.8151384  81.6159298  48.0244613 113.5474088
  80.9420997  48.3276310 114.1559046  82.0025120  48.8273693 113.1979546
  80.8317755  35.5209744 123.0371758  79.9140316  35.7424691 122.8793446
  81.2477898  35.5956055 122.1783465  81.6152802  36.9201160 118.1674438
  82.3624621  37.4322557 117.8581560  81.8844392  36.5985213 119.0278832
  79.8879453  39.4159701 115.1501392  78.9790672  39.1318734 115.2473862
  79.9174536  39.8358779 114.2904699  85.1198720  43.0266290 118.9192560
  84.6661047  42.1857200 118.9757750  84.4892687  43.6627689 119.2567340
  84.0631640  33.9558276 120.1493227  83.3254396  33.4435663 120.4803470
  84.3158413  33.5158658 119.3376504  83.5631659  44.8642787 119.8542378
  83.8554634  45.4247844 119.1354744  84.0730280  45.1571348 120.6095537
  84.1643267  26.7334528 120.7434997  84.4702144  25.8731892 120.4560912
  84.8895872  27.3252149 120.5433991  70.4567623  37.1365215 119.1316595
  70.2592023  36.5434576 118.4067661  69.9014287  36.8317425 119.8492533
  78.4364347  37.0288321 121.2511188  78.4912956  36.0762158 121.1753664
  77.6255549  37.1847761 121.7352486  79.5855540  40.9568445 112.4889471
  79.1474970  40.2404303 112.0295108  80.3265981  41.1844559 111.9274562
  76.3756707  35.6465381 119.0101567  75.5624572  35.9459552 119.4166759
  76.8715701  35.2521070 119.7276049  78.5265285  45.6423138 120.9435831
  78.4841463  45.8683984 120.0144363  79.4427983  45.4086513 121.0921632
  81.9730918  36.1107206 127.8416461  82.3280306  36.3378679 128.7010926
  82.6203050  36.4425582 127.2193716  87.7028655  39.2325642 118.5465790
  87.5646554  39.4227238 117.6186979  87.3464874  39.9945024 119.0033841
  75.8670781  33.2183737 124.6262802  76.5070161  33.0772496 123.9285765
  75.0348312  32.9318250 124.2501404  87.7298035  41.3002169 123.5577061
  88.1634542  41.2077458 124.4060115  88.4429616  41.2759669 122.9197077
  76.6431085  42.5186167 120.7397794  77.4371684  42.0236487 120.5380369
  75.9322778  41.9904030 120.3765500  81.4625930  44.9004263 125.0910162
  81.5162952  45.4695199 125.8587878  80.5940711  45.0706148 124.7264199
  72.9513849  36.6629249 116.8157547  72.0211437  36.6013704 117.0327509
  73.0471321  36.1405202 116.0194188  72.8699398  33.1884062 119.4035788
  73.1306215  34.1029395 119.2944949  73.6916570  32.7208504 119.5532401
  74.3424323  34.6021819 126.5734613  75.0147377  34.3939181 125.9247262
  73.5154110  34.4043905 126.1339845  88.5913584  41.3425869 126.0909946
  88.7849475  42.2471680 126.3369221  88.4914203  40.8833288 126.9248531
  80.2449895  31.2283760 128.5900274  79.5977810  31.9273709 128.4964750
  81.0150911  31.6619904 128.9576522  83.6528693  41.4932612 131.6650827
  83.5014200  41.2643164 130.7480911  83.6433373  42.4503213 131.6782172
  80.4214030  39.0664525 126.6497093  81.3506090  39.2175684 126.4766061
  80.0005060  39.1548545 125.7945740  79.2202361  43.0915189 124.4195631
  79.0813447  42.7233974 125.2921569  78.4316958  43.6062829 124.2479589
  79.8150513  48.1924286 115.7621168  79.9902269  47.7212329 116.5766790
  79.1283301  48.8190052 115.9902428  80.7707576  42.4696792 121.8084469
  80.4357409  42.4297562 122.7042119  80.2711522  41.8041508 121.3354879
  74.7451820  37.8764422 127.3337050  74.6071618  37.1444661 127.9348589
  75.6556744  37.7873322 127.0521238  83.7066768  39.8152826 112.0821529
  83.0895939  39.0899654 111.9854581  83.2383257  40.5762186 111.7388603
  77.3734121  37.5884381 126.8220730  78.0833740  36.9477573 126.7807348
  77.3303429  37.8397276 127.7446910  85.3620900  44.5251734 129.7427309
  85.3033446  43.8410955 129.0757892  85.7640418  45.2670725 129.2907935
  76.0863055  34.5749599 128.6416369  75.5500412  34.1240338 129.2937966
  75.4979763  34.7095508 127.8986834  74.3811599  51.3413648 122.5361028
  74.6208197  51.9732173 123.2140046  73.5380795  50.9901688 122.8226387
  75.4965314  34.0338250 111.2042833  74.6194780  33.9127051 110.8405080
  75.9723067  33.2424329 110.9521721  85.3638307  42.4891318 127.9741289
  84.4765086  42.1517240 128.0967687  85.9336858  41.7574350 128.2110054
  67.0167454  38.8215410 121.2984340  67.7038494  38.5077140 120.7105355
  66.8615583  39.7256775 121.0251591  71.8202176  33.7105607 125.7269364
  71.7360365  33.1031276 124.9919774  70.9984883  34.2014625 125.7278860
  78.8939460  47.1492771 124.9402532  78.8209632  47.9547742 125.4521836
  78.4516854  47.3484737 124.1150553  78.6829240  46.3864541 118.4505353
  77.8996762  46.9286221 118.5443578  79.3821985  46.9038520 118.8499595
  81.9925890  32.1959170 121.0939559  82.4894590  31.4429133 120.7740629
  81.2212872  32.2323487 120.5282768  89.8455648  37.8999536 122.7357850
  89.8345524  38.7824251 122.3651783  88.9773027  37.5471087 122.5412387
  81.3538144  47.0479605 127.0960690  82.0666116  47.6827070 127.0236592
  80.8628173  47.1443471 126.2800692  83.0755671  40.9530857 118.6677982
  82.1411950  41.0732320 118.4982686  83.2532339  40.0503324 118.4037992
  78.5760859  34.3376553 120.8211243  78.2058646  33.7847594 121.5092149
  79.0719951  33.7334687 120.2686243  86.4628222  36.7948177 119.2028016
  86.9288674  37.6276168 119.1288319  86.9135723  36.3293158 119.9073275
  76.4050057  44.7974048 127.9166261  77.1059517  45.4310531 128.0695656
  75.9345172  45.1388780 127.1561901  84.5304453  43.1391998 116.2014168
  84.8064297  43.0248593 117.1108042  83.6608952  42.7409483 116.1626341
  84.4344885  29.1628764 123.2418918  83.5207965  29.3932991 123.4101125
  84.8637986  29.2467208 124.0932950  84.2051343  37.3518656 125.7418812
  83.5522794  37.5994563 125.0871264  84.5831723  36.5382794 125.4081289
  81.1658517  47.3878349 119.8446982  81.3480912  46.5700005 120.3074734
  81.9891503  47.6046041 119.4071872  81.5000683  46.3146534 117.1062030
  82.0288449  45.8038989 116.4932193  81.7628902  45.9989064 117.9707563
  80.2538916  38.0938467 132.2284849  79.5779553  37.9932596 132.8987224
  81.0766550  37.9377681 132.6920846  72.0017776  44.3310403 124.8497364
  72.5871212  43.5854091 124.9825268  71.8042614  44.6414360 125.7334028
  74.8556431  47.3661651 119.8659806  74.1866806  47.8507778 119.3823846
  74.7169300  47.6130871 120.7803185  66.5935430  36.9016004 123.5701807
  66.6319530  36.3679594 124.3638925  66.0875723  36.3751209 122.9512784
  78.9961699  49.4005394 126.4642465  79.5480007  49.5637016 127.2291550
  79.3367893  49.9909832 125.7922490  73.9726193  31.7480544 127.0664349
  74.0367519  32.6095375 126.6541747  73.9093313  31.1354546 126.3336708
  73.4478465  33.8203677 130.7137384  74.0750504  33.4380754 131.3274908
  72.5906384  33.6017879 131.0793076  83.8472574  44.2266652 132.3191119
  84.3912478  44.8396610 131.8246074  83.2659419  44.7846230 132.8358132
  70.2244008  35.6280106 116.6455738  70.5197449  34.7190784 116.5922792
  69.3232044  35.6067845 116.3236741  82.1330087  47.3487370 123.4506147
  82.0081226  46.5477110 122.9417092  82.7909178  47.8433563 122.9620117
  73.7538255  33.7036102 122.6283287  73.0324841  34.3172070 122.4890760
  74.5431511  34.2393867 122.5499933  84.1964995  45.1496390 125.0785697
  83.2495331  45.0301741 125.0064024  84.5447768  44.2618888 125.1611958
  76.5564568  31.0390529 128.9023939  77.0798970  31.2852825 129.6650248
  76.3376902  31.8710564 128.4827076  71.9531849  33.3094203 116.7695064
  71.6244556  32.4291582 116.5870170  72.3071220  33.2541872 117.6571453
  81.2011428  44.9449106 121.2790049  81.0536391  44.0165813 121.4597619
  82.0264922  44.9669197 120.7947124  75.0673673  33.5967173 117.1370541
  75.4069745  34.1253094 116.4149150  75.5145793  33.9347579 117.9129108
  84.8045550  45.7677665 122.3654922  85.7292098  45.5620526 122.2279373
  84.6360854  45.5194066 123.2744263  77.7617113  31.9804224 126.5873609
  77.4213934  31.1812037 126.9894289  77.0556120  32.2805935 126.0150443
  78.4133585  29.0653536 125.0400932  79.2359655  28.5914014 124.9179823
  78.6571649  29.8444020 125.5399619  77.0541820  32.0941795 115.3363834
  77.7750182  32.4723048 114.8327551  76.4307124  32.8130672 115.4398812
  81.1972943  32.7986944 116.2722166  81.4136557  33.6811582 115.9710995
  80.7167010  32.4073157 115.5427808  75.9372164  35.7572657 122.8492911
  75.7916745  36.0712960 123.7417193  75.4597368  36.3757557 122.2963810
  77.7968547  32.7475205 122.8973801  77.7830116  31.8516298 122.5606099
  78.5140975  32.7545869 123.5312087  79.6494678  33.1812545 124.9426928
  79.3912455  34.1029616 124.9411258  79.1179718  32.7842980 125.6327392
  84.5940866  46.2863332 117.7217013  84.7677744  45.7209755 116.9690866
  85.0869758  47.0864227 117.5396503  70.4117826  38.2978001 125.7880572
  69.8671294  39.0737809 125.9200847  71.2897176  38.6448806 125.6299694
  77.2005443  31.6289585 118.1661371  77.3221354  30.7006231 118.3652258
  76.9107485  31.6428271 117.2539686  80.0696633  29.3144496 121.3028091
  80.0918330  29.3783829 120.3480070  80.4864692  28.4749004 121.4968597
  90.4480258  39.0499755 119.3407313  90.8911404  38.3007080 118.9426436
  89.5706768  39.0409892 118.9581045  85.5816039  45.6030097 114.8213912
  86.2766943  46.2236789 115.0401226  85.9239189  44.7525448 115.0966290
  71.1983848  37.4247898 128.6810729  70.4565584  37.5730533 129.2675359
  70.8776592  37.6856163 127.8177478  87.4807462  43.0529802 116.3501242
  88.0058786  43.3917075 115.6250562  87.3929815  42.1176818 116.1664377
  79.1427511  46.9663876 128.4791119  79.4514637  46.7213023 129.3513819
  79.9402993  47.1710514 127.9909989  79.1648123  49.1201785 120.7096496
  78.7253113  48.6278164 121.4029352  79.9156240  48.5774753 120.4688571
  71.6440462  45.3113326 120.7121124  72.4698482  45.0117098 120.3319767
  71.2934514  44.5420949 121.1610912  76.6121995  44.6639795 122.7818797
  75.9902004  44.0010500 122.4821025  77.2826862  44.6900926 122.0992445
  69.8449067  43.2299653 121.6710057  69.0080975  42.8021827 121.4894059
  69.8172712  43.4232096 122.6080848  76.6846522  33.1421583 132.3751303
  76.7334678  34.0183705 131.9929073  77.2269037  32.5998976 131.8022947
  87.1701368  43.6862706 131.6552440  86.3796912  43.6686845 131.1156940
  86.9334723  44.2251000 132.4101477  87.2899243  40.5355172 128.9685169
  87.3397248  40.3705180 129.9100692  87.1813166  39.6682431 128.5783050
  76.1735502  43.2143718 116.2577258  76.3223622  43.8979182 115.6043931
  76.9801945  43.1948808 116.7726714  84.5803005  36.5186100 130.2844476
  85.4812868  36.3792565 129.9928473  84.6550980  36.6840555 131.2242653
  78.9145811  33.8952955 129.1297662  78.0449120  34.1886521 128.8580251
  79.1505291  34.4793400 129.8504926  88.7917440  42.9552114 129.2127190
  88.5002248  43.3182094 130.0490651  88.1789571  42.2419122 129.0340523
  89.9913122  40.5204993 121.7329761  90.8260014  40.9594798 121.8967321
  90.1272251  40.0443647 120.9138006  87.0404628  38.0784728 127.6807248
  87.5158750  38.2712375 126.8726100  86.1170194  38.1343914 127.4350632
  73.9288135  39.2408896 117.2638327  73.6834177  38.3371226 117.4618537
  74.0984049  39.2426046 116.3217805  81.6184845  30.1132572 126.6463082
  82.1366788  30.8493599 126.3209571  81.2639977  30.4196565 127.4809841
  73.1983782  34.9737253 114.7624488  72.5053027  35.0481608 114.1064524
  72.9535534  34.2097597 115.2846005  81.8697439  26.5332854 122.1663979
  82.1499193  25.8656044 122.7924405  82.6548046  26.7261950 121.6538643
  79.6730907  45.7091848 113.7289005  79.1004874  46.3282035 113.2759477
  80.2463701  46.2591210 114.2628927  85.7406297  34.9550488 125.9135554
  86.6923720  35.0548586 125.9347778  85.5709748  34.1628757 126.4233638
  83.7620677  32.0406072 126.0994955  83.1670609  32.3211084 125.4041444
  83.4770373  32.5299973 126.8711696  82.8928167  45.9928998 114.8597588
  83.8258840  45.9274560 115.0630463  82.8051380  46.8285265 114.4012120
  85.5216184  45.3094869 111.8201535  85.4429815  44.9754732 112.7137293
  86.3425851  45.8016637 111.8193007  88.2194375  38.1756608 125.0277854
  88.1870695  37.2372609 125.2137538  88.8294999  38.2540645 124.2943679
  80.0577706  37.0452661 111.0705058  81.0036811  36.9158869 111.1393476
  79.6791951  36.3067323 111.5474486  88.3688863  34.9667652 125.0736137
  87.8527912  34.1826108 124.8866066  89.2528812  34.6386368 125.2382656
  86.0299590  28.7108667 121.0331950  85.8324411  28.4023755 121.9175282
  86.6399296  29.4370306 121.1629879  94.0370925  39.2372615 124.1683891
  94.7674313  38.9757903 124.7291594  93.4277870  38.5001337 124.2085958
  92.1186222  37.3780478 124.7658342  91.3919385  37.2436442 124.1574833
  91.7033509  37.6857306 125.5715060  79.9416398  41.0970407 132.5305715
  80.8619408  41.2749006 132.7245761  79.9065981  40.1526453 132.3785414
  78.2420623  34.9702637 111.0059943  77.3352078  34.6735750 111.0822657
  78.5196604  34.6732456 110.1394229  69.1598563  36.2909001 121.4558989
  68.8401348  35.4374309 121.1633363  68.6131992  36.5057579 122.2116957
  72.9378471  39.0071442 125.1728496  73.1564481  39.9388550 125.1916530
  73.3504245  38.6479416 125.9583300  79.8582689  29.5139527 117.1604184
  79.0483417  29.1686612 117.5359430  80.5467106  29.2047071 117.7491796
  81.7873237  28.5917574 118.7828481  82.3404276  29.0113027 119.4418504
  82.0243323  27.6653322 118.8251437  77.8106336  34.5804648 134.5631245
  77.7103063  35.5299005 134.4943336  77.5927878  34.2522887 133.6907315
  77.0119408  31.8289573 111.1471922  77.8738572  32.1544471 111.4067740
  77.1969752  31.0421069 110.6344988  69.0286823  39.9111912 123.4252111
  68.3350295  39.4965865 122.9122065  69.7759814  39.9532449 122.8285530
  85.1652044  30.7018099 118.2907145  84.5850713  31.3602903 117.9085198
  84.8987977  29.8795444 117.8794563  83.6155610  30.1023157 120.4928466
  84.1155389  30.2139691 119.6842784  84.2591218  29.7984210 121.1329274
  77.6737606  38.0101786 133.3796306  77.1904688  38.8102147 133.5860196
  77.7598545  38.0209731 132.4263750  70.9423566  39.8430166 121.3018126
  70.9194254  39.9417853 120.3500009  71.2524202  40.6895317 121.6235292
  73.6010944  41.9006321 125.4164740  74.5554197  41.8690264 125.3494672
  73.4023467  41.4396945 126.2314966  74.1910326  40.4707437 127.9835538
  75.0103215  40.9651516 128.0070375  74.4647134  39.5539405 127.9553105
  83.9476922  32.8618190 117.3463493  83.0602777  33.1467840 117.1283688
  84.3630911  32.7011953 116.4990770  87.2991458  32.8864711 121.0617833
  88.0751848  33.3761163 121.3342450  86.5739592  33.3122765 121.5189702
  89.7364017  33.5992330 122.1191773  90.3308508  33.3588066 121.4085082
  89.8090601  32.8799460 122.7465310  71.9561173  47.4425941 122.4334938
  71.8215640  46.6826342 121.8672936  71.5393235  48.1666841 121.9663727
  83.0920136  42.6262864 111.4411513  83.7955986  42.8312867 112.0569169
  82.3682784  43.1939626 111.7060597  83.9217946  38.3772725 117.5613784
  83.8653147  38.8341277 116.7221416  84.4746288  37.6163410 117.3836626
  87.7322752  34.1662457 118.3863903  87.4759686  33.7659093 119.2172111
  87.1075620  34.8806251 118.2614042  92.0435090  36.9058531 120.8935195
  91.4834648  36.9751720 121.6666757  91.4378593  36.7299515 120.1734691
  75.1130298  48.3395258 122.6453381  74.9962683  49.2840690 122.5432071
  74.2922745  48.0368819 123.0339180  85.0006833  43.0645393 113.4909973
  85.8352437  42.6326592 113.3087448  84.8391176  42.8927407 114.4186868
  84.6552725  39.5677507 114.8566313  84.6001529  39.4021778 113.9154757
  84.0298780  40.2753540 115.0128502  69.4445240  34.8045571 128.6827735
  70.0904104  34.2944525 129.1714960  69.2362391  35.5414253 129.2571160
  81.9698632  41.8726419 134.1819876  82.8389792  42.0467071 133.8206510
  81.4905384  42.6920835 134.0595605  77.9648851  29.0685616 114.4351631
  77.9527520  30.0127456 114.5919902  78.8572272  28.8855761 114.1411092
  76.1384813  48.9923520 125.8609309  77.0412059  49.0247130 126.1775804
  75.9122183  48.0623971 125.8755645  77.8938415  47.7454506 122.5219388
  76.9434046  47.7456368 122.4083760  78.1970901  46.9987241 122.0055422
  81.7800970  25.6628392 118.6897568  81.0133366  25.1086879 118.8354250
  82.1911675  25.7350261 119.5511720  93.6291108  53.5815045 123.5865150
  94.2669518  53.4621792 122.8828490  93.5111951  54.5295888 123.6453102
  90.4380814  53.5342473 123.5226675  90.0999326  53.4183537 122.6347210
  91.3070583  53.1333638 123.5027681  86.2967630  55.3877949 119.5123566
  85.7332495  55.2967886 118.7439854  86.1820025  54.5677853 119.9926058
  90.9200597  54.6877324 129.4812880  90.9089238  54.2930123 128.6093384
  91.0821237  53.9543397 130.0746652  83.8432062  56.8829141 122.3507786
  84.6353354  56.5419965 121.9354086  84.0828712  56.9924116 123.2709940
  91.8767189  59.0548917 114.8238031  91.2255168  59.6402997 114.4372045
  92.6711552  59.5855112 114.8833068  85.8022816  56.1438054 115.2225165
  86.5753692  55.5967041 115.0838041  86.1548215  57.0082303 115.4339627
  87.6407858  57.4714436 128.4292064  87.3497724  58.3760067 128.3138731
  88.2764843  57.5130964 129.1436134  88.5664065  54.8491285 125.0193424
  89.1627638  54.6247307 124.3050387  88.6239037  54.1076030 125.6218872
  88.1389094  52.3030720 112.8543615  88.3914614  51.7812241 112.0927078
  87.2013653  52.1396865 112.9570299  93.1832377  51.3066498 120.6618358
  93.9695466  50.8885922 120.3108775  93.4471081  52.2112591 120.8300007
  93.3542454  56.7439349 115.3607015  92.7188287  56.8173975 116.0727920
  93.0239860  57.3332948 114.6826094  98.5840804  51.2441732 121.5651337
  99.3165976  50.6740948 121.7989166  97.8280159  50.8563332 122.0057842
  87.8585382  54.2058826 115.0567990  87.7421641  53.5303729 115.7249074
  87.9687642  53.7191200 114.2400143  90.2016923  53.6668973 118.7614679
  89.8375131  53.1399594 119.4727601  91.0584039  53.2767442 118.5881165
  96.1066224  44.9563306 126.0245945  95.7749549  45.8258717 125.8007160
  95.5111837  44.6399590 126.7039976  89.8422410  48.6958873 113.7576028
  90.0096813  49.5639109 114.1246499  89.6519579  48.8586154 112.8337317
  92.5997744  57.1575852 125.4241858  92.2998467  58.0600890 125.3157665
  92.2548803  56.8908035 126.2763011  86.0510225  53.6089649 121.4578563
  85.1260721  53.4765863 121.6656254  86.2994638  54.3883868 121.9548505
  95.9994887  49.6758392 123.1039295  95.0911765  49.6073800 122.8098056
  95.9482483  50.1530337 123.9321121  89.8211631  51.1516530 114.7422695
  89.7011256  51.5973581 115.5808175  89.1264220  51.5001848 114.1836233
  83.4119036  53.2522922 122.2922352  83.5411417  53.5057401 123.2061763
  82.7316487  53.8450630 121.9727007  87.5818523  63.9220172 118.3912826
  87.5042553  64.8727997 118.4701306  86.9780167  63.5766045 119.0487752
  90.0735753  51.0948037 131.0474193  89.2969087  51.6541958 131.0377057
  90.7126316  51.5804820 131.5689063  97.8656534  47.8774830 124.8817169
  97.2230914  48.1707363 124.2356964  97.3611462  47.7627751 125.6870366
  95.5196697  51.6238003 115.5703029  96.4314553  51.8565390 115.3950726
  95.0106344  52.2075048 115.0078107  88.3282125  53.9033491 130.6092160
  89.0696810  54.4418535 130.3326983  87.6219111  54.5299780 130.7663712
  93.8037465  56.0462631 129.2064321  94.2120821  55.6045042 128.4618954
  93.0814727  55.4715259 129.4598514  90.1568535  50.9835238 126.5797878
  91.0029730  51.4074652 126.7232527  90.0967173  50.3268862 127.2736441
  94.1266280  56.6063822 122.9616610  93.4975142  56.7709536 122.2592678
  93.7391942  57.0205431 123.7327574  98.0055512  57.5418260 120.3160974
  97.3206550  57.9217161 119.7658007  98.0899361  58.1513586 121.0492922
  93.3067980  48.6439606 128.2379052  93.0628912  49.3981667 127.7013327
  93.5827911  49.0224954 129.0726299  95.2606443  55.1878219 126.9156317
  95.4723338  55.8309979 126.2390698  95.2136191  54.3540535 126.4478247
  92.8632672  47.7996039 123.8192890  92.0017151  48.0977293 124.1109627
  92.8895107  48.0166438 122.8873922  89.6794242  56.3438230 120.2266695
  90.1432587  56.6225933 119.4371318  89.4151040  55.4421675 120.0439786
  86.5718323  55.8909712 123.1646458  87.1419680  56.3196980 122.5263943
  87.1626434  55.6092296 123.8630644  88.6163128  52.4661382 117.0356260
  89.3187171  52.9182426 117.5030187  88.2843756  51.8245201 117.6636153
  87.0643489  51.0573139 131.4107470  86.4342150  51.7389420 131.6442867
  86.9579577  50.9456221 130.4660608  82.3588462  50.7244935 122.3373394
  81.5687516  50.9802464 121.8613505  82.8499709  51.5393273 122.4425434
  96.3752271  58.0650174 125.0878675  97.1969715  57.6630361 124.8061356
  96.3714674  57.9618408 126.0394791  84.3103207  51.0889514 119.2956871
  83.5134370  51.2008209 119.8140366  84.0828799  51.4276166 118.4297761
  90.1408875  57.6134217 127.2439385  90.2053307  58.0754625 128.0797557
  89.4319798  56.9831582 127.3721695  80.6426165  50.9775425 124.7688385
  80.8934203  51.8622435 125.0345961  81.1785713  50.7980027 123.9963477
 104.4658264  54.4088923 121.4363646 103.7121973  53.8396321 121.2807651
 104.6005805  54.3751587 122.3834281  89.8556892  59.2802325 117.1118366
  89.7202567  60.1253861 117.5403213  90.3966705  59.4821603 116.3484299
  86.3424232  45.3593905 133.7732721  85.9491177  44.8060103 134.4480365
  87.1590372  45.6704483 134.1639238  83.3086290  56.7977763 117.6846291
  83.8210810  57.5921013 117.8351855  83.9609002  56.1004053 117.6179892
  85.1181174  59.9143519 119.7669044  85.2947803  60.8361484 119.5790028
  85.9138008  59.6001939 120.1963424  89.2592193  46.7751784 131.3652977
  90.0001906  47.3758937 131.2857440  89.4910116  46.0329422 130.8071020
  84.4033531  51.9608151 129.6431207  84.2887046  51.0593408 129.9438306
  83.5478049  52.2071848 129.2916024  91.4825369  59.9025891 131.2418708
  91.0389223  59.1162270 130.9239612  92.1442582  60.0905042 130.5762598
  86.2412490  61.4321693 125.7679386  86.7919915  61.3038756 124.9956380
  85.4023966  61.7316582 125.4174279  93.5806607  60.1828691 129.2700109
  93.5625082  61.0037572 128.7780378  94.5026527  60.0582767 129.4950250
  90.0379661  57.6972821 130.1123617  90.5707998  56.9361109 129.8822925
  89.5093742  57.4046473 130.8547772  93.2049356  42.8032887 125.6417259
  92.8613625  43.6934529 125.5656370  93.5728318  42.6134544 124.7786844
  81.2735206  55.1266417 118.4605861  82.1110428  55.5363426 118.2439569
  81.4513474  54.1865859 118.4306055  93.1699639  52.7941498 114.1489694
  92.6546262  53.5646103 114.3878082  92.8976947  52.1206634 114.7722756
  90.7546750  47.6391199 119.2074932  89.8988346  47.2498049 119.0280571
  91.1673701  47.7183160 118.3474718  92.2845896  45.1737542 123.6066492
  91.7810692  45.1367677 122.7934298  92.5776503  46.0830285 123.6663149
  88.5288782  45.2576272 122.6132674  89.3941779  45.0619080 122.2538563
  88.5966291  45.0286624 123.5402031  98.1433913  55.5473853 116.0842868
  97.3663355  55.2085012 115.6398030  98.8225394  55.5526476 115.4097833
  92.9585942  50.6668590 115.9749475  92.6536077  50.9814739 116.8259618
  93.9116384  50.7450010 116.0176808  91.4032374  56.8258813 117.6242429
  90.8753735  56.0911573 117.3115667  90.9019876  57.6033490 117.3782398
  96.3825220  55.0207834 122.7409476  95.7248894  55.7107095 122.8289604
  97.1865619  55.4104266 123.0843462  86.1351101  47.4878480 119.9849041
  86.7094853  47.2653661 119.2522234  86.7222084  47.5567174 120.7377642
  95.1930678  53.3752207 120.7913417  95.7062560  54.0082198 121.2935127
  95.8431902  52.7753402 120.4256777  86.4620688  49.5182941 114.0044926
  85.6258001  49.8557627 114.3254201  86.3225458  49.3831920 113.0672063
  88.4373769  44.3619729 118.7124110  87.7838181  44.0468746 118.0880725
  88.3954243  43.7395469 119.4383933  89.5484974  54.6439024 110.6277402
  88.6412035  54.4128277 110.8268551  90.0456006  53.8476643 110.8151384
  92.4553053  63.3536531 113.5474088  91.7814751  63.6568228 114.1559046
  92.8418875  64.1565611 113.1979546  91.6711509  50.8501662 123.0371758
  90.7534071  51.0716609 122.8793446  92.0871653  50.9247973 122.1783465
  92.4546557  52.2493078 118.1674438  93.2018376  52.7614475 117.8581560
  92.7238147  51.9277131 119.0278832  90.7273207  54.7451619 115.1501392
  89.8184426  54.4610651 115.2473862  90.7568291  55.1650697 114.2904699
  95.9592475  58.3558208 118.9192560  95.5054802  57.5149118 118.9757750
  95.3286441  58.9919606 119.2567340  94.9025394  49.2850194 120.1493227
  94.1648151  48.7727580 120.4803470  95.1552168  48.8450576 119.3376504
  94.4025414  60.1934705 119.8542378  94.6948388  60.7539762 119.1354744
  94.9124034  60.4863266 120.6095537  95.0037021  42.0626446 120.7434997
  95.3095898  41.2023809 120.4560912  95.7289626  42.6544066 120.5433991
  81.2961378  52.4657133 119.1316595  81.0985777  51.8726493 118.4067661
  80.7408042  52.1609343 119.8492533  89.2758101  52.3580239 121.2511188
  89.3306711  51.4054076 121.1753664  88.4649303  52.5139678 121.7352486
  90.4249295  56.2860362 112.4889471  89.9868725  55.5696221 112.0295108
  91.1659736  56.5136477 111.9274562  87.2150461  50.9757299 119.0101567
  86.4018327  51.2751469 119.4166759  87.7109455  50.5812988 119.7276049
  89.3659039  60.9715056 120.9435831  89.3235218  61.1975902 120.0144363
  90.2821738  60.7378430 121.0921632  92.8124673  51.4399123 127.8416461
  93.1674061  51.6670596 128.7010926  93.4596804  51.7717500 127.2193716
  98.5422410  54.5617559 118.5465790  98.4040308  54.7519155 117.6186979
  98.1858629  55.3236942 119.0033841  86.7064536  48.5475654 124.6262802
  87.3463915  48.4064413 123.9285765  85.8742066  48.2610168 124.2501404
  98.5691789  56.6294086 123.5577061  99.0028296  56.5369375 124.4060115
  99.2823370  56.6051587 122.9197077  87.4824840  57.8478085 120.7397794
  88.2765438  57.3528405 120.5380369  86.7716532  57.3195948 120.3765500
  92.3019684  60.2296180 125.0910162  92.3556707  60.7987117 125.8587878
  91.4334466  60.3998065 124.7264199  83.7907603  51.9921167 116.8157547
  82.8605191  51.9305622 117.0327509  83.8865075  51.4697119 116.0194188
  83.7093152  48.5175979 119.4035788  83.9699970  49.4321313 119.2944949
  84.5310325  48.0500422 119.5532401  85.1818078  49.9313737 126.5734613
  85.8541131  49.7231099 125.9247262  84.3547864  49.7335823 126.1339845
  99.4307339  56.6717787 126.0909946  99.6243229  57.5763597 126.3369221
  99.3307957  56.2125206 126.9248531  91.0843650  46.5575677 128.5900274
  90.4371565  47.2565627 128.4964750  91.8544665  46.9911821 128.9576522
  94.4922448  56.8224530 131.6650827  94.3407954  56.5935081 130.7480911
  94.4827127  57.7795131 131.6782172  91.2607784  54.3956442 126.6497093
  92.1899844  54.5467602 126.4766061  90.8398814  54.4840463 125.7945740
  90.0596116  58.4207107 124.4195631  89.9207201  58.0525891 125.2921569
  89.2710712  58.9354746 124.2479589  90.6544268  63.5216203 115.7621168
  90.8296023  63.0504246 116.5766790  89.9677056  64.1481969 115.9902428
  91.6101331  57.7988709 121.8084469  91.2751164  57.7589479 122.7042119
  91.1105277  57.1333425 121.3354879  85.5845575  53.2056340 127.3337050
  85.4465373  52.4736578 127.9348589  86.4950498  53.1165240 127.0521238
  94.5460523  55.1444744 112.0821529  93.9289693  54.4191572 111.9854581
  94.0777011  55.9054104 111.7388603  88.2127876  52.9176299 126.8220730
  88.9227494  52.2769491 126.7807348  88.1697184  53.1689194 127.7446910
  96.2014654  59.8543652 129.7427309  96.1427200  59.1702872 129.0757892
  96.6034173  60.5962642 129.2907935  86.9256810  49.9041517 128.6416369
  86.3894167  49.4532255 129.2937966  86.3373518  50.0387426 127.8986834
  85.2205353  66.6705566 122.5361028  85.4601951  67.3024090 123.2140046
  84.3774550  66.3193606 122.8226387  86.3359068  49.3630168 111.2042833
  85.4588535  49.2418969 110.8405080  86.8116822  48.5716246 110.9521721
  96.2032062  57.8183236 127.9741289  95.3158840  57.4809158 128.0967687
  96.7730613  57.0866267 128.2110054  77.8561209  54.1507328 121.2984340
  78.5432248  53.8369058 120.7105355  77.7009337  55.0548692 121.0251591
  82.6595931  49.0397524 125.7269364  82.5754120  48.4323194 124.9919774
  81.8378637  49.5306543 125.7278860  89.7333215  62.4784688 124.9402532
  89.6603386  63.2839660 125.4521836  89.2910608  62.6776654 124.1150553
  89.5222995  61.7156458 118.4505353  88.7390516  62.2578139 118.5443578
  90.2215740  62.2330438 118.8499595  92.8319645  47.5251088 121.0939559
  93.3288344  46.7721050 120.7740629  92.0606626  47.5615405 120.5282768
 100.6849402  53.2291453 122.7357850 100.6739278  54.1116169 122.3651783
  99.8166781  52.8763004 122.5412387  92.1931898  62.3771522 127.0960690
  92.9059871  63.0118987 127.0236592  91.7021927  62.4735388 126.2800692
  93.9149425  56.2822775 118.6677982  92.9805704  56.4024238 118.4982686
  94.0926094  55.3795242 118.4037992  89.4154613  49.6668471 120.8211243
  89.0452401  49.1139511 121.5092149  89.9113706  49.0626604 120.2686243
  97.3021977  52.1240094 119.2028016  97.7682429  52.9568086 119.1288319
  97.7529477  51.6585076 119.9073275  87.2443812  60.1265966 127.9166261
  87.9453271  60.7602449 128.0695656  86.7738927  60.4680697 127.1561901
  95.3698208  58.4683916 116.2014168  95.6458052  58.3540510 117.1108042
  94.5002707  58.0701401 116.1626341  95.2738639  44.4920681 123.2418918
  94.3601719  44.7224908 123.4101125  95.7031741  44.5759126 124.0932950
  95.0445098  52.6810573 125.7418812  94.3916548  52.9286481 125.0871264
  95.4225478  51.8674712 125.4081289  92.0052272  62.7170267 119.8446982
  92.1874666  61.8991923 120.3074734  92.8285258  62.9337959 119.4071872
  92.3394437  61.6438452 117.1062030  92.8682204  61.1330906 116.4932193
  92.6022657  61.3280982 117.9707563  91.0932671  53.4230384 132.2284849
  90.4173308  53.3224514 132.8987224  91.9160305  53.2669598 132.6920846
  82.8411530  59.6602321 124.8497364  83.4264967  58.9146009 124.9825268
  82.6436368  59.9706278 125.7334028  85.6950185  62.6953568 119.8659806
  85.0260561  63.1799696 119.3823846  85.5563055  62.9422789 120.7803185
  77.4329185  52.2307921 123.5701807  77.4713284  51.6971512 124.3638925
  76.9269478  51.7043127 122.9512784  89.8355454  64.7297312 126.4642465
  90.3873762  64.8928933 127.2291550  90.1761647  65.3201750 125.7922490
  84.8119947  47.0772462 127.0664349  84.8761274  47.9387293 126.6541747
  84.7487067  46.4646463 126.3336708  84.2872220  49.1495594 130.7137384
  84.9144258  48.7672672 131.3274908  83.4300138  48.9309796 131.0793076
  94.6866328  59.5558569 132.3191119  95.2306232  60.1688528 131.8246074
  94.1053173  60.1138148 132.8358132  81.0637762  50.9572023 116.6455738
  81.3591203  50.0482702 116.5922792  80.1625798  50.9359763 116.3236741
  92.9723841  62.6779287 123.4506147  92.8474981  61.8769027 122.9417092
  93.6302932  63.1725481 122.9620117  84.5932009  49.0328020 122.6283287
  83.8718595  49.6463988 122.4890760  85.3825265  49.5685785 122.5499933
  95.0358749  60.4788308 125.0785697  94.0889085  60.3593659 125.0064024
  95.3841523  59.5910806 125.1611958  87.3958323  46.3682446 128.9023939
  87.9192725  46.6144743 129.6650248  87.1770656  47.2002481 128.4827076
  82.7925604  48.6386121 116.7695064  82.4638310  47.7583500 116.5870170
  83.1464975  48.5833790 117.6571453  92.0405183  60.2741024 121.2790049
  91.8930145  59.3457731 121.4597619  92.8658676  60.2961114 120.7947124
  85.9067427  48.9259091 117.1370541  86.2463500  49.4545012 116.4149150
  86.3539548  49.2639497 117.9129108  95.6439305  61.0969582 122.3654922
  96.5685852  60.8912444 122.2279373  95.4754608  60.8485984 123.2744263
  88.6010868  47.3096142 126.5873609  88.2607688  46.5103955 126.9894289
  87.8949874  47.6097852 126.0150443  89.2527340  44.3945454 125.0400932
  90.0753409  43.9205932 124.9179823  89.4965403  45.1735938 125.5399619
  87.8935574  47.4233712 115.3363834  88.6143937  47.8014965 114.8327551
  87.2700878  48.1422589 115.4398812  92.0366697  48.1278861 116.2722166
  92.2530311  49.0103499 115.9710995  91.5560764  47.7365075 115.5427808
  86.7765918  51.0864575 122.8492911  86.6310499  51.4004878 123.7417193
  86.2991122  51.7049475 122.2963810  88.6362301  48.0767123 122.8973801
  88.6223870  47.1808216 122.5606099  89.3534729  48.0837786 123.5312087
  90.4888432  48.5104463 124.9426928  90.2306210  49.4321533 124.9411258
  89.9573472  48.1134897 125.6327392  95.4334621  61.6155250 117.7217013
  95.6071498  61.0501672 116.9690866  95.9263512  62.4156145 117.5396503
  81.2511581  53.6269919 125.7880572  80.7065049  54.4029727 125.9200847
  82.1290931  53.9740723 125.6299694  88.0399197  46.9581503 118.1661371
  88.1615108  46.0298149 118.3652258  87.7501240  46.9720189 117.2539686
  90.9090388  44.6436413 121.3028091  90.9312085  44.7075746 120.3480070
  91.3258447  43.8040922 121.4968597 101.2874012  54.3791673 119.3407313
 101.7305158  53.6298998 118.9426436 100.4100522  54.3701809 118.9581045
  96.4209793  60.9322014 114.8213912  97.1160698  61.5528707 115.0401226
  96.7632943  60.0817366 115.0966290  82.0377603  52.7539815 128.6810729
  81.2959339  52.9022451 129.2675359  81.7170347  53.0148081 127.8177478
  98.3201216  58.3821720 116.3501242  98.8452541  58.7208993 115.6250562
  98.2323569  57.4468735 116.1664377  89.9821265  62.2955794 128.4791119
  90.2908392  62.0504940 129.3513819  90.7796747  62.5002432 127.9909989
  90.0041877  64.4493703 120.7096496  89.5646867  63.9570082 121.4029352
  90.7549994  63.9066671 120.4688571  82.4834216  60.6405244 120.7121124
  83.3092236  60.3409016 120.3319767  82.1328268  59.8712866 121.1610912
  87.4515749  59.9931712 122.7818797  86.8295759  59.3302417 122.4821025
  88.1220616  60.0192844 122.0992445  80.6842821  58.5591570 121.6710057
  79.8474730  58.1313745 121.4894059  80.6566467  58.7524014 122.6080848
  87.5240277  48.4713500 132.3751303  87.5728432  49.3475623 131.9929073
  88.0662791  47.9290893 131.8022947  98.0095123  59.0154624 131.6552440
  97.2190666  58.9978762 131.1156940  97.7728477  59.5542917 132.4101477
  98.1292998  55.8647090 128.9685169  98.1791002  55.6997097 129.9100692
  98.0206921  54.9974349 128.5783050  87.0129256  58.5435636 116.2577258
  87.1617377  59.2271100 115.6043931  87.8195700  58.5240726 116.7726714
  95.4196760  51.8478018 130.2844476  96.3206623  51.7084483 129.9928473
  95.4944734  52.0132473 131.2242653  89.7539565  49.2244873 129.1297662
  88.8842875  49.5178439 128.8580251  89.9899046  49.8085318 129.8504926
  99.6311194  58.2844031 129.2127190  99.3396003  58.6474012 130.0490651
  99.0183326  57.5711040 129.0340523 100.8306877  55.8496911 121.7329761
 101.6653768  56.2886715 121.8967321 100.9666006  55.3735564 120.9138006
  97.8798383  53.4076646 127.6807248  98.3552504  53.6004292 126.8726100
  96.9563948  53.4635832 127.4350632  84.7681889  54.5700813 117.2638327
  84.5227931  53.6663143 117.4618537  84.9377804  54.5717964 116.3217805
  92.4578599  45.4424490 126.6463082  92.9760543  46.1785517 126.3209571
  92.1033732  45.7488483 127.4809841  84.0377537  50.3029171 114.7624488
  83.3446782  50.3773526 114.1064524  83.7929289  49.5389514 115.2846005
  92.7091193  41.8624772 122.1663979  92.9892947  41.1947961 122.7924405
  93.4941800  42.0553868 121.6538643  90.5124662  61.0383766 113.7289005
  89.9398629  61.6573953 113.2759477  91.0857455  61.5883128 114.2628927
  96.5800052  50.2842406 125.9135554  97.5317475  50.3840504 125.9347778
  96.4103502  49.4920675 126.4233638  94.6014431  47.3697989 126.0994955
  94.0064363  47.6503002 125.4041444  94.3164128  47.8591890 126.8711696
  93.7321922  61.3220916 114.8597588  94.6652595  61.2566478 115.0630463
  93.6445134  62.1577183 114.4012120  96.3609938  60.6386786 111.8201535
  96.2823570  60.3046650 112.7137293  97.1819605  61.1308554 111.8193007
  99.0588129  53.5048526 125.0277854  99.0264450  52.5664527 125.2137538
  99.6688753  53.5832563 124.2943679  90.8971460  52.3744579 111.0705058
  91.8430565  52.2450787 111.1393476  90.5185705  51.6359241 111.5474486
  99.2082618  50.2959569 125.0736137  98.6921667  49.5118026 124.8866066
 100.0922566  49.9678286 125.2382656  96.8693345  44.0400585 121.0331950
  96.6718166  43.7315673 121.9175282  97.4793050  44.7662224 121.1629879
 104.8764679  54.5664533 124.1683891 105.6068068  54.3049821 124.7291594
 104.2671625  53.8293255 124.2085958 102.9579976  52.7072395 124.7658342
 102.2313140  52.5728360 124.1574833 102.5427263  53.0149224 125.5715060
  90.7810153  56.4262325 132.5305715  91.7013162  56.6040924 132.7245761
  90.7459736  55.4818370 132.3785414  89.0814377  50.2994555 111.0059943
  88.1745833  50.0027668 111.0822657  89.3590358  50.0024373 110.1394229
  79.9992318  51.6200919 121.4558989  79.6795102  50.7666227 121.1633363
  79.4525746  51.8349497 122.2116957  83.7772225  54.3363360 125.1728496
  83.9958235  55.2680467 125.1916530  84.1897999  53.9771334 125.9583300
  90.6976443  44.8431445 117.1604184  89.8877171  44.4978530 117.5359430
  91.3860860  44.5338989 117.7491796  92.6266991  43.9209492 118.7828481
  93.1798030  44.3404945 119.4418504  92.8637078  42.9945240 118.8251437
  88.6500091  49.9096565 134.5631245  88.5496818  50.8590922 134.4943336
  88.4321633  49.5814804 133.6907315  87.8513162  47.1581490 111.1471922
  88.7132326  47.4836389 111.4067740  88.0363506  46.3712986 110.6344988
  79.8680578  55.2403830 123.4252111  79.1744049  54.8257783 122.9122065
  80.6153569  55.2824367 122.8285530  96.0045799  46.0310017 118.2907145
  95.4244468  46.6894821 117.9085198  95.7381731  45.2087361 117.8794563
  94.4549365  45.4315075 120.4928466  94.9549143  45.5431609 119.6842784
  95.0984973  45.1276127 121.1329274  88.5131361  53.3393704 133.3796306
  88.0298442  54.1394064 133.5860196  88.5992300  53.3501649 132.4263750
  81.7817320  55.1722084 121.3018126  81.7588008  55.2709771 120.3500009
  82.0917957  56.0187235 121.6235292  84.4404698  57.2298239 125.4164740
  85.3947952  57.1982181 125.3494672  84.2417222  56.7688863 126.2314966
  85.0304080  55.7999355 127.9835538  85.8496969  56.2943434 128.0070375
  85.3040888  54.8831323 127.9553105  94.7870677  48.1910107 117.3463493
  93.8996532  48.4759758 117.1283688  95.2024666  48.0303871 116.4990770
  98.1385213  48.2156628 121.0617833  98.9145603  48.7053081 121.3342450
  97.4133347  48.6414682 121.5189702 100.5757771  48.9284247 122.1191773
 101.1702262  48.6879983 121.4085082 100.6484355  48.2091378 122.7465310
  82.7954927  62.7717858 122.4334938  82.6609395  62.0118259 121.8672936
  82.3786989  63.4958758 121.9663727  93.9313890  57.9554782 111.4411513
  94.6349740  58.1604784 112.0569169  93.2076539  58.5231544 111.7060597
  94.7611700  53.7064643 117.5613784  94.7046902  54.1633195 116.7221416
  95.3140043  52.9455328 117.3836626  98.5716506  49.4954375 118.3863903
  98.3153440  49.0951011 119.2172111  97.9469374  50.2098169 118.2614042
 102.8828844  52.2350448 120.8935195 102.3228402  52.3043638 121.6666757
 102.2772347  52.0591433 120.1734691  85.9524053  63.6687175 122.6453381
  85.8356437  64.6132608 122.5432071  85.1316499  63.3660737 123.0339180
  95.8400587  58.3937311 113.4909973  96.6746191  57.9618510 113.3087448
  95.6784930  58.2219325 114.4186868  95.4946480  54.8969424 114.8566313
  95.4395283  54.7313696 113.9154757  94.8692535  55.6045457 115.0128502
  80.2838995  50.1337489 128.6827735  80.9297858  49.6236443 129.1714960
  80.0756146  50.8706170 129.2571160  92.8092387  57.2018336 134.1819876
  93.6783546  57.3758989 133.8206510  92.3299138  58.0212753 134.0595605
  88.8042605  44.3977533 114.4351631  88.7921275  45.3419373 114.5919902
  89.6966027  44.2147679 114.1411092  86.9778567  64.3215437 125.8609309
  87.8805814  64.3539048 126.1775804  86.7515937  63.3915888 125.8755645
  88.7332169  63.0746424 122.5219388  87.7827800  63.0748285 122.4083760
  89.0364655  62.3279158 122.0055422  92.6194725  40.9920310 118.6897568
  91.8527120  40.4378797 118.8354250  93.0305429  41.0642179 119.5511720
  84.6236486  47.2805106 132.7802749  85.4867947  46.9241911 132.9906074
  84.0501896  46.9419001 133.4678153 104.4684863  68.9106962 123.5865150
 105.1063272  68.7913710 122.8828490 104.3505705  69.8587806 123.6453102
 101.2774569  68.8634390 123.5226675 100.9393080  68.7475455 122.6347210
 102.1464337  68.4625555 123.5027681  97.1361384  70.7169867 119.5123566
  96.5726250  70.6259804 118.7439854  97.0213780  69.8969771 119.9926058
 101.7594352  70.0169242 129.4812880 101.7482993  69.6222040 128.6093384
 101.9214991  69.2835315 130.0746652  94.6825816  72.2121058 122.3507786
  95.4747108  71.8711883 121.9354086  94.9222467  72.3216033 123.2709940
 102.7160943  74.3840834 114.8238031 102.0648923  74.9694915 114.4372045
 103.5105306  74.9147029 114.8833068  96.6416570  71.4729972 115.2225165
  97.4147446  70.9258959 115.0838041  96.9941969  72.3374221 115.4339627
  98.4801613  72.8006354 128.4292064  98.1891479  73.7051985 128.3138731
  99.1158597  72.8422881 129.1436134  99.4057820  70.1783202 125.0193424
 100.0021392  69.9539225 124.3050387  99.4632791  69.4367948 125.6218872
  98.9782848  67.6322638 112.8543615  99.2308369  67.1104159 112.0927078
  98.0407407  67.4688783 112.9570299 104.0226131  66.6358416 120.6618358
 104.8089220  66.2177839 120.3108775 104.2864835  67.5404508 120.8300007
 104.1936208  72.0731266 115.3607015 103.5582041  72.1465893 116.0727920
 103.8633615  72.6624865 114.6826094 109.4234558  66.5733649 121.5651337
 110.1559730  66.0032866 121.7989166 108.6673914  66.1855250 122.0057842
  98.6979137  69.5350744 115.0567990  98.5815395  68.8595647 115.7249074
  98.8081397  69.0483118 114.2400143 101.0410678  68.9960891 118.7614679
 100.6768885  68.4691512 119.4727601 101.8977794  68.6059360 118.5881165
 106.9459978  60.2855223 126.0245945 106.6143303  61.1550634 125.8007160
 106.3505592  59.9691507 126.7039976 100.6816165  64.0250790 113.7576028
 100.8490567  64.8931027 114.1246499 100.4913334  64.1878072 112.8337317
 103.4391498  72.4867769 125.4241858 103.1392221  73.3892808 125.3157665
 103.0942558  72.2199953 126.2763011  96.8903979  68.9381566 121.4578563
  95.9654476  68.8057780 121.6656254  97.1388393  69.7175785 121.9548505
 106.8388642  65.0050310 123.1039295 105.9305519  64.9365718 122.8098056
 106.7876238  65.4822254 123.9321121 100.6605386  66.4808448 114.7422695
 100.5405011  66.9265499 115.5808175  99.9657974  66.8293766 114.1836233
  94.2512791  68.5814840 122.2922352  94.3805172  68.8349319 123.2061763
  93.5710242  69.1742548 121.9727007  98.4212278  79.2512090 118.3912826
  98.3436308  80.2019915 118.4701306  97.8173921  78.9057962 119.0487752
 100.9129508  66.4239955 131.0474193 100.1362842  66.9833875 131.0377057
 101.5520071  66.9096738 131.5689063 108.7050288  63.2066748 124.8817169
 108.0624668  63.4999281 124.2356964 108.2005217  63.0919668 125.6870366
 106.3590452  66.9529921 115.5703029 107.2708308  67.1857308 115.3950726
 105.8500099  67.5366965 115.0078107  99.1675880  69.2325408 130.6092160
  99.9090564  69.7710452 130.3326983  98.4612865  69.8591697 130.7663712
 104.6431220  71.3754549 129.2064321 105.0514576  70.9336959 128.4618954
 103.9208481  70.8007176 129.4598514 100.9962290  66.3127156 126.5797878
 101.8423485  66.7366569 126.7232527 100.9360927  65.6560780 127.2736441
 104.9660034  71.9355740 122.9616610 104.3368897  72.1001454 122.2592678
 104.5785696  72.3497349 123.7327574 108.8449266  72.8710177 120.3160974
 108.1600304  73.2509079 119.7658007 108.9293115  73.4805504 121.0492922
 104.1461735  63.9731524 128.2379052 103.9022667  64.7273585 127.7013327
 104.4221665  64.3516872 129.0726299 106.1000198  70.5170136 126.9156317
 106.3117093  71.1601896 126.2390698 106.0529946  69.6832453 126.4478247
 103.7026427  63.1287957 123.8192890 102.8410906  63.4269211 124.1109627
 103.7288861  63.3458356 122.8873922 100.5187996  71.6730148 120.2266695
 100.9826342  71.9517851 119.4371318 100.2544794  70.7713592 120.0439786
  97.4112077  71.2201629 123.1646458  97.9813434  71.6488898 122.5263943
  98.0020189  70.9384214 123.8630644  99.4556882  67.7953300 117.0356260
 100.1580925  68.2474344 117.5030187  99.1237511  67.1537119 117.6636153
  97.9037244  66.3865057 131.4107470  97.2735904  67.0681338 131.6442867
  97.7973332  66.2748138 130.4660608  93.1982216  66.0536853 122.3373394
  92.4081270  66.3094381 121.8613505  93.6893463  66.8685191 122.4425434
 107.2146026  73.3942092 125.0878675 108.0363469  72.9922279 124.8061356
 107.2108428  73.2910326 126.0394791  95.1496961  66.4181432 119.2956871
  94.3528125  66.5300126 119.8140366  94.9222554  66.7568084 118.4297761
 100.9802629  72.9426135 127.2439385 101.0447062  73.4046542 128.0797557
 100.2713553  72.3123500 127.3721695  91.4819919  66.3067343 124.7688385
  91.7327957  67.1914353 125.0345961  92.0179467  66.1271945 123.9963477
 115.3052019  69.7380840 121.4363646 114.5515727  69.1688238 121.2807651
 115.4399560  69.7043505 122.3834281 100.6950647  74.6094243 117.1118366
 100.5596322  75.4545778 117.5403213 101.2360459  74.8113520 116.3484299
  97.1817986  60.6885823 133.7732721  96.7884932  60.1352021 134.4480365
  97.9984127  60.9996401 134.1639238  94.1480044  72.1269681 117.6846291
  94.6604565  72.9212931 117.8351855  94.8002757  71.4295971 117.6179892
  95.9574929  75.2435437 119.7669044  96.1341557  76.1653402 119.5790028
  96.7531762  74.9293856 120.1963424 100.0985947  62.1043702 131.3652977
 100.8395661  62.7050855 131.2857440 100.3303870  61.3621339 130.8071020
  95.2427285  67.2900069 129.6431207  95.1280801  66.3885326 129.9438306
  94.3871803  67.5363766 129.2916024 102.3219123  75.2317809 131.2418708
 101.8782977  74.4454188 130.9239612 102.9836337  75.4196960 130.5762598
  97.0806244  76.7613611 125.7679386  97.6313669  76.6330674 124.9956380
  96.2417720  77.0608500 125.4174279 104.4200361  75.5120609 129.2700109
 104.4018837  76.3329490 128.7780378 105.3420281  75.3874684 129.4950250
 100.8773415  73.0264739 130.1123617 101.4101752  72.2653027 129.8822925
 100.3487496  72.7338390 130.8547772 104.0443110  58.1324805 125.6417259
 103.7007380  59.0226446 125.5656370 104.4122073  57.9426462 124.7786844
  92.1128961  70.4558335 118.4605861  92.9504183  70.8655343 118.2439569
  92.2907229  69.5157777 118.4306055 104.0093393  68.1233416 114.1489694
 103.4940016  68.8938020 114.3878082 103.7370701  67.4498552 114.7722756
 101.5940504  62.9683116 119.2074932 100.7382100  62.5789967 119.0280571
 102.0067456  63.0475077 118.3474718 103.1239651  60.5029460 123.6066492
 102.6204446  60.4659595 122.7934298 103.4170258  61.4122202 123.6663149
  99.3682537  60.5868189 122.6132674 100.2335533  60.3910998 122.2538563
  99.4360045  60.3578541 123.5402031 108.9827667  70.8765770 116.0842868
 108.2057110  70.5376930 115.6398030 109.6619148  70.8818393 115.4097833
 103.7979696  65.9960508 115.9749475 103.4929832  66.3106657 116.8259618
 104.7510138  66.0741928 116.0176808 102.2426128  72.1550731 117.6242429
 101.7147490  71.4203491 117.3115667 101.7413631  72.9325407 117.3782398
 107.2218974  70.3499752 122.7409476 106.5642648  71.0399013 122.8289604
 108.0259373  70.7396183 123.0843462  96.9744856  62.8170397 119.9849041
  97.5488608  62.5945579 119.2522234  97.5615838  62.8859092 120.7377642
 106.0324433  68.7044124 120.7913417 106.5456315  69.3374116 121.2935127
 106.6825657  68.1045320 120.4256777  97.3014443  64.8474858 114.0044926
  96.4651755  65.1849545 114.3254201  97.1619212  64.7123838 113.0672063
  99.2767523  59.6911646 118.7124110  98.6231936  59.3760663 118.0880725
  99.2347997  59.0687387 119.4383933 100.3878728  69.9730941 110.6277402
  99.4805790  69.7420195 110.8268551 100.8849760  69.1768561 110.8151384
 103.2946807  78.6828449 113.5474088 102.6208506  78.9860145 114.1559046
 103.6812629  79.4857529 113.1979546 102.5105264  66.1793580 123.0371758
 101.5927825  66.4008527 122.8793446 102.9265407  66.2539890 122.1783465
 103.2940311  67.5784995 118.1674438 104.0412130  68.0906393 117.8581560
 103.5631901  67.2569048 119.0278832 101.5666962  70.0743536 115.1501392
 100.6578181  69.7902569 115.2473862 101.5962045  70.4942615 114.2904699
 106.7986229  73.6850126 118.9192560 106.3448556  72.8441036 118.9757750
 106.1680196  74.3211524 119.2567340 105.7419149  64.6142112 120.1493227
 105.0041905  64.1019498 120.4803470 105.9945922  64.1742493 119.3376504
 105.2419168  75.5226622 119.8542378 105.5342143  76.0831679 119.1354744
 105.7517789  75.8155183 120.6095537 105.8430776  57.3918364 120.7434997
 106.1489653  56.5315727 120.4560912 106.5683381  57.9835984 120.5433991
  92.1355132  67.7949050 119.1316595  91.9379532  67.2018411 118.4067661
  91.5801796  67.4901260 119.8492533 100.1151856  67.6872157 121.2511188
 100.1700465  66.7345993 121.1753664  99.3043058  67.8431596 121.7352486
 101.2643049  71.6152280 112.4889471 100.8262479  70.8988139 112.0295108
 102.0053490  71.8428395 111.9274562  98.0544216  66.3049217 119.0101567
  97.2412081  66.6043387 119.4166759  98.5503210  65.9104905 119.7276049
 100.2052793  76.3006973 120.9435831 100.1628972  76.5267820 120.0144363
 101.1215492  76.0670348 121.0921632 103.6518427  66.7691041 127.8416461
 104.0067815  66.9962514 128.7010926 104.2990559  67.1009418 127.2193716
 109.3816164  69.8909477 118.5465790 109.2434063  70.0811073 117.6186979
 109.0252383  70.6528860 119.0033841  97.5458290  63.8767572 124.6262802
  98.1857670  63.7356331 123.9285765  96.7135821  63.5902085 124.2501404
 109.4085544  71.9586004 123.5577061 109.8422051  71.8661293 124.4060115
 110.1217125  71.9343504 122.9197077  98.3218594  73.1770002 120.7397794
  99.1159193  72.6820323 120.5380369  97.6110287  72.6487866 120.3765500
 103.1413439  75.5588098 125.0910162 103.1950461  76.1279034 125.8587878
 102.2728220  75.7289983 124.7264199  94.6301358  67.3213084 116.8157547
  93.6998946  67.2597540 117.0327509  94.7258830  66.7989037 116.0194188
  94.5486907  63.8467897 119.4035788  94.8093724  64.7613230 119.2944949
  95.3704079  63.3792340 119.5532401  96.0211832  65.2605654 126.5734613
  96.6934886  65.0523016 125.9247262  95.1941619  65.0627740 126.1339845
 110.2701093  72.0009705 126.0909946 110.4636983  72.9055515 126.3369221
 110.1701712  71.5417124 126.9248531 101.9237404  61.8867595 128.5900274
 101.2765319  62.5857545 128.4964750 102.6938420  62.3203739 128.9576522
 105.3316202  72.1516447 131.6650827 105.1801708  71.9226999 130.7480911
 105.3220882  73.1087049 131.6782172 102.1001538  69.7248360 126.6497093
 103.0293598  69.8759520 126.4766061 101.6792569  69.8132381 125.7945740
 100.8989870  73.7499024 124.4195631 100.7600956  73.3817809 125.2921569
 100.1104467  74.2646664 124.2479589 101.4938022  78.8508121 115.7621168
 101.6689778  78.3796164 116.5766790 100.8070810  79.4773887 115.9902428
 102.4495085  73.1280627 121.8084469 102.1144918  73.0881397 122.7042119
 101.9499031  72.4625343 121.3354879  96.4239329  68.5348257 127.3337050
  96.2859127  67.8028496 127.9348589  97.3344253  68.4457157 127.0521238
 105.3854277  70.4736662 112.0821529 104.7683448  69.7483490 111.9854581
 104.9170766  71.2346022 111.7388603  99.0521630  68.2468217 126.8220730
  99.7621249  67.6061409 126.7807348  99.0090938  68.4981111 127.7446910
 107.0408409  75.1835570 129.7427309 106.9820955  74.4994790 129.0757892
 107.4427927  75.9254560 129.2907935  97.7650564  65.2333434 128.6416369
  97.2287921  64.7824173 129.2937966  97.1767272  65.3679343 127.8986834
  96.0599108  81.9997484 122.5361028  96.2995706  82.6316008 123.2140046
  95.2168304  81.6485524 122.8226387  97.1752823  64.6922086 111.2042833
  96.2982289  64.5710887 110.8405080  97.6510576  63.9008164 110.9521721
 107.0425816  73.1475154 127.9741289 106.1552595  72.8101076 128.0967687
 107.6124367  72.4158185 128.2110054  88.6954963  69.4799246 121.2984340
  89.3826003  69.1660976 120.7105355  88.5403092  70.3840610 121.0251591
  93.4989685  64.3689442 125.7269364  93.4147874  63.7615112 124.9919774
  92.6772392  64.8598460 125.7278860 100.5726969  77.8076606 124.9402532
 100.4997141  78.6131578 125.4521836 100.1304362  78.0068572 124.1150553
 100.3616749  77.0448376 118.4505353  99.5784271  77.5870056 118.5443578
 101.0609494  77.5622356 118.8499595 103.6713399  62.8543006 121.0939559
 104.1682099  62.1012968 120.7740629 102.9000381  62.8907322 120.5282768
 111.5243157  68.5583371 122.7357850 111.5133033  69.4408087 122.3651783
 110.6560536  68.2054922 122.5412387 103.0325653  77.7063440 127.0960690
 103.7453625  78.3410905 127.0236592 102.5415682  77.8027306 126.2800692
 104.7543180  71.6114693 118.6677982 103.8199459  71.7316155 118.4982686
 104.9319848  70.7087160 118.4037992 100.2548368  64.9960389 120.8211243
  99.8846155  64.4431429 121.5092149 100.7507460  64.3918522 120.2686243
 108.1415731  67.4532012 119.2028016 108.6076183  68.2860004 119.1288319
 108.5923232  66.9876994 119.9073275  98.0837566  75.4557884 127.9166261
  98.7847026  76.0894367 128.0695656  97.6132681  75.7972615 127.1561901
 106.2091962  73.7975833 116.2014168 106.4851806  73.6832428 117.1108042
 105.3396461  73.3993318 116.1626341 106.1132394  59.8212599 123.2418918
 105.1995474  60.0516826 123.4101125 106.5425495  59.9051043 124.0932950
 105.8838852  68.0102491 125.7418812 105.2310303  68.2578399 125.0871264
 106.2619232  67.1966629 125.4081289 102.8446026  78.0462184 119.8446982
 103.0268421  77.2283840 120.3074734 103.6679012  78.2629877 119.4071872
 103.1788192  76.9730369 117.1062030 103.7075958  76.4622824 116.4932193
 103.4416411  76.6572900 117.9707563 101.9326425  68.7522302 132.2284849
 101.2567062  68.6516431 132.8987224 102.7554059  68.5961516 132.6920846
  93.6805285  74.9894239 124.8497364  94.2658721  74.2437927 124.9825268
  93.4830123  75.2998195 125.7334028  96.5343940  78.0245486 119.8659806
  95.8654315  78.5091614 119.3823846  96.3956809  78.2714707 120.7803185
  88.2722939  67.5599839 123.5701807  88.3107039  67.0263430 124.3638925
  87.7663232  67.0335044 122.9512784 100.6749208  80.0589230 126.4642465
 101.2267516  80.2220851 127.2291550 101.0155402  80.6493667 125.7922490
  95.6513702  62.4064379 127.0664349  95.7155028  63.2679210 126.6541747
  95.5880822  61.7938381 126.3336708  95.1265974  64.4787512 130.7137384
  95.7538013  64.0964589 131.3274908  94.2693893  64.2601714 131.0793076
 105.5260083  74.8850487 132.3191119 106.0699987  75.4980445 131.8246074
 104.9446927  75.4430066 132.8358132  91.9031517  66.2863941 116.6455738
  92.1984958  65.3774619 116.5922792  91.0019553  66.2651680 116.3236741
 103.8117596  78.0071205 123.4506147 103.6868735  77.2060945 122.9417092
 104.4696687  78.5017398 122.9620117  95.4325764  64.3619938 122.6283287
  94.7112350  64.9755905 122.4890760  96.2219020  64.8977702 122.5499933
 105.8752504  75.8080225 125.0785697 104.9282840  75.6885576 125.0064024
 106.2235277  74.9202723 125.1611958  98.2352077  61.6974364 128.9023939
  98.7586479  61.9436661 129.6650248  98.0164411  62.5294399 128.4827076
  93.6319358  63.9678039 116.7695064  93.3032065  63.0875418 116.5870170
  93.9858729  63.9125707 117.6571453 102.8798937  75.6032941 121.2790049
 102.7323900  74.6749649 121.4597619 103.7052431  75.6253032 120.7947124
  96.7461182  64.2551009 117.1370541  97.0857254  64.7836930 116.4149150
  97.1933302  64.5931415 117.9129108 106.4833059  76.4261500 122.3654922
 107.4079607  76.2204361 122.2279373 106.3148362  76.1777901 123.2744263
  99.4404622  62.6388059 126.5873609  99.1001443  61.8395872 126.9894289
  98.7343629  62.9389770 126.0150443 100.0921094  59.7237372 125.0400932
 100.9147164  59.2497850 124.9179823 100.3359158  60.5027855 125.5399619
  98.7329329  62.7525630 115.3363834  99.4537691  63.1306883 114.8327551
  98.1094633  63.4714507 115.4398812 102.8760452  63.4570779 116.2722166
 103.0924066  64.3395417 115.9710995 102.3954519  63.0656992 115.5427808
  97.6159673  66.4156492 122.8492911  97.4704254  66.7296795 123.7417193
  97.1384877  67.0341393 122.2963810  99.4756056  63.4059040 122.8973801
  99.4617625  62.5100134 122.5606099 100.1928484  63.4129704 123.5312087
 101.3282187  63.8396380 124.9426928 101.0699964  64.7613451 124.9411258
 100.7967227  63.4426815 125.6327392 106.2728375  76.9447168 117.7217013
 106.4465253  76.3793590 116.9690866 106.7657267  77.7448062 117.5396503
  92.0905335  68.9561837 125.7880572  91.5458803  69.7321645 125.9200847
  92.9684685  69.3032641 125.6299694  98.8792952  62.2873421 118.1661371
  99.0008863  61.3590067 118.3652258  98.5894994  62.3012107 117.2539686
 101.7484142  59.9728331 121.3028091 101.7705839  60.0367664 120.3480070
 102.1652201  59.1332840 121.4968597 112.1267767  69.7083591 119.3407313
 112.5698913  68.9590916 118.9426436 111.2494277  69.6993727 118.9581045
 107.2603548  76.2613932 114.8213912 107.9554452  76.8820625 115.0401226
 107.6026698  75.4109283 115.0966290  92.8771357  68.0831733 128.6810729
  92.1353093  68.2314368 129.2675359  92.5564101  68.3439999 127.8177478
 109.1594971  73.7113638 116.3501242 109.6846295  74.0500910 115.6250562
 109.0717323  72.7760653 116.1664377 100.8215020  77.6247711 128.4791119
 101.1302146  77.3796858 129.3513819 101.6190502  77.8294350 127.9909989
 100.8435632  79.7785621 120.7096496 100.4040622  79.2862000 121.4029352
 101.5943749  79.2358588 120.4688571  93.3227971  75.9697162 120.7121124
  94.1485991  75.6700934 120.3319767  92.9722023  75.2004784 121.1610912
  98.2909504  75.3223630 122.7818797  97.6689513  74.6594335 122.4821025
  98.9614371  75.3484762 122.0992445  91.5236576  73.8883488 121.6710057
  90.6868484  73.4605662 121.4894059  91.4960221  74.0815931 122.6080848
  98.3634031  63.8005418 132.3751303  98.4122187  64.6767541 131.9929073
  98.9056546  63.2582811 131.8022947 108.8488877  74.3446541 131.6552440
 108.0584421  74.3270680 131.1156940 108.6122232  74.8834835 132.4101477
 108.9686752  71.1939008 128.9685169 109.0184757  71.0289015 129.9100692
 108.8600675  70.3266267 128.5783050  97.8523011  73.8727553 116.2577258
  98.0011131  74.5563018 115.6043931  98.6589454  73.8532643 116.7726714
 106.2590514  67.1769936 130.2844476 107.1600377  67.0376400 129.9928473
 106.3338489  67.3424390 131.2242653 100.5933320  64.5536790 129.1297662
  99.7236629  64.8470356 128.8580251 100.8292800  65.1377235 129.8504926
 110.4704949  73.6135949 129.2127190 110.1789757  73.9765930 130.0490651
 109.8577080  72.9002957 129.0340523 111.6700631  71.1788829 121.7329761
 112.5047523  71.6178633 121.8967321 111.8059760  70.7027482 120.9138006
 108.7192137  68.7368564 127.6807248 109.1946259  68.9296210 126.8726100
 107.7957703  68.7927750 127.4350632  95.6075644  69.8992731 117.2638327
  95.3621686  68.9955061 117.4618537  95.7771558  69.9009881 116.3217805
 103.2972354  60.7716407 126.6463082 103.8154297  61.5077434 126.3209571
 102.9427486  61.0780401 127.4809841  94.8771291  65.6321088 114.7624488
  94.1840536  65.7065443 114.1064524  94.6323043  64.8681432 115.2846005
 103.5484948  57.1916690 122.1663979 103.8286702  56.5239879 122.7924405
 104.3335555  57.3845785 121.6538643 101.3518416  76.3675684 113.7289005
 100.7792383  76.9865871 113.2759477 101.9251210  76.9175045 114.2628927
 107.4193806  65.6134324 125.9135554 108.3711229  65.7132421 125.9347778
 107.2497257  64.8212592 126.4233638 105.4408186  62.6989907 126.0994955
 104.8458118  62.9794920 125.4041444 105.1557882  63.1883808 126.8711696
 104.5715676  76.6512834 114.8597588 105.5046349  76.5858395 115.0630463
 104.4838889  77.4869101 114.4012120 107.2003693  75.9678704 111.8201535
 107.1217324  75.6338568 112.7137293 108.0213360  76.4600472 111.8193007
 109.8981884  68.8340443 125.0277854 109.8658204  67.8956444 125.2137538
 110.5082508  68.9124480 124.2943679 101.7365215  67.7036496 111.0705058
 102.6824319  67.5742705 111.1393476 101.3579460  66.9651158 111.5474486
 110.0476372  65.6251487 125.0736137 109.5315421  64.8409944 124.8866066
 110.9316321  65.2970204 125.2382656 107.7087099  59.3692502 121.0331950
 107.5111920  59.0607591 121.9175282 108.3186805  60.0954141 121.1629879
 115.7158434  69.8956450 124.1683891 116.4461822  69.6341738 124.7291594
 115.1065379  69.1585172 124.2085958 113.7973731  68.0364313 124.7658342
 113.0706894  67.9020278 124.1574833 113.3821018  68.3441142 125.5715060
 101.6203907  71.7554243 132.5305715 102.5406917  71.9332842 132.7245761
 101.5853490  70.8110288 132.3785414  99.9208132  65.6286473 111.0059943
  99.0139587  65.3319586 111.0822657 100.1984113  65.3316291 110.1394229
  90.8386072  66.9492836 121.4558989  90.5188857  66.0958144 121.1633363
  90.2919500  67.1641414 122.2116957  94.6165980  69.6655277 125.1728496
  94.8351990  70.5972385 125.1916530  95.0291754  69.3063252 125.9583300
 101.5370198  60.1723363 117.1604184 100.7270926  59.8270448 117.5359430
 102.2254615  59.8630906 117.7491796 103.4660746  59.2501409 118.7828481
 104.0191785  59.6696863 119.4418504 103.7030832  58.3237157 118.8251437
  99.4893845  65.2388483 134.5631245  99.3890572  66.1882840 134.4943336
  99.2715387  64.9106722 133.6907315  98.6906917  62.4873408 111.1471922
  99.5526081  62.8128306 111.4067740  98.8757261  61.7004904 110.6344988
  90.7074332  70.5695748 123.4252111  90.0137804  70.1549701 122.9122065
  91.4547323  70.6116284 122.8285530 106.8439553  61.3601935 118.2907145
 106.2638222  62.0186739 117.9085198 106.5775486  60.5379279 117.8794563
 105.2943119  60.7606992 120.4928466 105.7942898  60.8723527 119.6842784
 105.9378727  60.4568045 121.1329274  99.3525115  68.6685622 133.3796306
  98.8692197  69.4685982 133.5860196  99.4386054  68.6793567 132.4263750
  92.6211075  70.5014002 121.3018126  92.5981763  70.6001689 120.3500009
  92.9311711  71.3479152 121.6235292  95.2798453  72.5590157 125.4164740
  96.2341706  72.5274099 125.3494672  95.0810976  72.0980780 126.2314966
  95.8697835  71.1291273 127.9835538  96.6890724  71.6235351 128.0070375
  96.1434643  70.2123241 127.9553105 105.6264431  63.5202025 117.3463493
 104.7390286  63.8051676 117.1283688 106.0418420  63.3595788 116.4990770
 108.9778967  63.5448546 121.0617833 109.7539357  64.0344998 121.3342450
 108.2527101  63.9706600 121.5189702 111.4151526  64.2576165 122.1191773
 112.0096017  64.0171901 121.4085082 111.4878110  63.5383296 122.7465310
  93.6348682  78.1009776 122.4334938  93.5003149  77.3410177 121.8672936
  93.2180744  78.8250676 121.9663727 104.7707645  73.2846700 111.4411513
 105.4743495  73.4896702 112.0569169 104.0470293  73.8523461 111.7060597
 105.6005455  69.0356561 117.5613784 105.5440656  69.4925112 116.7221416
 106.1533797  68.2747245 117.3836626 109.4110261  64.8246293 118.3863903
 109.1547195  64.4242928 119.2172111 108.7863129  65.5390087 118.2614042
 113.7222599  67.5642366 120.8935195 113.1622157  67.6335555 121.6666757
 113.1166102  67.3883351 120.1734691  96.7917807  78.9979093 122.6453381
  96.6750192  79.9424526 122.5432071  95.9710254  78.6952655 123.0339180
 106.6794342  73.7229229 113.4909973 107.5139946  73.2910427 113.3087448
 106.5178685  73.5511242 114.4186868 106.3340234  70.2261342 114.8566313
 106.2789038  70.0605614 113.9154757 105.7086289  70.9337375 115.0128502
  91.1232749  65.4629406 128.6827735  91.7691613  64.9528360 129.1714960
  90.9149900  66.1998088 129.2571160 103.6486141  72.5310254 134.1819876
 104.5177301  72.7050906 133.8206510 103.1692893  73.3504671 134.0595605
  99.6436360  59.7269451 114.4351631  99.6315029  60.6711291 114.5919902
 100.5359781  59.5439596 114.1411092  97.8172322  79.6507355 125.8609309
  98.7199568  79.6830965 126.1775804  97.5909692  78.7207806 125.8755645
  99.5725924  78.4038341 122.5219388  98.6221555  78.4040203 122.4083760
  99.8758410  77.6571076 122.0055422 103.4588479  56.3212228 118.6897568
 102.6920875  55.7670714 118.8354250 103.8699184  56.3934096 119.5511720
  95.4630240  62.6097024 132.7802749  96.3261702  62.2533828 132.9906074
  94.8895651  62.2710918 133.4678153 115.3078617  84.2398880 123.5865150
 115.9457027  84.1205627 122.8828490 115.1899460  85.1879724 123.6453102
 112.1168323  84.1926308 123.5226675 111.7786835  84.0767373 122.6347210
 112.9858091  83.7917473 123.5027681 107.9755139  86.0461784 119.5123566
 107.4120004  85.9551721 118.7439854 107.8607534  85.2261689 119.9926058
 105.5219571  87.5412976 122.3507786 106.3140863  87.2003801 121.9354086
 105.7616221  87.6507951 123.2709940 113.5554698  89.7132752 114.8238031
 112.9042677  90.2986833 114.4372045 114.3499061  90.2438947 114.8833068
 107.4810325  86.8021889 115.2225165 108.2541201  86.2550876 115.0838041
 107.8335724  87.6666139 115.4339627 110.2451574  85.5075120 125.0193424
 110.8415147  85.2831142 124.3050387 110.3026546  84.7659866 125.6218872
 109.8176603  82.9614555 112.8543615 110.0702123  82.4396077 112.0927078
 108.8801162  82.7980701 112.9570299 114.8619885  81.9650334 120.6618358
 115.6482975  81.5469757 120.3108775 115.1258590  82.8696426 120.8300007
 115.0329963  87.4023184 115.3607015 114.3975796  87.4757811 116.0727920
 114.7027369  87.9916783 114.6826094 120.2628313  81.9025567 121.5651337
 120.9953485  81.3324784 121.7989166 119.5067668  81.5147167 122.0057842
 109.5372891  84.8642661 115.0567990 109.4209150  84.1887565 115.7249074
 109.6475151  84.3775035 114.2400143 111.8804432  84.3252808 118.7614679
 111.5162640  83.7983429 119.4727601 112.7371548  83.9351277 118.5881165
 117.7853733  75.6147141 126.0245945 117.4537058  76.4842552 125.8007160
 117.1899346  75.2983425 126.7039976 111.5209919  79.3542708 113.7576028
 111.6884322  80.2222945 114.1246499 111.3307088  79.5169990 112.8337317
 107.7297734  84.2673484 121.4578563 106.8048230  84.1349698 121.6656254
 107.9782147  85.0467703 121.9548505 117.6782396  80.3342227 123.1039295
 116.7699274  80.2657636 122.8098056 117.6269992  80.8114172 123.9321121
 111.4999140  81.8100366 114.7422695 111.3798765  82.2557416 115.5808175
 110.8051729  82.1585683 114.1836233 105.0906545  83.9106757 122.2922352
 105.2198926  84.1641236 123.2061763 104.4103996  84.5034465 121.9727007
 109.2606032  94.5804007 118.3912826 109.1830062  95.5311832 118.4701306
 108.6567676  94.2349880 119.0487752 119.5444043  78.5358666 124.8817169
 118.9018423  78.8291199 124.2356964 119.0398971  78.4211586 125.6870366
 117.1984206  82.2821839 115.5703029 118.1102062  82.5149226 115.3950726
 116.6893853  82.8658883 115.0078107 111.8356044  81.6419073 126.5797878
 112.6817239  82.0658487 126.7232527 111.7754682  80.9852698 127.2736441
 114.5420181  78.4579875 123.8192890 113.6804660  78.7561128 124.1109627
 114.5682616  78.6750274 122.8873922 111.3581751  87.0022065 120.2266695
 111.8220096  87.2809768 119.4371318 111.0938549  86.1005510 120.0439786
 108.2505832  86.5493547 123.1646458 108.8207189  86.9780815 122.5263943
 108.8413943  86.2676132 123.8630644 110.2950637  83.1245218 117.0356260
 110.9974680  83.5766261 117.5030187 109.9631265  82.4829037 117.6636153
 104.0375971  81.3828770 122.3373394 103.2475025  81.6386299 121.8613505
 104.5287218  82.1977108 122.4425434 105.9890716  81.7473350 119.2956871
 105.1921879  81.8592044 119.8140366 105.7616308  82.0860002 118.4297761
 102.3213674  81.6359261 124.7688385 102.5721712  82.5206271 125.0345961
 102.8573222  81.4563862 123.9963477 111.5344401  89.9386160 117.1118366
 111.3990076  90.7837696 117.5403213 112.0754214  90.1405438 116.3484299
 104.9873799  87.4561598 117.6846291 105.4998319  88.2504849 117.8351855
 105.6396511  86.7587889 117.6179892 106.7968683  90.5727355 119.7669044
 106.9735312  91.4945319 119.5790028 107.5925517  90.2585774 120.1963424
 106.0821040  82.6191987 129.6431207 105.9674555  81.7177244 129.9438306
 105.2265558  82.8655683 129.2916024 114.8836865  73.4616722 125.6417259
 114.5401134  74.3518364 125.5656370 115.2515827  73.2718380 124.7786844
 102.9522715  85.7850253 118.4605861 103.7897937  86.1947261 118.2439569
 103.1300983  84.8449695 118.4306055 114.8487148  83.4525333 114.1489694
 114.3333771  84.2229938 114.3878082 114.5764456  82.7790469 114.7722756
 112.4334259  78.2975034 119.2074932 111.5775855  77.9081884 119.0280571
 112.8461210  78.3766995 118.3474718 113.9633405  75.8321377 123.6066492
 113.4598201  75.7951513 122.7934298 114.2564012  76.7414120 123.6663149
 110.2076291  75.9160107 122.6132674 111.0729288  75.7202916 122.2538563
 110.2753800  75.6870459 123.5402031 119.8221422  86.2057688 116.0842868
 119.0450864  85.8668847 115.6398030 120.5012903  86.2110311 115.4097833
 114.6373451  81.3252425 115.9749475 114.3323586  81.6398575 116.8259618
 115.5903893  81.4033845 116.0176808 113.0819883  87.4842649 117.6242429
 112.5541244  86.7495408 117.3115667 112.5807385  88.2617325 117.3782398
 107.8138610  78.1462315 119.9849041 108.3882362  77.9237497 119.2522234
 108.4009593  78.2151010 120.7377642 116.8718187  84.0336042 120.7913417
 117.3850069  84.6666034 121.2935127 117.5219411  83.4337237 120.4256777
 108.1408197  80.1766776 114.0044926 107.3045510  80.5141463 114.3254201
 108.0012967  80.0415756 113.0672063 110.1161278  75.0203564 118.7124110
 109.4625690  74.7052581 118.0880725 110.0741752  74.3979304 119.4383933
 111.2272483  85.3022859 110.6277402 110.3199544  85.0712112 110.8268551
 111.7243515  84.5060478 110.8151384 114.1340562  94.0120366 113.5474088
 113.4602260  94.3152063 114.1559046 114.5206384  94.8149447 113.1979546
 113.3499018  81.5085497 123.0371758 112.4321580  81.7300444 122.8793446
 113.7659162  81.5831808 122.1783465 114.1334066  82.9076913 118.1674438
 114.8805885  83.4198310 117.8581560 114.4025656  82.5860966 119.0278832
 112.4060716  85.4035454 115.1501392 111.4971935  85.1194487 115.2473862
 112.4355800  85.8234532 114.2904699 117.6379984  89.0142043 118.9192560
 117.1842311  88.1732953 118.9757750 117.0073950  89.6503442 119.2567340
 116.5812903  79.9434029 120.1493227 115.8435660  79.4311416 120.4803470
 116.8339677  79.5034411 119.3376504 116.0812923  90.8518540 119.8542378
 116.3735897  91.4123597 119.1354744 116.5911543  91.1447101 120.6095537
 116.6824530  72.7210281 120.7434997 116.9883407  71.8607645 120.4560912
 117.4077135  73.3127902 120.5433991 102.9748887  83.1240968 119.1316595
 102.7773286  82.5310329 118.4067661 102.4195551  82.8193178 119.8492533
 110.9545610  83.0164074 121.2511188 111.0094220  82.0637911 121.1753664
 110.1436812  83.1723514 121.7352486 112.1036804  86.9444198 112.4889471
 111.6656234  86.2280056 112.0295108 112.8447245  87.1720312 111.9274562
 108.8937970  81.6341134 119.0101567 108.0805836  81.9335305 119.4166759
 109.3896964  81.2396823 119.7276049 111.0446548  91.6298891 120.9435831
 111.0022727  91.8559737 120.0144363 111.9609247  91.3962266 121.0921632
 120.2209919  85.2201395 118.5465790 120.0827817  85.4102991 117.6186979
 119.8646138  85.9820777 119.0033841 108.3852045  79.2059490 124.6262802
 109.0251424  79.0648249 123.9285765 107.5529575  78.9194003 124.2501404
 109.1612349  88.5061920 120.7397794 109.9552947  88.0112240 120.5380369
 108.4504041  87.9779783 120.3765500 105.4695112  82.6505002 116.8157547
 104.5392700  82.5889457 117.0327509 105.5652584  82.1280955 116.0194188
 105.3880661  79.1759815 119.4035788 105.6487479  80.0905148 119.2944949
 106.2097834  78.7084257 119.5532401 106.8605587  80.5897572 126.5734613
 107.5328640  80.3814934 125.9247262 106.0335373  80.3919658 126.1339845
 112.7631159  77.2159513 128.5900274 112.1159074  77.9149462 128.4964750
 113.5332174  77.6495657 128.9576522 112.3331777  94.1800039 115.7621168
 112.5083532  93.7088082 116.5766790 111.6464565  94.8065805 115.9902428
 113.2888840  88.4572545 121.8084469 112.9538673  88.4173315 122.7042119
 112.7892786  87.7917261 121.3354879 107.2633084  83.8640175 127.3337050
 107.1252882  83.1320414 127.9348589 108.1738007  83.7749075 127.0521238
 116.2248032  85.8028579 112.0821529 115.6077202  85.0775407 111.9854581
 115.7564520  86.5637939 111.7388603 109.8915385  83.5760134 126.8220730
 110.6015003  82.9353326 126.7807348 109.8484693  83.8273029 127.7446910
 108.6044319  80.5625352 128.6416369 108.0681676  80.1116091 129.2937966
 108.0161027  80.6971261 127.8986834 108.0146577  80.0214003 111.2042833
 107.1376044  79.9002804 110.8405080 108.4904331  79.2300082 110.9521721
  99.5348718  84.8091163 121.2984340 100.2219757  84.4952893 120.7105355
  99.3796846  85.7132528 121.0251591 104.3383440  79.6981360 125.7269364
 104.2541628  79.0907029 124.9919774 103.5166146  80.1890378 125.7278860
 111.2010504  92.3740294 118.4505353 110.4178025  92.9161974 118.5443578
 111.9003249  92.8914273 118.8499595 114.5107154  78.1834923 121.0939559
 115.0075853  77.4304886 120.7740629 113.7394135  78.2199240 120.5282768
 115.5936934  86.9406611 118.6677982 114.6593213  87.0608073 118.4982686
 115.7713603  86.0379077 118.4037992 111.0942122  80.3252306 120.8211243
 110.7239910  79.7723347 121.5092149 111.5901215  79.7210440 120.2686243
 118.9809486  82.7823930 119.2028016 119.4469938  83.6151921 119.1288319
 119.4316986  82.3168911 119.9073275 117.0485717  89.1267751 116.2014168
 117.3245561  89.0124346 117.1108042 116.1790216  88.7285236 116.1626341
 116.9526148  75.1504517 123.2418918 116.0389228  75.3808744 123.4101125
 117.3819250  75.2342961 124.0932950 113.6839781  93.3754102 119.8446982
 113.8662175  92.5575758 120.3074734 114.5072767  93.5921794 119.4071872
 114.0181946  92.3022287 117.1062030 114.5469713  91.7914742 116.4932193
 114.2810166  91.9864817 117.9707563 104.5199039  90.3186156 124.8497364
 105.1052476  89.5729844 124.9825268 104.3223877  90.6290113 125.7334028
 107.3737694  93.3537404 119.8659806 106.7048069  93.8383531 119.3823846
 107.2350564  93.6006624 120.7803185  99.1116694  82.8891757 123.5701807
  99.1500793  82.3555347 124.3638925  98.6056987  82.3626962 122.9512784
 106.4907456  77.7356297 127.0664349 106.5548783  78.5971128 126.6541747
 106.4274576  77.1230299 126.3336708 105.9659729  79.8079430 130.7137384
 106.5931767  79.4256507 131.3274908 105.1087647  79.5893632 131.0793076
 102.7425271  81.6155859 116.6455738 103.0378712  80.7066537 116.5922792
 101.8413307  81.5943598 116.3236741 106.2719518  79.6911855 122.6283287
 105.5506104  80.3047823 122.4890760 107.0612774  80.2269620 122.5499933
 109.0745832  77.0266282 128.9023939 109.5980234  77.2728578 129.6650248
 108.8558165  77.8586317 128.4827076 104.4713113  79.2969956 116.7695064
 104.1425819  78.4167335 116.5870170 104.8252484  79.2417625 117.6571453
 113.7192692  90.9324859 121.2790049 113.5717654  90.0041567 121.4597619
 114.5446185  90.9544950 120.7947124 107.5854936  79.5842926 117.1370541
 107.9251009  80.1128847 116.4149150 108.0327057  79.9223332 117.9129108
 110.2798377  77.9679977 126.5873609 109.9395197  77.1687790 126.9894289
 109.5737383  78.2681688 126.0150443 110.9314849  75.0529289 125.0400932
 111.7540918  74.5789768 124.9179823 111.1752912  75.8319773 125.5399619
 109.5723083  78.0817548 115.3363834 110.2931446  78.4598801 114.8327551
 108.9488387  78.8006425 115.4398812 113.7154206  78.7862697 116.2722166
 113.9317820  79.6687335 115.9710995 113.2348273  78.3948910 115.5427808
 108.4553427  81.7448410 122.8492911 108.3098008  82.0588713 123.7417193
 107.9778631  82.3633310 122.2963810 110.3149810  78.7350958 122.8973801
 110.3011379  77.8392051 122.5606099 111.0322238  78.7421622 123.5312087
 112.1675941  79.1688298 124.9426928 111.9093719  80.0905369 124.9411258
 111.6360981  78.7718733 125.6327392 117.1122130  92.2739085 117.7217013
 117.2859007  91.7085508 116.9690866 117.6051021  93.0739980 117.5396503
 102.9299090  84.2853754 125.7880572 102.3852558  85.0613562 125.9200847
 103.8078439  84.6324559 125.6299694 109.7186706  77.6165338 118.1661371
 109.8402617  76.6881984 118.3652258 109.4288749  77.6304024 117.2539686
 112.5877897  75.3020249 121.3028091 112.6099593  75.3659582 120.3480070
 113.0045956  74.4624757 121.4968597 122.9661521  85.0375508 119.3407313
 123.4092667  84.2882833 118.9426436 122.0888031  85.0285645 118.9581045
 118.0997302  91.5905850 114.8213912 118.7948207  92.2112542 115.0401226
 118.4420452  90.7401201 115.0966290 103.7165111  83.4123651 128.6810729
 102.9746848  83.5606286 129.2675359 103.3957856  83.6731916 127.8177478
 119.9988725  89.0405555 116.3501242 120.5240050  89.3792828 115.6250562
 119.9111078  88.1052571 116.1664377 104.1621725  91.2989079 120.7121124
 104.9879745  90.9992851 120.3319767 103.8115777  90.5296702 121.1610912
 109.1303258  90.6515548 122.7818797 108.5083268  89.9886253 122.4821025
 109.8008125  90.6776679 122.0992445 102.3630330  89.2175406 121.6710057
 101.5262239  88.7897580 121.4894059 102.3353976  89.4107849 122.6080848
 108.6916765  89.2019471 116.2577258 108.8404886  89.8854935 115.6043931
 109.4983209  89.1824561 116.7726714 106.4469398  85.2284649 117.2638327
 106.2015440  84.3246979 117.4618537 106.6165313  85.2301799 116.3217805
 114.1366108  76.1008325 126.6463082 114.6548052  76.8369352 126.3209571
 113.7821241  76.4072318 127.4809841 105.7165046  80.9613006 114.7624488
 105.0234291  81.0357361 114.1064524 105.4716798  80.1973350 115.2846005
 114.3878702  72.5208607 122.1663979 114.6680456  71.8531797 122.7924405
 115.1729309  72.7137703 121.6538643 112.1912171  91.6967601 113.7289005
 111.6186138  92.3157789 113.2759477 112.7644964  92.2466963 114.2628927
 116.2801940  78.0281825 126.0994955 115.6851872  78.3086837 125.4041444
 115.9951637  78.5175726 126.8711696 115.4109431  91.9804752 114.8597588
 116.3440104  91.9150313 115.0630463 115.3232643  92.8161018 114.4012120
 118.0397447  91.2970622 111.8201535 117.9611079  90.9630485 112.7137293
 118.8607114  91.7892390 111.8193007 112.5758969  83.0328414 111.0705058
 113.5218074  82.9034622 111.1393476 112.1973214  82.2943076 111.5474486
 118.5480854  74.6984420 121.0331950 118.3505675  74.3899508 121.9175282
 119.1580559  75.4246059 121.1629879 110.7601886  80.9578391 111.0059943
 109.8533342  80.6611503 111.0822657 111.0377867  80.6608209 110.1394229
 101.6779827  82.2784754 121.4558989 101.3582611  81.4250062 121.1633363
 101.1313255  82.4933332 122.2116957 105.4559734  84.9947195 125.1728496
 105.6745744  85.9264303 125.1916530 105.8685508  84.6355169 125.9583300
 112.3763952  75.5015280 117.1604184 111.5664680  75.1562365 117.5359430
 113.0648369  75.1922824 117.7491796 114.3054500  74.5793327 118.7828481
 114.8585539  74.9988780 119.4418504 114.5424587  73.6529075 118.8251437
 109.5300671  77.8165326 111.1471922 110.3919835  78.1420224 111.4067740
 109.7151015  77.0296822 110.6344988 101.5468087  85.8987665 123.4252111
 100.8531558  85.4841618 122.9122065 102.2941078  85.9408202 122.8285530
 117.6833308  76.6893852 118.2907145 117.1031977  77.3478656 117.9085198
 117.4169240  75.8671197 117.8794563 116.1336874  76.0898910 120.4928466
 116.6336652  76.2015444 119.6842784 116.7772482  75.7859963 121.1329274
 103.4604829  85.8305919 121.3018126 103.4375517  85.9293606 120.3500009
 103.7705466  86.6771070 121.6235292 106.1192207  87.8882074 125.4164740
 107.0735461  87.8566017 125.3494672 105.9204731  87.4272698 126.2314966
 116.4658186  78.8493943 117.3463493 115.5784041  79.1343593 117.1283688
 116.8812175  78.6887706 116.4990770 119.8172722  78.8740464 121.0617833
 120.5933112  79.3636916 121.3342450 119.0920856  79.2998518 121.5189702
 122.2545280  79.5868083 122.1191773 122.8489771  79.3463819 121.4085082
 122.3271864  78.8675213 122.7465310 104.4742436  93.4301694 122.4334938
 104.3396904  92.6702095 121.8672936 104.0574498  94.1542594 121.9663727
 115.6101399  88.6138617 111.4411513 116.3137249  88.8188620 112.0569169
 114.8864048  89.1815379 111.7060597 116.4399209  84.3648479 117.5613784
 116.3834411  84.8217030 116.7221416 116.9927552  83.6039163 117.3836626
 120.2504015  80.1538210 118.3863903 119.9940949  79.7534846 119.2172111
 119.6256883  80.8682004 118.2614042 124.5616353  82.8934284 120.8935195
 124.0015911  82.9627473 121.6666757 123.9559856  82.7175268 120.1734691
 117.5188096  89.0521146 113.4909973 118.3533700  88.6202345 113.3087448
 117.3572439  88.8803160 114.4186868 117.1733989  85.5553260 114.8566313
 117.1182792  85.3897531 113.9154757 116.5480044  86.2629293 115.0128502
 101.9626504  80.7921324 128.6827735 102.6085367  80.2820278 129.1714960
 101.7543655  81.5290006 129.2571160 110.4830114  75.0561369 114.4351631
 110.4708784  76.0003209 114.5919902 111.3753536  74.8731514 114.1411092
 114.2982234  71.6504145 118.6897568 113.5314629  71.0962632 118.8354250
 114.7092938  71.7226014 119.5511720 120.6570357  98.2906473 112.8543615
 120.9095878  97.7687994 112.0927078 119.7194916  98.1272618 112.9570299
 122.3603674  94.6834626 113.7576028 122.5278076  95.5514862 114.1246499
 122.1700843  94.8461907 112.8337317 118.9801952  95.5058694 114.0044926
 118.1439264  95.8433380 114.3254201 118.8406721  95.3707674 113.0672063
 120.9555032  90.3495482 118.7124110 120.3019445  90.0344499 118.0880725
 120.9135506  89.7271222 119.4383933 122.0666237 100.6314777 110.6277402
 121.1593299 100.4004030 110.8268551 122.5637269  99.8352396 110.8151384
 116.3088867  97.9796920 116.8157547 115.3786455  97.9181375 117.0327509
 116.4046339  97.4572872 116.0194188 118.8540332  95.3505921 111.2042833
 117.9769798  95.2294722 110.8405080 119.3298085  94.5591999 110.9521721
 113.5819026  96.9447776 116.6455738 113.8772467  96.0358455 116.5922792
 112.6807062  96.9235516 116.3236741 115.3106867  94.6261874 116.7695064
 114.9819574  93.7459253 116.5870170 115.6646238  94.5709543 117.6571453
 120.4116838  93.4109465 115.3363834 121.1325200  93.7890718 114.8327551
 119.7882142  94.1298342 115.4398812 120.5580461  92.9457256 118.1661371
 120.6796372  92.0173902 118.3652258 120.2682503  92.9595942 117.2539686
 116.5558800  96.2904924 114.7624488 115.8628045  96.3649279 114.1064524
 116.3110552  95.5265267 115.2846005 123.4152724  98.3620332 111.0705058
 124.3611828  98.2326540 111.1393476 123.0366969  97.6234994 111.5474486
 121.5995641  96.2870308 111.0059943 120.6927096  95.9903421 111.0822657
 121.8771622  95.9900126 110.1394229 123.2157707  90.8307198 117.1604184
 122.4058435  90.4854283 117.5359430 123.9042124  90.5214742 117.7491796
 120.3694426  93.1457243 111.1471922 121.2313590  93.4712142 111.4067740
 120.5544770  92.3588739 110.6344988 121.3223869  90.3853286 114.4351631
 121.3102538  91.3295126 114.5919902 122.2147290  90.2023432 114.1411092
 125.1375988  86.9796063 118.6897568 124.3708384  86.4254550 118.8354250
 125.5486693  87.0517932 119.5511720  59.9371790  -5.6277100 100.2719395
  59.2633489  -5.3245403 100.8804353  60.3237612  -4.8248019  99.9224852
  58.1363006  -5.4597427 102.4866474  58.3114761  -5.9309384 103.3012097
  57.4495794  -4.8331661 102.7147735  71.9503600  -0.0706668 110.3110457
  72.5882010  -0.1899921 109.6073797  71.8324443   0.8774176 110.3698409
  68.7593307  -0.1179240 110.2471982  68.4211818  -0.2338175 109.3592516
  69.6283075  -0.5188075 110.2272988  64.6180122   1.7356236 106.2368873
  64.0544987   1.6446173 105.4685160  64.5032517   0.9156141 106.7171365
  62.1644554   3.2307428 109.0753093  62.9565846   2.8898253 108.6599392
  62.4041204   3.3402403 109.9955246  70.1979681   5.4027204 101.5483337
  69.5467661   5.9881284 101.1617351  70.9924044   5.9333399 101.6078375
  64.1235308   2.4916341 101.9470472  64.8966184   1.9445328 101.8083348
  64.4760707   3.3560590 102.1584933  66.8876558   1.1969572 111.7438731
  67.4840130   0.9725594 111.0295694  66.9451529   0.4554317 112.3464179
  66.4601586  -1.3490993  99.5788922  66.7127107  -1.8709471  98.8172385
  65.5226145  -1.5124847  99.6815605  71.6754946   3.0917636 102.0852322
  71.0400779   3.1652262 102.7973226  71.3452353   3.6811235 101.4071401
  66.1797875   0.5537113 101.7813297  66.0634133  -0.1217983 102.4494381
  66.2900135   0.0669487 100.9645450  68.5229416   0.0147260 105.4859986
  68.1587623  -0.5122119 106.1972907  69.3796532  -0.3754271 105.3126471
  70.9210236   3.5054139 112.1487165  70.6210959   4.4079178 112.0402972
  70.5761295   3.2386322 113.0008318  64.3722717  -0.0432064 108.1823869
  63.4473214  -0.1755850 108.3901561  64.6207130   0.7362155 108.6793812
  68.1424123  -2.5005182 101.4668001  68.0223749  -2.0548132 102.3053481
  67.4476712  -2.1519865 100.9081539  61.7331528  -0.3998791 109.0167658
  61.8623909  -0.1464312 109.9307070  61.0528980   0.1928917 108.6972313
  65.9031016  10.2698459 105.1158132  65.8255045  11.2206284 105.1946613
  65.2992659   9.9244332 105.7733059  72.4478772   2.9542109 109.6861917
  71.8187634   3.1187823 108.9837985  72.0604434   3.3683719 110.4572881
  76.3268004   3.8896547 107.0406280  75.6419042   4.2695448 106.4903314
  76.4111853   4.4991874 107.7738228  73.5818935   1.5356506 113.6401624
  73.7935831   2.1788266 112.9636005  73.5348684   0.7018823 113.1723554
  68.0006734   2.6916517 106.9512002  68.4645079   2.9704220 106.1616624
  67.7363532   1.7899962 106.7685093  64.8930815   2.2387999 109.8891765
  65.4632172   2.6675267 109.2509250  65.4838927   1.9570583 110.5875951
  66.9375620  -1.1860330 103.7601567  67.6399663  -0.7339287 104.2275493
  66.6056248  -1.8276512 104.3881460  74.6964763   4.4128461 111.8123981
  75.5182207   4.0108649 111.5306663  74.6927166   4.3096696 112.7640097
  62.6315699  -2.5632198 106.0202177  61.8346863  -2.4513504 106.5385673
  62.4041291  -2.2245546 105.1543068  68.4621367   3.9612505 113.9684692
  68.5265799   4.4232912 114.8042864  67.7532291   3.3309870 114.0967002
  68.1769385   5.6280612 103.8363672  68.0415059   6.4732148 104.2648520
  68.7179197   5.8299890 103.0729606  61.6298782   3.1456050 104.4091597
  62.1423302   3.9399301 104.5597162  62.2821495   2.4482341 104.3425199
  63.4393667   6.2621807 106.4914350  63.6160295   7.1839771 106.3035334
  64.2350500   5.9480226 106.9208730  64.5624982   7.7799980 112.4924693
  65.1132407   7.6517044 111.7201687  63.7236458   8.0794869 112.1419586
  71.9019099   6.5306979 115.9945416  71.8837574   7.3515860 115.5025685
  72.8239019   6.4061054 116.2195557  59.5947699   1.4744705 105.1851168
  60.4322921   1.8841713 104.9684876  59.7725966   0.5344147 105.1551362
  71.4912131  -0.8580215 100.8735001  70.9758754  -0.0875610 101.1123388
  71.2189439  -1.5315079 101.4968062  76.4646405   1.8952140 102.8088174
  75.6875848   1.5563299 102.3643336  77.1437886   1.9004763 102.1343139
  69.7244866   3.1737101 104.3487736  69.1966227   2.4389860 104.0360973
  69.2232369   3.9511777 104.1027704  74.7037712   1.3686121 109.4654782
  74.0461386   2.0585383 109.5534911  75.5078111   1.7582553 109.8088769
  73.5143171  -0.2769506 107.5158724  74.0275052   0.3560486 108.0180434
  74.1644395  -0.8768311 107.1502084  64.7833181  -4.1338772 100.7290233
  63.9470493  -3.7964086 101.0499507  64.6437950  -4.2689792  99.7917370
  67.8697466   0.9917311  97.3522709  66.9624528   0.7606564  97.5513858
  68.3668498   0.1954930  97.5396690  70.7765545   9.7014818 100.2719395
  70.1027244  10.0046515 100.8804353  71.1631367  10.5043898  99.9224852
  69.9924002  -2.8020051 109.7617064  69.0746563  -2.5805104 109.6038753
  70.4084145  -2.7273740 108.9028772  70.7759049  -1.4028635 104.8919745
  71.5230868  -0.8907238 104.5826867  71.0450639  -1.7244582 105.7524138
  69.0485699   1.0929906 101.8746699  68.1396919   0.8088939 101.9719169
  69.0780783   1.5128984 101.0150006  74.2804967   4.7036495 105.6437867
  73.8267294   3.8627405 105.7003057  73.6498934   5.3397894 105.9812647
  72.7237906   6.5412992 106.5787685  73.0160880   7.1018049 105.8600050
  73.2336527   6.8341553 107.3340844  59.6173870  -1.1864580 105.8561901
  59.4198270  -1.7795219 105.1312968  59.0620534  -1.4912370 106.5737840
  67.5970593  -1.2941474 107.9756494  67.6519203  -2.2467637 107.8998971
  66.7861796  -1.1382035 108.4597793  68.7461787   2.6338649  99.2134778
  68.3081217   1.9174508  98.7540415  69.4872228   2.8614764  98.6519869
  65.5362953  -2.6764414 105.7346873  64.7230819  -2.3770243 106.1412065
  66.0321948  -3.0708725 106.4521356  67.6871531   7.3193343 107.6681138
  67.6447710   7.5454189 106.7389670  68.6034230   7.0856718 107.8166939
  76.8634902   0.9095846 105.2711096  76.7252801   1.0997442 104.3432285
  76.5071121   1.6715229 105.7279147  76.8904282   2.9772373 110.2822368
  77.3240788   2.8847663 111.1305422  77.6035862   2.9529874 109.6442384
  65.8037332   4.1956372 107.4643101  66.5977931   3.7006692 107.2625676
  65.0929024   3.6674235 107.1010806  70.6232177   6.5774468 111.8155468
  70.6769199   7.1465404 112.5833184  69.7546958   6.7476353 111.4509505
  62.1120096  -1.6600546 103.5402853  61.1817684  -1.7216091 103.7572815
  62.2077568  -2.1824593 102.7439495  62.0305645  -5.1345733 106.1281095
  62.2912462  -4.2200400 106.0190255  62.8522817  -5.6021291 106.2777708
  77.7519831   3.0196074 112.8155253  77.9455721   3.9241885 113.0614528
  77.6520449   2.5603493 113.6493838  69.5820276   0.7434730 113.3742400
  70.5112336   0.8945889 113.2011367  69.1611306   0.8318750 112.5191047
  68.3808608   4.7685394 111.1440938  68.2419694   4.4004178 112.0166876
  67.5923204   5.2833033 110.9724896  68.9756760   9.8694490 102.4866474
  69.1508516   9.3982534 103.3012097  68.2889548  10.4960257 102.7147735
  69.9313823   4.1466997 108.5329776  69.5963656   4.1067767 109.4287425
  69.4317769   3.4811713 108.0600186  72.8673015   1.4923031  98.8066835
  72.2502185   0.7669859  98.7099888  72.3989503   2.2532391  98.4633909
  74.5227147   6.2021939 116.4672616  74.4639693   5.5181160 115.8003199
  74.9246665   6.9440929 116.0153242  63.5417845  13.0183853 109.2606334
  63.7814444  13.6502377 109.9385353  62.6987042  12.6671893 109.5471694
  64.6571561  -4.2891545  97.9288139  63.7801027  -4.4102744  97.5650386
  65.1329314  -5.0805466  97.6767028  74.5244554   4.1661523 114.6986595
  73.6371333   3.8287445 114.8212994  75.0943105   3.4344555 114.9355361
  56.1773701   0.4985615 108.0229647  56.8644741   0.1847345 107.4350662
  56.0221830   1.4026980 107.7496898  68.0545707   8.8262976 111.6647838
  67.9815879   9.6317947 112.1767143  67.6123100   9.0254942 110.8395860
  67.8435487   8.0634746 105.1750660  67.0603009   8.6056426 105.2688885
  68.5428232   8.5808725 105.5744901  70.5144391   8.7249810 113.8205997
  71.2272363   9.3597275 113.7481899  70.0234419   8.8213676 113.0045999
  72.2361918   2.6301062 105.3923289  71.3018196   2.7502525 105.2227993
  72.4138586   1.7273529 105.1283299  65.5656304   6.4744253 114.6411568
  66.2665764   7.1080736 114.7940962  65.0951419   6.8158985 113.8807207
  73.6910700   4.8162203 102.9259475  73.9670544   4.7018798 103.8353349
  72.8215199   4.4179688 102.8871648  73.3657590  -0.9711139 112.4664118
  72.7129040  -0.7235232 111.8116571  73.7437970  -1.7847001 112.1326596
  70.3264764   9.0648554 106.5692289  70.5087159   8.2470210 107.0320041
  71.1497750   9.2816246 106.1317179  70.6606930   7.9916739 103.8307337
  71.1894696   7.4809194 103.2177499  70.9235149   7.6759269 104.6952870
  61.1624022   6.0080608 111.5742671  61.7477459   5.2624296 111.7070575
  60.9648861   6.3184565 112.4579335  64.0162678   9.0431856 106.5905113
  63.3473053   9.5277983 106.1069153  63.8775547   9.2901076 107.5048492
  68.1567946  11.0775599 113.1887771  68.7086254  11.2407221 113.9536857
  68.4974140  11.6680037 112.5167796  59.3850255  -2.6949689 103.3701045
  59.6803696  -3.6039011 103.3168099  58.4838290  -2.7161950 103.0482047
  71.2936333   9.0257575 110.1751454  71.1687473   8.2247315 109.6662399
  71.9515424   9.5203768 109.6865423  73.3571242   6.8266595 111.8031004
  72.4101577   6.7071946 111.7309330  73.7054015   5.9389093 111.8857265
  61.1138096  -5.0135592 103.4940370  60.7850802  -5.8938213 103.3115476
  61.4677467  -5.0687923 104.3816760  70.3617675   6.6219311 108.0035356
  70.2142637   5.6936018 108.1842926  71.1871169   6.6439402 107.5192431
  64.2279919  -4.7262622 103.8615848  64.5675992  -4.1976701 103.1394456
  64.6752040  -4.3882216 104.6374415  73.9651797   7.4447870 109.0900229
  74.8898344   7.2390731 108.9524680  73.7967100   7.1964271 109.9989570
  73.7547113   7.9633537 104.4462320  73.9283991   7.3979960 103.6936172
  74.2476004   8.7634432 104.2641810  74.7422286   7.2800302 101.5459218
  75.4373190   7.9006994 101.7646533  75.0845436   6.4295653 101.8211596
  76.6413709   4.7300007 103.0746549  77.1665033   5.0687280 102.3495869
  76.5536061   3.7947022 102.8909684  68.3033757   8.6434081 115.2036426
  68.6120884   8.3983228 116.0759125  69.1009239   8.8480719 114.7155296
  68.3254369  10.7971990 107.4341802  67.8859360  10.3048369 108.1274659
  69.0762486  10.2544958 107.1933878  60.8046708   6.9883531 107.4366430
  61.6304728   6.6887303 107.0565074  60.4540760   6.2191154 107.8856219
  65.7728242   6.3409999 109.5064104  65.1508251   5.6780704 109.2066332
  66.4433109   6.3671131 108.8237752  59.0055314   4.9069858 108.3955364
  58.1687222   4.4792032 108.2139365  58.9778959   5.1002301 109.3326155
  76.3307615   5.3632911 118.3797747  75.5403158   5.3457050 117.8402246
  76.0940969   5.9021204 119.1346784  76.4505490   2.2125377 115.6930476
  76.5003495   2.0475385 116.6345998  76.3419413   1.3452636 115.3028356
  65.3341749   4.8913923 102.9822564  65.4829869   5.5749387 102.3289237
  66.1408192   4.8719013 103.4972020  77.9523687   4.6322319 115.9372497
  77.6608495   4.9952299 116.7735958  77.3395818   3.9189327 115.7585829
  79.1519369   2.1975198 108.4575067  79.9866260   2.6365002 108.6212628
  79.2878498   1.7213852 107.6383313  76.2010875  -0.2445067 114.4052555
  76.6764997  -0.0517420 113.5971406  75.2776440  -0.1885881 114.1595939
  63.0894382   0.9179100 103.9883633  62.8440423   0.0141430 104.1863844
  63.2590296   0.9196251 103.0463111  62.3590029  -3.3492542 101.4869795
  61.6659274  -3.2748187 100.8309831  62.1141781  -4.1132198 102.0091312
  68.8337154   7.3862053 100.4534312  68.2611121   8.0052240 100.0004784
  69.4069948   7.9361415 100.9874234  72.0534414   7.6699203 101.5842894
  72.9865087   7.6044765 101.7875770  71.9657627   8.5055470 101.1257427
  74.6822431   6.9865074  98.5446842  74.6036062   6.6524937  99.4382600
  75.5032097   7.4786842  98.5438314  69.2183953  -1.2777134  97.7950364
  70.1643057  -1.4070926  97.8638782  68.8398198  -2.0162472  98.2719793
  67.4026870  -3.3527158  97.7305250  66.4958325  -3.6494045  97.8067963
  67.6802851  -3.6497340  96.8639536  60.1029813   1.5200371 108.0263432
  60.0800501   1.6188058 107.0745316  60.4130449   2.3665522 108.3480599
  61.1167419   9.1196146 109.1580245  60.9821887   8.3596546 108.5918243
  60.6999482   9.8437045 108.6909034  72.2526382   4.3033069  98.1656820
  72.9562232   4.5083072  98.7814476  71.5289031   4.8709831  98.4305904
  73.0824193   0.0542930 104.2859090  73.0259394   0.5111482 103.4466723
  73.6352535  -0.7066385 104.1081933  64.2736545  10.0165463 109.3698687
  64.1568929  10.9610895 109.2677378  63.4528991   9.7139024 109.7584487
  74.1613080   4.7415598 100.2155280  74.9958684   4.3096797 100.0332755
  73.9997423   4.5697612 101.1432175  73.8158972   1.2447712 101.5811619
  73.7607776   1.0791983 100.6400064  73.1905027   1.9523745 101.7373809
  65.2991059  10.6693725 112.5854616  66.2018306  10.7017335 112.9021111
  65.0728429   9.7394175 112.6000952  67.0544661   9.4224711 109.2464694
  66.1040292   9.4226573 109.1329067  67.3577147   8.6757446 108.7300729
  82.7897355  15.2585249 110.3110457  83.4275765  15.1391997 109.6073797
  82.6718198  16.2066093 110.3698409  79.5987061  15.2112678 110.2471982
  79.2605573  15.0953742 109.3592516  80.4676829  14.8103843 110.2272988
  75.4573877  17.0648154 106.2368873  74.8938742  16.9738091 105.4685160
  75.3426272  16.2448058 106.7171365  80.0806844  16.3647529 116.2058187
  80.0695485  15.9700328 115.3338691  80.2427484  15.6313602 116.7991959
  73.0038309  18.5599346 109.0753093  73.7959601  18.2190170 108.6599392
  73.2434959  18.6694321 109.9955246  81.0373436  20.7319122 101.5483337
  80.3861415  21.3173202 101.1617351  81.8317798  21.2625317 101.6078375
  74.9629063  17.8208259 101.9470472  75.7359939  17.2737246 101.8083348
  75.3154462  18.6852508 102.1584933  76.8014105  19.1484641 115.1537371
  76.5103971  20.0530272 115.0384037  77.4371090  19.1901169 115.8681441
  77.7270312  16.5261490 111.7438731  78.3233884  16.3017512 111.0295694
  77.7845284  15.7846235 112.3464179  77.2995340  13.9800925  99.5788922
  77.5520861  13.4582446  98.8172385  76.3619900  13.8167070  99.6815605
  82.3438623  12.9836703 107.3863665  83.1301713  12.5656126 107.0354082
  82.6077328  13.8882795 107.5545313  82.5148701  18.4209554 102.0852322
  81.8794534  18.4944180 102.7973226  82.1846107  19.0103152 101.4071401
  87.7447050  12.9211936 108.2896643  88.4772222  12.3511153 108.5234473
  86.9886406  12.5333537 108.7303149  77.0191629  15.8829031 101.7813297
  76.9027887  15.2073934 102.4494381  77.1293889  15.3961405 100.9645450
  79.3623170  15.3439178 105.4859986  78.9981377  14.8169799 106.1972907
  80.2190286  14.9537647 105.3126471  85.2672471   6.6333511 112.7491252
  84.9355796   7.5028922 112.5252467  84.6718084   6.3169795 113.4285282
  79.0028657  10.3729078 100.4821334  79.1703059  11.2409314 100.8491805
  78.8125826  10.5356359  99.5582624  81.7603990  18.8346057 112.1487165
  81.4604713  19.7371095 112.0402972  81.4155050  18.5678240 113.0008318
  75.2116472  15.2859853 108.1823869  74.2866968  15.1536068 108.3901561
  75.4600885  16.0654073 108.6793812  85.1601134  11.3528597 109.8284602
  84.2518011  11.2844005 109.5343363  85.1088730  11.8300542 110.6566428
  78.9817878  12.8286735 101.4668001  78.8617503  13.2743786 102.3053481
  78.2870466  13.1772053 100.9081539  72.5725283  14.9293127 109.0167658
  72.7017664  15.1827606 109.9307070  71.8922734  15.5220835 108.6972313
  76.7424770  25.5990377 105.1158132  76.6648800  26.5498202 105.1946613
  76.1386414  25.2536249 105.7733059  79.2342000  12.7718242 117.7719499
  78.4575334  13.3312163 117.7622364  79.8732563  13.2575025 118.2934369
  87.0262780   9.5545035 111.6062476  86.3837161   9.8477568 110.9602271
  86.5217709   9.4397956 112.4115673  84.6802944  13.3008208 102.2948335
  85.5920800  13.5335595 102.1196033  84.1712591  13.8845253 101.7323414
  77.4888372  15.5803696 117.3337466  78.2303057  16.1188740 117.0572290
  76.7825358  16.2069984 117.4909018  82.9643712  17.7232836 115.9309628
  83.3727068  17.2815247 115.1864260  82.2420973  17.1485464 116.1843821
  79.3174782  12.6605443 113.3043185  80.1635977  13.0844857 113.4477834
  79.2573420  12.0039067 113.9981748  83.2872526  18.2834027 109.6861917
  82.6581389  18.4479741 108.9837985  82.8998189  18.6975636 110.4572881
  87.1661758  19.2188465 107.0406280  86.4812797  19.5987366 106.4903314
  87.2505608  19.8283791 107.7738228  82.4674227  10.3209811 114.9624358
  82.2235159  11.0751872 114.4258634  82.7434158  10.6995159 115.7971605
  84.4212690  16.8648424 113.6401624  84.6329585  17.5080184 112.9636005
  84.3742438  16.0310740 113.1723554  82.0238919   9.4766244 110.5438196
  81.1623398   9.7747498 110.8354934  82.0501354   9.6936643 109.6119229
  78.8400488  18.0208435 106.9512002  79.3038834  18.2996138 106.1616624
  78.5757286  17.1191879 106.7685093  75.7324569  17.5679916 109.8891765
  76.3025926  17.9967185 109.2509250  76.3232681  17.2862501 110.5875951
  77.7769374  14.1431587 103.7601567  78.4793418  14.5952631 104.2275493
  77.4450003  13.5015406 104.3881460  76.2249736  12.7343344 118.1352776
  75.5948396  13.4159625 118.3688173  76.1185824  12.6226426 117.1905915
  71.5194708  12.4015140 109.0618701  70.7293762  12.6572668 108.5858811
  72.0105956  13.2163478 109.1670741  85.5358518  19.7420379 111.8123981
  86.3575962  19.3400566 111.5306663  85.5320921  19.6388613 112.7640097
  73.4709454  12.7659719 106.0202177  72.6740617  12.8778413 106.5385673
  73.2435046  13.1046371 105.1543068  79.3015121  19.2904422 113.9684692
  79.3659554  19.7524830 114.8042864  78.5926045  18.6601787 114.0967002
  69.8032411  12.6545630 111.4933691  70.0540450  13.5392640 111.7591267
  70.3391960  12.4750232 110.7208783  93.6264511  16.0859128 108.1608953
  92.8728219  15.5166526 108.0052957  93.7612052  16.0521792 109.1079588
  79.0163139  20.9572530 103.8363672  78.8808814  21.8024066 104.2648520
  79.5572952  21.1591808 103.0729606  72.4692536  18.4747968 104.4091597
  72.9817057  19.2691218 104.5597162  73.1215249  17.7774258 104.3425199
  74.2787421  21.5913724 106.4914350  74.4554049  22.5131689 106.3035334
  75.0744255  21.2772143 106.9208730  78.4198440   8.4521989 118.0898284
  79.1608153   9.0529142 118.0102746  78.6516362   7.7099627 117.5316327
  73.5639778  13.6378356 116.3676514  73.4493293  12.7363613 116.6683613
  72.7084295  13.8842053 116.0161330  80.6431615  21.5796096 117.9664014
  80.1995470  20.7932475 117.6484919  81.3048829  21.7675247 117.3007905
  75.4018737  23.1091898 112.4924693  75.9526162  22.9808961 111.7201687
  74.5630212  23.4086787 112.1419586  82.7412853  21.8598896 115.9945416
  82.7231329  22.6807777 115.5025685  83.6632774  21.7352972 116.2195557
  79.1985908  19.3743026 116.8368924  79.7314244  18.6131314 116.6068232
  78.6699989  19.0816678 117.5793078  82.3655603   4.4803092 112.3662566
  82.0219872   5.3704733 112.2901676  82.7334565   4.2904749 111.5032151
  70.4341453  16.8036622 105.1851168  71.2716675  17.2133631 104.9684876
  70.6119721  15.8636064 105.1551362  82.3305885  14.4711703 100.8735001
  81.8152509  15.2416308 101.1123388  82.0583194  13.7976839 101.4968062
  79.9152996   9.3161404 105.9320239  79.0594593   8.9268254 105.7525878
  80.3279948   9.3953364 105.0720025  81.4452143   6.8507747 110.3311799
  80.9416939   6.8137882 109.5179604  81.7382750   7.7600490 110.3908456
  77.6895029   6.9346477 109.3377981  78.5548026   6.7389285 108.9783870
  77.7572538   6.7056828 110.2647337  87.3040159  17.2244058 102.8088174
  86.5269602  16.8855217 102.3643336  87.9831640  17.2296681 102.1343139
  82.1192188  12.3438795 102.6994782  81.8142324  12.6584944 103.5504925
  83.0722631  12.4220215 102.7422115  80.5638620  18.5029018 104.3487736
  80.0359982  17.7681778 104.0360973  80.0626123  19.2803695 104.1027704
  85.5431466  16.6978039 109.4654782  84.8855141  17.3877300 109.5534911
  86.3471866  17.0874471 109.8088769  75.2957348   9.1648685 106.7094347
  75.8701100   8.9423866 105.9767540  75.8828330   9.2337379 107.4622949
  84.3536925  15.0522411 107.5158724  84.8668807  15.6852403 108.0180434
  85.0038149  14.4523607 107.1502084  75.6226935  11.1953146 100.7290233
  74.7864247  11.5327832 101.0499507  75.4831705  11.0602125  99.7917370
  77.5980016   6.0389933 105.4369417  76.9444428   5.7238951 104.8126032
  77.5560490   5.4165674 106.1629240  78.7091220  16.3209229  97.3522709
  77.8018282  16.0898482  97.5513858  79.2062252  15.5246848  97.5396690
  81.6159299  25.0306736 100.2719395  80.9420998  25.3338433 100.8804353
  82.0025121  25.8335816  99.9224852  80.8317756  12.5271867 109.7617064
  79.9140317  12.7486814 109.6038753  81.2477900  12.6018177 108.9028772
  81.6152804  13.9263283 104.8919745  82.3624623  14.4384680 104.5826867
  81.8844393  13.6047335 105.7524138  79.8879454  16.4221823 101.8746699
  78.9790673  16.1380856 101.9719169  79.9174538  16.8420902 101.0150006
  85.1198721  20.0328413 105.6437867  84.6661048  19.1919323 105.7003057
  84.4892688  20.6689811 105.9812647  84.0631641  10.9620399 106.8738534
  83.3254398  10.4497785 107.2048777  84.3158414  10.5220781 106.0621811
  83.5631661  21.8704910 106.5787685  83.8554635  22.4309967 105.8600050
  84.0730281  22.1633471 107.3340844  84.1643268   3.7396651 107.4680303
  84.4702145   2.8794014 107.1806218  84.8895873   4.3314271 107.2679297
  70.4567624  14.1427338 105.8561901  70.2592024  13.5496698 105.1312968
  69.9014288  13.8379548 106.5737840  78.4364348  14.0350444 107.9756494
  78.4912958  13.0824280 107.8998971  77.6255550  14.1909883 108.4597793
  79.5855542  17.9630567  99.2134778  79.1474972  17.2466426  98.7540415
  80.3265983  18.1906682  98.6519869  76.3756708  12.6527504 105.7346873
  75.5624573  12.9521674 106.1412065  76.8715702  12.2583193 106.4521356
  78.5265286  22.6485261 107.6681138  78.4841465  22.8746107 106.7389670
  79.4427985  22.4148635 107.8166939  81.9730920  13.1169328 114.5661767
  82.3280307  13.3440801 115.4256233  82.6203051  13.4487705 113.9439022
  87.7028657  16.2387764 105.2711096  87.5646555  16.4289360 104.3432285
  87.3464875  17.0007147 105.7279147  75.8670783  10.2245859 111.3508108
  76.5070162  10.0834618 110.6531072  75.0348313   9.9380373 110.9746710
  87.7298036  18.3064291 110.2822368  88.1634543  18.2139580 111.1305422
  88.4429617  18.2821792 109.6442384  76.6431087  19.5248290 107.4643101
  77.4371685  19.0298610 107.2625676  75.9322779  18.9966153 107.1010806
  81.4625931  21.9066385 111.8155468  81.5162953  22.4757322 112.5833184
  80.5940712  22.0768270 111.4509505  72.9513850  13.6691371 103.5402853
  72.0211438  13.6075827 103.7572815  73.0471322  13.1467324 102.7439495
  72.8699399  10.1946184 106.1281095  73.1306216  11.1091518 106.0190255
  73.6916571   9.7270627 106.2777708  74.3424324  11.6083941 113.2979920
  75.0147378  11.4001304 112.6492568  73.5154111  11.4106027 112.8585152
  88.5913586  18.3487992 112.8155253  88.7849476  19.2533802 113.0614528
  88.4914204  17.8895411 113.6493838  80.2449896   8.2345882 115.3145580
  79.5977811   8.9335832 115.2210057  81.0150912   8.6682026 115.6821829
  83.6528694  18.4994735 118.3896134  83.5014201  18.2705286 117.4726217
  83.6433374  19.4565336 118.4027479  80.4214031  16.0726647 113.3742400
  81.3506091  16.2237807 113.2011367  80.0005061  16.1610668 112.5191047
  79.2202363  20.0977312 111.1440938  79.0813448  19.7296096 112.0166876
  78.4316959  20.6124951 110.9724896  79.8150515  25.1986408 102.4866474
  79.9902270  24.7274451 103.3012097  79.1283303  25.8252174 102.7147735
  80.7707578  19.4758914 108.5329776  80.4357410  19.4359684 109.4287425
  80.2711523  18.8103630 108.0600186  74.7451822  14.8826544 114.0582357
  74.6071620  14.1506783 114.6593896  75.6556745  14.7935445 113.7766544
  83.7066769  16.8214949  98.8066835  83.0895940  16.0961777  98.7099888
  83.2383258  17.5824309  98.4633909  77.3734122  14.5946504 113.5466036
  78.0833741  13.9539696 113.5052655  77.3303430  14.8459399 114.4692217
  85.3620901  21.5313857 116.4672616  85.3033447  20.8473077 115.8003199
  85.7640419  22.2732847 116.0153242  76.0863056  11.5811722 115.3661676
  75.5500413  11.1302460 116.0183272  75.4979765  11.7157630 114.6232140
  74.3811600  28.3475771 109.2606334  74.6208198  28.9794295 109.9385353
  73.5380796  27.9963811 109.5471694  75.4965315  11.0400373  97.9288139
  74.6194782  10.9189174  97.5650386  75.9723068  10.2486451  97.6767028
  85.3638308  19.4953441 114.6986595  84.4765087  19.1579363 114.8212994
  85.9336859  18.7636472 114.9355361  67.0167455  15.8277533 108.0229647
  67.7038495  15.5139263 107.4350662  66.8615584  16.7318897 107.7496898
  71.8202178  10.7167729 112.4514670  71.7360366  10.1093399 111.7165080
  70.9984884  11.2076748 112.4524167  78.8939462  24.1554893 111.6647838
  78.8209633  24.9609865 112.1767143  78.4516855  24.3546859 110.8395860
  78.6829241  23.3926663 105.1750660  77.8996763  23.9348344 105.2688885
  79.3821986  23.9100643 105.5744901  81.9925891   9.2021293 107.8184865
  82.4894591   8.4491255 107.4985936  81.2212873   9.2385610 107.2528075
  89.8455649  14.9061658 109.4603157  89.8345525  15.7886374 109.0897090
  88.9773028  14.5533209 109.2657694  81.3538145  24.0541727 113.8205997
  82.0666117  24.6889192 113.7481899  80.8628174  24.1505593 113.0045999
  83.0755672  17.9592980 105.3923289  82.1411951  18.0794443 105.2227993
  83.2532341  17.0565447 105.1283299  78.5760860  11.3438676 107.5456550
  78.2058648  10.7909716 108.2337456  79.0719953  10.7396809 106.9931550
  86.4628223  13.8010299 105.9273323  86.9288676  14.6338291 105.8533626
  86.9135724  13.3355281 106.6318581  76.4050059  21.8036171 114.6411568
  77.1059518  22.4372654 114.7940962  75.9345174  22.1450902 113.8807207
  84.5304455  20.1454121 102.9259475  84.8064298  20.0310715 103.8353349
  83.6608953  19.7471606 102.8871648  84.4344886   6.1690886 109.9664224
  83.5207966   6.3995113 110.1346431  84.8637988   6.2529330 110.8178257
  84.2051345  14.3580778 112.4664118  83.5522795  14.6056686 111.8116571
  84.5831725  13.5444917 112.1326596  81.1658519  24.3940472 106.5692289
  81.3480913  23.5762127 107.0320041  81.9891505  24.6108164 106.1317179
  81.5000684  23.3208657 103.8307337  82.0288450  22.8101111 103.2177499
  81.7628904  23.0051187 104.6952870  80.2538918  15.1000589 118.9530155
  79.5779555  14.9994719 119.6232531  81.0766552  14.9439803 119.4166153
  72.0017777  21.3372526 111.5742671  72.5871214  20.5916214 111.7070575
  71.8042615  21.6476483 112.4579335  74.8556432  24.3723773 106.5905113
  74.1866807  24.8569901 106.1069153  74.7169302  24.6192994 107.5048492
  66.5935432  13.9078126 110.2947114  66.6319531  13.3741717 111.0884232
  66.0875724  13.3813332 109.6758091  78.9961701  26.4067517 113.1887771
  79.5480009  26.5699138 113.9536857  79.3367894  26.9971955 112.5167796
  73.9726194   8.7542667 113.7909656  74.0367520   9.6157498 113.3787054
  73.9093314   8.1416668 113.0582015  73.4478466  10.8265799 117.4382690
  74.0750505  10.4442876 118.0520215  72.5906385  10.6080001 117.8038383
  83.8472575  21.2328774 119.0436426  84.3912479  21.8458733 118.5491381
  83.2659420  21.7908353 119.5603439  70.2244009  12.6342228 103.3701045
  70.5197450  11.7252907 103.3168099  69.3232045  12.6129968 103.0482047
  82.1330088  24.3549492 110.1751454  82.0081227  23.5539232 109.6662399
  82.7909179  24.8495686 109.6865423  73.7538256  10.7098225 109.3528594
  73.0324842  11.3234193 109.2136067  74.5431512  11.2455990 109.2745240
  84.1964996  22.1558512 111.8031004  83.2495332  22.0363864 111.7309330
  84.5447769  21.2681010 111.8857265  76.5564570   8.0452651 115.6269246
  77.0798971   8.2914948 116.3895555  76.3376903   8.8772686 115.2072383
  71.9531851  10.3156326 103.4940370  71.6244557   9.4353705 103.3115476
  72.3071221  10.2603995 104.3816760  81.2011430  21.9511229 108.0035356
  81.0536392  21.0227936 108.1842926  82.0264923  21.9731319 107.5192431
  75.0673674  10.6029296 103.8615848  75.4069746  11.1315217 103.1394456
  75.5145794  10.9409702 104.6374415  84.8045551  22.7739787 109.0900229
  85.7292099  22.5682649 108.9524680  84.6360855  22.5256189 109.9989570
  77.7617115   8.9866346 113.3118916  77.4213935   8.1874160 113.7139596
  77.0556121   9.2868057 112.7395749  78.4133586   6.0715659 111.7646239
  79.2359656   5.5976137 111.6425129  78.6571650   6.8506143 112.2644925
  77.0541821   9.1003917 102.0609141  77.7750183   9.4785170 101.5572858
  76.4307125   9.8192794 102.1644119  81.1972944   9.8049066 102.9967473
  81.4136558  10.6873704 102.6956301  80.7167011   9.4135280 102.2673115
  75.9372165  12.7634780 109.5738218  75.7916746  13.0775083 110.4662499
  75.4597369  13.3819680 109.0209116  77.7968548   9.7537328 109.6219107
  77.7830117   8.8578421 109.2851405  78.5140976   9.7607991 110.2557393
  79.6494679  10.1874668 111.6672235  79.3912457  11.1091738 111.6656565
  79.1179719   9.7905102 112.3572699  84.5940868  23.2925455 104.4462320
  84.7677745  22.7271877 103.6936172  85.0869759  24.0926350 104.2641810
  70.4117827  15.3040124 112.5125879  69.8671295  16.0799932 112.6446153
  71.2897177  15.6510928 112.3545000  77.2005444   8.6351708 104.8906677
  77.3221355   7.7068354 105.0897565  76.9107486   8.6490394 103.9784993
  80.0696634   6.3206618 108.0273397  80.0918331   6.3845951 107.0725377
  80.4864693   5.4811127 108.2213903  90.4480259  16.0561878 106.0652620
  90.8911405  15.3069203 105.6671743  89.5706769  16.0472014 105.6826352
  85.5816040  22.6092219 101.5459218  86.2766945  23.2298912 101.7646533
  85.9239190  21.7587570 101.8211596  71.1983849  14.4310020 115.4056036
  70.4565585  14.5792656 115.9920666  70.8776594  14.6918286 114.5422785
  87.4807463  20.0591925 103.0746549  88.0058787  20.3979198 102.3495869
  87.3929816  19.1238940 102.8909684  79.1427512  23.9725998 115.2036426
  79.4514638  23.7275145 116.0759125  79.9402994  24.1772637 114.7155296
  79.1648124  26.1263908 107.4341802  78.7253114  25.6340287 108.1274659
  79.9156241  25.5836876 107.1933878  71.6440463  22.3175449 107.4366430
  72.4698483  22.0179221 107.0565074  71.2934515  21.5483071 107.8856219
  76.6121996  21.6701917 109.5064104  75.9902005  21.0072622 109.2066332
  77.2826863  21.6963049 108.8237752  69.8449068  20.2361775 108.3955364
  69.0080976  19.8083950 108.2139365  69.8172713  20.4294219 109.3326155
  76.6846524  10.1483705 119.0996610  76.7334679  11.0245828 118.7174380
  77.2269038   9.6061098 118.5268253  87.1701369  20.6924828 118.3797747
  86.3796913  20.6748967 117.8402246  86.9334724  21.2313122 119.1346784
  87.2899244  17.5417295 115.6930476  87.3397249  17.3767302 116.6345998
  87.1813168  16.6744554 115.3028356  76.1735503  20.2205840 102.9822564
  76.3223623  20.9041305 102.3289237  76.9801946  20.2010931 103.4972020
  84.5803007  13.5248223 117.0089782  85.4812869  13.3854688 116.7173780
  84.6550981  13.6902678 117.9487960  78.9145812  10.9015078 115.8542969
  78.0449121  11.1948644 115.5825557  79.1505292  11.4855523 116.5750232
  88.7917441  19.9614236 115.9372497  88.5002249  20.3244217 116.7735958
  88.1789572  19.2481245 115.7585829  89.9913123  17.5267116 108.4575067
  90.8260015  17.9656920 108.6212628  90.1272252  17.0505769 107.6383313
  87.0404629  15.0846851 114.4052555  87.5158751  15.2774497 113.5971406
  86.1170195  15.1406037 114.1595939  73.9288136  16.2471018 103.9883633
  73.6834178  15.3433348 104.1863844  74.0984051  16.2488169 103.0463111
  81.6184846   7.1194695 113.3708389  82.1366790   7.8555721 113.0454878
  81.2639979   7.4258688 114.2055148  73.1983784  11.9799376 101.4869795
  72.5053028  12.0543731 100.8309831  72.9535535  11.2159719 102.0091312
  81.8697440   3.5394977 108.8909286  82.1499194   2.8718166 109.5169712
  82.6548047   3.7324073 108.3783949  79.6730909  22.7153971 100.4534312
  79.1004876  23.3344158 100.0004784  80.2463702  23.2653333 100.9874234
  85.7406298  11.9612611 112.6380861  86.6923721  12.0610709 112.6593085
  85.5709749  11.1690880 113.1478945  83.7620678   9.0468194 112.8240262
  83.1670610   9.3273207 112.1286750  83.4770375   9.5362095 113.5957003
  82.8928168  22.9991121 101.5842894  83.8258841  22.9336683 101.7875770
  82.8051381  23.8347388 101.1257427  85.5216185  22.3156991  98.5446842
  85.4429817  21.9816855  99.4382600  86.3425852  22.8078759  98.5438314
  88.2194376  15.1818731 111.7523160  88.1870696  14.2434731 111.9382844
  88.8295000  15.2602767 111.0188985  80.0577707  14.0514784  97.7950364
  81.0036812  13.9220992  97.8638782  79.6791952  13.3129446  98.2719793
  88.3688865  11.9729774 111.7981444  87.8527913  11.1888231 111.6111372
  89.2528813  11.6448491 111.9627963  86.0299592   5.7170790 107.7577256
  85.8324413   5.4085878 108.6420588  86.6399297   6.4432429 107.8875186
  94.0370926  16.2434738 110.8929197  94.7674315  15.9820026 111.4536900
  93.4277872  15.5063459 110.9331265  92.1186223  14.3842600 111.4903648
  91.3919387  14.2498565 110.8820140  91.7033510  14.6919429 112.2960366
  79.9416400  18.1032530 119.2551021  80.8619409  18.2811129 119.4491068
  79.9065983  17.1588575 119.1030721  78.2420624  11.9764760  97.7305250
  77.3352080  11.6797873  97.8067963  78.5196605  11.6794578  96.8639536
  69.1598565  13.2971123 108.1804296  68.8401349  12.4436432 107.8878670
  68.6131993  13.5119702 108.9362263  72.9378472  16.0133564 111.8973803
  73.1564482  16.9450672 111.9161836  73.3504246  15.6541539 112.6828606
  79.8582690   6.5201650 103.8849491  79.0483418   6.1748735 104.2604737
  80.5467107   6.2109194 104.4737102  81.7873238   5.5979697 105.5073788
  82.3404277   6.0175150 106.1663811  82.0243325   4.6715445 105.5496744
  77.8106337  11.5866770 121.2876551  77.7103064  12.5361127 121.2188643
  77.5927879  11.2585009 120.4152622  77.0119409   8.8351695  97.8717229
  77.8738573   9.1606594  98.1313046  77.1969753   8.0483191  97.3590295
  69.0286825  16.9174035 110.1497418  68.3350296  16.5027988 109.6367372
  69.7759816  16.9594571 109.5530837  85.1652045   7.7080222 105.0152452
  84.5850714   8.3665026 104.6330504  84.8987978   6.8857566 104.6039869
  83.6155612   7.1085279 107.2173772  84.1155390   7.2201814 106.4088091
  84.2591220   6.8046332 107.8574581  77.6737608  15.0163909 120.1041613
  77.1904689  15.8164269 120.3105502  77.7598547  15.0271854 119.1509057
  70.9423567  16.8492289 108.0263432  70.9194255  16.9479976 107.0745316
  71.2524204  17.6957440 108.3480599  73.6010945  18.9068444 112.1410047
  74.5554199  18.8752386 112.0739978  73.4023469  18.4459068 112.9560273
  74.1910327  17.4769560 114.7080845  75.0103216  17.9713639 114.7315682
  74.4647135  16.5601528 114.6798412  83.9476923   9.8680312 104.0708800
  83.0602778  10.1529963 103.8528995  84.3630912   9.7074076 103.2236077
  87.2991459   9.8926833 107.7863139  88.0751850  10.3823286 108.0587756
  86.5739594  10.3184887 108.2435009  89.7364018  10.6054452 108.8437080
  90.3308509  10.3650188 108.1330388  89.8090602   9.8861583 109.4710616
  71.9561174  24.4488063 109.1580245  71.8215642  23.6888464 108.5918243
  71.5393236  25.1728963 108.6909034  83.0920137  19.6324987  98.1656820
  83.7955987  19.8374989  98.7814476  82.3682786  20.2001749  98.4305904
  83.9217947  15.3834848 104.2859090  83.8653148  15.8403399 103.4466723
  84.4746290  14.6225533 104.1081933  87.7322753  11.1724580 105.1109210
  87.4759687  10.7721216 105.9417417  87.1075621  11.8868374 104.9859349
  92.0435091  13.9120653 107.6180501  91.4834649  13.9813843 108.3912063
  91.4378594  13.7361638 106.8979997  75.1130300  25.3457380 109.3698687
  74.9962684  26.2902813 109.2677378  74.2922746  25.0430942 109.7584487
  85.0006834  20.0707516 100.2155280  85.8352438  19.6388714 100.0332755
  84.8391177  19.8989530 101.1432175  84.6552726  16.5739629 101.5811619
  84.6001530  16.4083901 100.6400064  84.0298782  17.2815662 101.7373809
  69.4445241  11.8107694 115.4073042  70.0904105  11.3006648 115.8960267
  69.2362392  12.5476375 115.9816467  81.9698634  18.8788541 120.9065182
  82.8389793  19.0529193 120.5451817  81.4905385  19.6982958 120.7840912
  77.9648852   6.0747738 101.1596938  77.9527522   7.0189578 101.3165209
  78.8572274   5.8917884 100.8656399  76.1384814  25.9985642 112.5854616
  77.0412060  26.0309252 112.9021111  75.9122184  25.0686093 112.6000952
  77.8938416  24.7516629 109.2464694  76.9434047  24.7518490 109.1329067
  78.1970902  24.0049363 108.7300729  81.7800971   2.6690515 105.4142875
  81.0133367   2.1149002 105.5599557  82.1911676   2.7412384 106.2757026
  93.6291109  30.5877167 110.3110457  94.2669519  30.4683914 109.6073797
  93.5111952  31.5358011 110.3698409  90.4380816  30.5404595 110.2471982
  90.0999327  30.4245660 109.3592516  91.3070584  30.1395760 110.2272988
  86.2967631  32.3940072 106.2368873  85.7332496  32.3030009 105.4685160
  86.1820026  31.5739976 106.7171365  90.9200599  31.6939447 116.2058187
  90.9089239  31.2992245 115.3338691  91.0821238  30.9605520 116.7991959
  83.8432063  33.8891263 109.0753093  84.6353355  33.5482088 108.6599392
  84.0828713  33.9986238 109.9955246  91.8767190  36.0611039 101.5483337
  91.2255170  36.6465120 101.1617351  92.6711553  36.5917234 101.6078375
  85.8022817  33.1500176 101.9470472  86.5753693  32.6029164 101.8083348
  86.1548216  34.0144426 102.1584933  87.6407860  34.4776559 115.1537371
  87.3497726  35.3822190 115.0384037  88.2764844  34.5193086 115.8681441
  88.5664067  31.8553407 111.7438731  89.1627639  31.6309430 111.0295694
  88.6239038  31.1138153 112.3464179  88.1389095  29.3092843  99.5788922
  88.3914616  28.7874364  98.8172385  87.2013654  29.1458988  99.6815605
  93.1832378  28.3128621 107.3863665  93.9695467  27.8948044 107.0354082
  93.4471082  29.2174713 107.5545313  93.3542455  33.7501471 102.0852322
  92.7188288  33.8236098 102.7973226  93.0239862  34.3395070 101.4071401
  98.5840805  28.2503854 108.2896643  99.3165977  27.6803071 108.5234473
  97.8280161  27.8625455 108.7303149  87.8585384  31.2120949 101.7813297
  87.7421642  30.5365852 102.4494381  87.9687644  30.7253322 100.9645450
  90.2016925  30.6731096 105.4859986  89.8375132  30.1461717 106.1972907
  91.0584041  30.2829565 105.3126471  96.1066225  21.9625428 112.7491252
  95.7749550  22.8320839 112.5252467  95.5111839  21.6461712 113.4285282
  89.8422412  25.7020995 100.4821334  90.0096814  26.5701232 100.8491805
  89.6519581  25.8648277  99.5582624  92.5997745  34.1637974 112.1487165
  92.2998468  35.0663013 112.0402972  92.2548804  33.8970157 113.0008318
  86.0510226  30.6151771 108.1823869  85.1260723  30.4827985 108.3901561
  86.2994639  31.3945990 108.6793812  95.9994889  26.6820514 109.8284602
  95.0911766  26.6135923 109.5343363  95.9482484  27.1592459 110.6566428
  89.8211632  28.1578653 101.4668001  89.7011258  28.6035704 102.3053481
  89.1264221  28.5063971 100.9081539  83.4119037  30.2585045 109.0167658
  83.5411418  30.5119524 109.9307070  82.7316489  30.8512753 108.6972313
  87.5818525  40.9282295 105.1158132  87.5042554  41.8790120 105.1946613
  86.9780168  40.5828167 105.7733059  90.0735754  28.1010160 117.7719499
  89.2969088  28.6604080 117.7622364  90.7126317  28.5866943 118.2934369
  97.8656535  24.8836953 111.6062476  97.2230915  25.1769486 110.9602271
  97.3611463  24.7689873 112.4115673  95.5196699  28.6300126 102.2948335
  96.4314555  28.8627513 102.1196033  95.0106346  29.2137170 101.7323414
  88.3282127  30.9095613 117.3337466  89.0696811  31.4480657 117.0572290
  87.6219112  31.5361902 117.4909018  93.8037466  33.0524754 115.9309628
  94.2120822  32.6107164 115.1864260  93.0814728  32.4777381 116.1843821
  90.1568536  27.9897361 113.3043185  91.0029732  28.4136774 113.4477834
  90.0967174  27.3330985 113.9981748  94.1266281  33.6125944 109.6861917
  93.4975143  33.7771659 108.9837985  93.7391943  34.0267554 110.4572881
  98.0055513  34.5480382 107.0406280  97.3206551  34.9279284 106.4903314
  98.0899362  35.1575709 107.7738228  93.3067982  25.6501729 114.9624358
  93.0628914  26.4043790 114.4258634  93.5827912  26.0287077 115.7971605
  95.2606444  32.1940341 113.6401624  95.4723340  32.8372101 112.9636005
  95.2136193  31.3602658 113.1723554  92.8632673  24.8058162 110.5438196
  92.0017152  25.1039416 110.8354934  92.8895108  25.0228561 109.6119229
  89.6794243  33.3500353 106.9512002  90.1432588  33.6288056 106.1616624
  89.4151041  32.4483797 106.7685093  86.5718324  32.8971834 109.8891765
  87.1419681  33.3259102 109.2509250  87.1626436  32.6154419 110.5875951
  88.6163129  29.4723505 103.7601567  89.3187172  29.9244549 104.2275493
  88.2843757  28.8307324 104.3881460  87.0643490  28.0635262 118.1352776
  86.4342151  28.7451542 118.3688173  86.9579578  27.9518343 117.1905915
  82.3588463  27.7307058 109.0618701  81.5687517  27.9864586 108.5858811
  82.8499710  28.5455395 109.1670741  96.3752272  35.0712297 111.8123981
  97.1969716  34.6692484 111.5306663  96.3714675  34.9680531 112.7640097
  84.3103208  28.0951637 106.0202177  83.5134371  28.2070331 106.5385673
  84.0828800  28.4338289 105.1543068  90.1408876  34.6196340 113.9684692
  90.2053308  35.0816747 114.8042864  89.4319800  33.9893705 114.0967002
  80.6426166  27.9837548 111.4933691  80.8934204  28.8684558 111.7591267
  81.1785714  27.8042150 110.7208783 104.4658265  31.4151045 108.1608953
 103.7121974  30.8458443 108.0052957 104.6005807  31.3813710 109.1079588
  89.8556893  36.2864448 103.8363672  89.7202568  37.1315983 104.2648520
  90.3966706  36.4883725 103.0729606  86.3424233  22.3656027 120.4978027
  85.9491179  21.8122226 121.1725672  87.1590373  22.6766606 120.8884545
  83.3086291  33.8039886 104.4091597  83.8210811  34.5983136 104.5597162
  83.9609004  33.1066176 104.3425199  85.1181176  36.9205642 106.4914350
  85.2947804  37.8423607 106.3035334  85.9138009  36.6064061 106.9208730
  89.2592194  23.7813907 118.0898284  90.0001907  24.3821060 118.0102746
  89.4910117  23.0391544 117.5316327  84.4033532  28.9670274 116.3676514
  84.2887047  28.0655531 116.6683613  83.5478050  29.2133971 116.0161330
  91.4825370  36.9088014 117.9664014  91.0389224  36.1224393 117.6484919
  92.1442583  37.0967165 117.3007905  86.2412491  38.4383816 112.4924693
  86.7919916  38.3100879 111.7201687  85.4023967  38.7378705 112.1419586
  93.5806608  37.1890814 115.9945416  93.5625083  38.0099695 115.5025685
  94.5026528  37.0644889 116.2195557  90.0379662  34.7034944 116.8368924
  90.5707999  33.9423232 116.6068232  89.5093743  34.4108595 117.5793078
  93.2049357  19.8095009 112.3662566  92.8613626  20.6996651 112.2901676
  93.5728320  19.6196667 111.5032151  81.2735208  32.1328540 105.1851168
  82.1110430  32.5425548 104.9684876  81.4513475  31.1927982 105.1551362
  93.1699640  29.8003621 100.8735001  92.6546263  30.5708225 101.1123388
  92.8976948  29.1268757 101.4968062  90.7546751  24.6453321 105.9320239
  89.8988347  24.2560172 105.7525878  91.1673703  24.7245282 105.0720025
  92.2845897  22.1799665 110.3311799  91.7810693  22.1429800 109.5179604
  92.5776504  23.0892407 110.3908456  88.5288783  22.2638394 109.3377981
  89.3941780  22.0681203 108.9783870  88.5966292  22.0348746 110.2647337
  98.1433914  32.5535975 102.8088174  97.3663357  32.2147135 102.3643336
  98.8225395  32.5588598 102.1343139  92.9585943  27.6730713 102.6994782
  92.6536079  27.9876862 103.5504925  93.9116385  27.7512133 102.7422115
  91.4032375  33.8320936 104.3487736  90.8753736  33.0973696 104.0360973
  90.9019878  34.6095612 104.1027704  96.3825221  32.0269956 109.4654782
  95.7248895  32.7169218 109.5534911  97.1865620  32.4166388 109.8088769
  86.1351102  24.4940602 106.7094347  86.7094854  24.2715784 105.9767540
  86.7222085  24.5629297 107.4622949  95.1930680  30.3814329 107.5158724
  95.7062561  31.0144321 108.0180434  95.8431904  29.7815525 107.1502084
  86.4620690  26.5245063 100.7290233  85.6258002  26.8619750 101.0499507
  86.3225459  26.3894043  99.7917370  88.4373770  21.3681851 105.4369417
  87.7838182  21.0530868 104.8126032  88.3954244  20.7457592 106.1629240
  89.5484975  31.6501146  97.3522709  88.6412037  31.4190400  97.5513858
  90.0456007  30.8538765  97.5396690  92.4553054  40.3598653 100.2719395
  91.7814753  40.6630350 100.8804353  92.8418876  41.1627734  99.9224852
  91.6711510  27.8563785 109.7617064  90.7534072  28.0778732 109.6038753
  92.0871654  27.9310095 108.9028772  92.4546558  29.2555200 104.8919745
  93.2018377  29.7676598 104.5826867  92.7238148  28.9339253 105.7524138
  90.7273208  31.7513741 101.8746699  89.8184428  31.4672774 101.9719169
  90.7568292  32.1712820 101.0150006  95.9592476  35.3620331 105.6437867
  95.5054803  34.5211240 105.7003057  95.3286443  35.9981729 105.9812647
  94.9025395  26.2912317 106.8738534  94.1648152  25.7789703 107.2048777
  95.1552169  25.8512698 106.0621811  94.4025415  37.1996827 106.5787685
  94.6948389  37.7601884 105.8600050  94.9124036  37.4925388 107.3340844
  95.0037023  19.0688569 107.4680303  95.3095900  18.2085932 107.1806218
  95.7289628  19.6606189 107.2679297  81.2961379  29.4719255 105.8561901
  81.0985779  28.8788616 105.1312968  80.7408043  29.1671465 106.5737840
  89.2758102  29.3642362 107.9756494  89.3306712  28.4116198 107.8998971
  88.4649304  29.5201801 108.4597793  90.4249296  33.2922485  99.2134778
  89.9868726  32.5758344  98.7540415  91.1659737  33.5198600  98.6519869
  87.2150462  27.9819421 105.7346873  86.4018328  28.2813592 106.1412065
  87.7109457  27.5875110 106.4521356  89.3659040  37.9777178 107.6681138
  89.3235219  38.2038025 106.7389670  90.2821739  37.7440553 107.8166939
  92.8124674  28.4461246 114.5661767  93.1674062  28.6732719 115.4256233
  93.4596805  28.7779623 113.9439022  98.5422411  31.5679682 105.2711096
  98.4040310  31.7581278 104.3432285  98.1858630  32.3299065 105.7279147
  86.7064537  25.5537777 111.3508108  87.3463916  25.4126536 110.6531072
  85.8742068  25.2672290 110.9746710  98.5691791  33.6356209 110.2822368
  99.0028297  33.5431498 111.1305422  99.2823371  33.6113709 109.6442384
  87.4824841  34.8540207 107.4643101  88.2765440  34.3590528 107.2625676
  86.7716533  34.3258071 107.1010806  92.3019686  37.2358303 111.8155468
  92.3556708  37.8049239 112.5833184  91.4334467  37.4060188 111.4509505
  83.7907605  28.9983289 103.5402853  82.8605193  28.9367745 103.7572815
  83.8865077  28.4759242 102.7439495  83.7093154  25.5238102 106.1281095
  83.9699971  26.4383435 106.0190255  84.5310326  25.0562545 106.2777708
  85.1818079  26.9375859 113.2979920  85.8541132  26.7293221 112.6492568
  84.3547865  26.7397945 112.8585152  99.4307340  33.6779909 112.8155253
  99.6243230  34.5825720 113.0614528  99.3307958  33.2187329 113.6493838
  91.0843651  23.5637800 115.3145580  90.4371566  24.2627750 115.2210057
  91.8544666  23.9973944 115.6821829  94.4922449  33.8286652 118.3896134
  94.3407955  33.5997204 117.4726217  94.4827128  34.7857254 118.4027479
  91.2607785  31.4018565 113.3742400  92.1899845  31.5529725 113.2011367
  90.8398815  31.4902586 112.5191047  90.0596117  35.4269229 111.1440938
  89.9207203  35.0588014 112.0166876  89.2710713  35.9416869 110.9724896
  90.6544269  40.5278326 102.4866474  90.8296025  40.0566369 103.3012097
  89.9677057  41.1544092 102.7147735  91.6101332  34.8050832 108.5329776
  91.2751165  34.7651602 109.4287425  91.1105278  34.1395548 108.0600186
  85.5845576  30.2118462 114.0582357  85.4465374  29.4798701 114.6593896
  86.4950500  30.1227362 113.7766544  94.5460524  32.1506866  98.8066835
  93.9289694  31.4253695  98.7099888  94.0777012  32.9116227  98.4633909
  88.2127877  29.9238421 113.5466036  88.9227495  29.2831614 113.5052655
  88.1697185  30.1751316 114.4692217  96.2014655  36.8605775 116.4672616
  96.1427202  36.1764995 115.8003199  96.6034174  37.6024765 116.0153242
  86.9256811  26.9103639 115.3661676  86.3894168  26.4594378 116.0183272
  86.3373519  27.0449548 114.6232140  85.2205354  43.6767689 109.2606334
  85.4601953  44.3086213 109.9385353  84.3774551  43.3255729 109.5471694
  86.3359070  26.3692291  97.9288139  85.4588536  26.2481092  97.5650386
  86.8116823  25.5778369  97.6767028  96.2032063  34.8245359 114.6986595
  95.3158842  34.4871280 114.8212994  96.7730614  34.0928390 114.9355361
  77.8561210  31.1569450 108.0229647  78.5432250  30.8431180 107.4350662
  77.7009339  32.0610815 107.7496898  82.6595932  26.0459647 112.4514670
  82.5754121  25.4385317 111.7165080  81.8378638  26.5368665 112.4524167
  89.7333216  39.4846811 111.6647838  89.6603388  40.2901783 112.1767143
  89.2910609  39.6838777 110.8395860  89.5222996  38.7218581 105.1750660
  88.7390518  39.2640261 105.2688885  90.2215741  39.2392561 105.5744901
  92.8319646  24.5313211 107.8184865  93.3288345  23.7783173 107.4985936
  92.0606627  24.5677527 107.2528075 100.6849403  30.2353576 109.4603157
 100.6739280  31.1178292 109.0897090  99.8166783  29.8825127 109.2657694
  92.1931900  39.3833645 113.8205997  92.9059872  40.0181110 113.7481899
  91.7021928  39.4797511 113.0045999  93.9149427  33.2884898 105.3923289
  92.9805705  33.4086360 105.2227993  94.0926095  32.3857365 105.1283299
  89.4154615  26.6730594 107.5456550  89.0452402  26.1201634 108.2337456
  89.9113707  26.0688727 106.9931550  97.3021978  29.1302217 105.9273323
  97.7682430  29.9630209 105.8533626  97.7529478  28.6647199 106.6318581
  87.2443813  37.1328089 114.6411568  87.9453273  37.7664572 114.7940962
  86.7738928  37.4742820 113.8807207  95.3698209  35.4746038 102.9259475
  95.6458053  35.3602633 103.8353349  94.5002708  35.0763523 102.8871648
  95.2738641  21.4982804 109.9664224  94.3601720  21.7287031 110.1346431
  95.7031742  21.5821248 110.8178257  95.0445099  29.6872696 112.4664118
  94.3916549  29.9348603 111.8116571  95.4225479  28.8736834 112.1326596
  92.0052273  39.7232389 106.5692289  92.1874668  38.9054045 107.0320041
  92.8285259  39.9400081 106.1317179  92.3394439  38.6500574 103.8307337
  92.8682205  38.1393029 103.2177499  92.6022658  38.3343105 104.6952870
  91.0932672  30.4292507 118.9530155  90.4173309  30.3286636 119.6232531
  91.9160306  30.2731721 119.4166153  82.8411531  36.6664444 111.5742671
  83.4264968  35.9208132 111.7070575  82.6436370  36.9768400 112.4579335
  85.6950186  39.7015691 106.5905113  85.0260562  40.1861819 106.1069153
  85.5563056  39.9484911 107.5048492  77.4329186  29.2370044 110.2947114
  77.4713286  28.7033635 111.0884232  76.9269479  28.7105249 109.6758091
  89.8355455  41.7359435 113.1887771  90.3873763  41.8991056 113.9536857
  90.1761649  42.3263872 112.5167796  84.8119948  24.0834584 113.7909656
  84.8761275  24.9449415 113.3787054  84.7487069  23.4708586 113.0582015
  84.2872221  26.1557717 117.4382690  84.9144260  25.7734794 118.0520215
  83.4300140  25.9371919 117.8038383  94.6866329  36.5620692 119.0436426
  95.2306233  37.1750650 118.5491381  94.1053174  37.1200270 119.5603439
  81.0637764  27.9634146 103.3701045  81.3591205  27.0544824 103.3168099
  80.1625799  27.9421885 103.0482047  92.9723842  39.6841410 110.1751454
  92.8474982  38.8831150 109.6662399  93.6302933  40.1787603 109.6865423
  84.5932011  26.0390143 109.3528594  83.8718596  26.6526110 109.2136067
  85.3825266  26.5747907 109.2745240  95.0358751  37.4850430 111.8031004
  94.0889086  37.3655781 111.7309330  95.3841524  36.5972928 111.8857265
  87.3958324  23.3744569 115.6269246  87.9192726  23.6206866 116.3895555
  87.1770657  24.2064604 115.2072383  82.7925605  25.6448244 103.4940370
  82.4638311  24.7645623 103.3115476  83.1464976  25.5895912 104.3816760
  92.0405184  37.2803146 108.0035356  91.8930146  36.3519854 108.1842926
  92.8658678  37.3023237 107.5192431  85.9067428  25.9321213 103.8615848
  86.2463501  26.4607135 103.1394456  86.3539549  26.2701620 104.6374415
  95.6439306  38.1031705 109.0900229  96.5685853  37.8974566 108.9524680
  95.4754609  37.8548106 109.9989570  88.6010869  24.3158264 113.3118916
  88.2607690  23.5166077 113.7139596  87.8949875  24.6159975 112.7395749
  89.2527341  21.4007577 111.7646239  90.0753410  20.9268055 111.6425129
  89.4965405  22.1798060 112.2644925  87.8935575  24.4295835 102.0609141
  88.6143938  24.8077088 101.5572858  87.2700880  25.1484712 102.1644119
  92.0366698  25.1340984 102.9967473  92.2530313  26.0165622 102.6956301
  91.5560766  24.7427197 102.2673115  86.7765920  28.0926697 109.5738218
  86.6310500  28.4067000 110.4662499  86.2991123  28.7111598 109.0209116
  88.6362303  25.0829245 109.6219107  88.6223871  24.1870339 109.2851405
  89.3534731  25.0899909 110.2557393  90.4888433  25.5166585 111.6672235
  90.2306211  26.4383656 111.6656565  89.9573474  25.1197020 112.3572699
  95.4334622  38.6217373 104.4462320  95.6071500  38.0563795 103.6936172
  95.9263513  39.4218267 104.2641810  81.2511582  30.6332042 112.5125879
  80.7065050  31.4091850 112.6446153  82.1290932  30.9802846 112.3545000
  88.0399199  23.9643625 104.8906677  88.1615110  23.0360272 105.0897565
  87.7501241  23.9782311 103.9784993  90.9090389  21.6498536 108.0273397
  90.9312086  21.7137869 107.0725377  91.3258448  20.8103045 108.2213903
 101.2874013  31.3853795 106.0652620 101.7305159  30.6361121 105.6671743
 100.4100524  31.3763932 105.6826352  96.4209795  37.9384137 101.5459218
  97.1160699  38.5590830 101.7646533  96.7632945  37.0879488 101.8211596
  82.0377604  29.7601938 115.4056036  81.2959340  29.9084573 115.9920666
  81.7170348  30.0210203 114.5422785  98.3201218  35.3883842 103.0746549
  98.8452542  35.7271115 102.3495869  98.2323570  34.4530858 102.8909684
  89.9821266  39.3017916 115.2036426  90.2908393  39.0567063 116.0759125
  90.7796748  39.5064555 114.7155296  90.0041878  41.4555826 107.4341802
  89.5646869  40.9632204 108.1274659  90.7549995  40.9128793 107.1933878
  82.4834217  37.6467367 107.4366430  83.3092237  37.3471138 107.0565074
  82.1328269  36.8774989 107.8856219  87.4515751  36.9993835 109.5064104
  86.8295760  36.3364540 109.2066332  88.1220618  37.0254967 108.8237752
  80.6842822  35.5653693 108.3955364  79.8474731  35.1375867 108.2139365
  80.6566468  35.7586136 109.3326155  87.5240278  25.4775623 119.0996610
  87.5728434  26.3537746 118.7174380  88.0662792  24.9353016 118.5268253
  98.0095124  36.0216746 118.3797747  97.2190667  36.0040885 117.8402246
  97.7728478  36.5605040 119.1346784  98.1292999  32.8709212 115.6930476
  98.1791004  32.7059220 116.6345998  98.0206922  32.0036471 115.3028356
  87.0129258  35.5497758 102.9822564  87.1617378  36.2333223 102.3289237
  87.8195701  35.5302848 103.4972020  95.4196761  28.8540140 117.0089782
  96.3206624  28.7146605 116.7173780  95.4944736  29.0194595 117.9487960
  89.7539567  26.2306995 115.8542969  88.8842876  26.5240561 115.5825557
  89.9899047  26.8147440 116.5750232  99.6311196  35.2906154 115.9372497
  99.3396004  35.6536135 116.7735958  99.0183327  34.5773162 115.7585829
 100.8306878  32.8559034 108.4575067 101.6653769  33.2948838 108.6212628
 100.9666007  32.3797687 107.6383313  97.8798384  30.4138769 114.4052555
  98.3552505  30.6066415 113.5971406  96.9563949  30.4697954 114.1595939
  84.7681890  31.5762936 103.9883633  84.5227932  30.6725266 104.1863844
  84.9377805  31.5780086 103.0463111  92.4578600  22.4486612 113.3708389
  92.9760544  23.1847639 113.0454878  92.1033733  22.7550605 114.2055148
  84.0377538  27.3091293 101.4869795  83.3446783  27.3835648 100.8309831
  83.7929290  26.5451637 102.0091312  92.7091195  18.8686895 108.8909286
  92.9892948  18.2010084 109.5169712  93.4941801  19.0615990 108.3783949
  90.5124663  38.0445889 100.4534312  89.9398630  38.6636076 100.0004784
  91.0857457  38.5945250 100.9874234  96.5800053  27.2904529 112.6380861
  97.5317476  27.3902626 112.6593085  96.4103503  26.4982797 113.1478945
  94.6014432  24.3760112 112.8240262  94.0064364  24.6565125 112.1286750
  94.3164129  24.8654013 113.5957003  93.7321923  38.3283039 101.5842894
  94.6652596  38.2628600 101.7875770  93.6445136  39.1639306 101.1257427
  96.3609939  37.6448909  98.5446842  96.2823571  37.3108773  99.4382600
  97.1819606  38.1370677  98.5438314  99.0588131  30.5110648 111.7523160
  99.0264451  29.5726649 111.9382844  99.6688754  30.5894685 111.0188985
  90.8971462  29.3806701  97.7950364  91.8430566  29.2512909  97.8638782
  90.5185706  28.6421363  98.2719793  99.2082619  27.3021692 111.7981444
  98.6921668  26.5180148 111.6111372 100.0922568  26.9740408 111.9627963
  96.8693346  21.0462707 107.7577256  96.6718167  20.7377796 108.6420588
  97.4793052  21.7724346 107.8875186 104.8764681  31.5726655 110.8929197
 105.6068069  31.3111943 111.4536900 104.2671626  30.8355377 110.9331265
 102.9579978  29.7134518 111.4903648 102.2313141  29.5790483 110.8820140
 102.5427265  30.0211346 112.2960366  90.7810154  33.4324447 119.2551021
  91.7013164  33.6103046 119.4491068  90.7459737  32.4880493 119.1030721
  89.0814379  27.3056678  97.7305250  88.1745834  27.0089790  97.8067963
  89.3590360  27.0086496  96.8639536  79.9992319  28.6263041 108.1804296
  79.6795103  27.7728349 107.8878670  79.4525747  28.8411619 108.9362263
  83.7772227  31.3425482 111.8973803  83.9958236  32.2742590 111.9161836
  84.1898000  30.9833457 112.6828606  90.6976444  21.8493567 103.8849491
  89.8877173  21.5040652 104.2604737  91.3860861  21.5401111 104.4737102
  92.6266993  20.9271614 105.5073788  93.1798031  21.3467068 106.1663811
  92.8637079  20.0007362 105.5496744  88.6500092  26.9158688 121.2876551
  88.5496819  27.8653045 121.2188643  88.4321634  26.5876927 120.4152622
  87.8513163  24.1643613  97.8717229  88.7132327  24.4898511  98.1313046
  88.0363507  23.3775109  97.3590295  79.8680579  32.2465953 110.1497418
  79.1744051  31.8319905 109.6367372  80.6153570  32.2886489 109.5530837
  96.0045800  23.0372139 105.0152452  95.4244469  23.6956943 104.6330504
  95.7381732  22.2149484 104.6039869  94.4549366  22.4377197 107.2173772
  94.9549145  22.5493732 106.4088091  95.0984974  22.1338250 107.8574581
  88.5131362  30.3455827 120.1041613  88.0298444  31.1456187 120.3105502
  88.5992301  30.3563772 119.1509057  81.7817322  32.1784206 108.0263432
  81.7588010  32.2771894 107.0745316  82.0917958  33.0249357 108.3480599
  84.4404699  34.2360361 112.1410047  85.3947953  34.2044304 112.0739978
  84.2417223  33.7750985 112.9560273  85.0304082  32.8061478 114.7080845
  85.8496971  33.3005556 114.7315682  85.3040889  31.8893446 114.6798412
  94.7870678  25.1972230 104.0708800  93.8996533  25.4821880 103.8528995
  95.2024667  25.0365993 103.2236077  98.1385214  25.2218751 107.7863139
  98.9145604  25.7115203 108.0587756  97.4133348  25.6476805 108.2435009
 100.5757773  25.9346370 108.8437080 101.1702263  25.6942106 108.1330388
 100.6484356  25.2153501 109.4710616  82.7954928  39.7779981 109.1580245
  82.6609396  39.0180382 108.5918243  82.3786991  40.5020881 108.6909034
  93.9313891  34.9616904  98.1656820  94.6349741  35.1666907  98.7814476
  93.2076540  35.5293666  98.4305904  94.7611702  30.7126766 104.2859090
  94.7046903  31.1695317 103.4466723  95.3140044  29.9517450 104.1081933
  98.5716507  26.5016498 105.1109210  98.3153442  26.1013133 105.9417417
  97.9469376  27.2160292 104.9859349 102.8828845  29.2412571 107.6180501
 102.3228403  29.3105760 108.3912063 102.2772349  29.0653555 106.8979997
  85.9524054  40.6749298 109.3698687  85.8356438  41.6194730 109.2677378
  85.1316500  40.3722860 109.7584487  95.8400589  35.3999434 100.2155280
  96.6746193  34.9680632 100.0332755  95.6784932  35.2281447 101.1432175
  95.4946481  31.9031547 101.5811619  95.4395285  31.7375818 100.6400064
  94.8692536  32.6107580 101.7373809  80.2838996  27.1399611 115.4073042
  80.9297859  26.6298565 115.8960267  80.0756147  27.8768293 115.9816467
  92.8092388  34.2080459 120.9065182  93.6783548  34.3821111 120.5451817
  92.3299140  35.0274876 120.7840912  88.8042606  21.4039656 101.1596938
  88.7921276  22.3481496 101.3165209  89.6966028  21.2209801 100.8656399
  86.9778568  41.3277560 112.5854616  87.8805815  41.3601170 112.9021111
  86.7515938  40.3978011 112.6000952  88.7332170  40.0808546 109.2464694
  87.7827801  40.0810408 109.1329067  89.0364656  39.3341281 108.7300729
  92.6194726  17.9982433 105.4142875  91.8527122  17.4440919 105.5599557
  93.0305431  18.0704301 106.2757026  84.6236487  24.2867228 119.5048056
  85.4867948  23.9304033 119.7151380  84.0501898  23.9481123 120.1923460
 104.4684864  45.9169085 110.3110457 105.1063274  45.7975832 109.6073797
 104.3505707  46.8649929 110.3698409 101.2774570  45.8696513 110.2471982
 100.9393082  45.7537578 109.3592516 102.1464338  45.4687678 110.2272988
  97.1361386  47.7231989 106.2368873  96.5726251  47.6321926 105.4685160
  97.0213781  46.9031894 106.7171365 101.7594353  47.0231365 116.2058187
 101.7482994  46.6284163 115.3338691 101.9214993  46.2897437 116.7991959
  94.6825818  49.2183181 109.0753093  95.4747110  48.8774006 108.6599392
  94.9222468  49.3278156 109.9955246 102.7160944  51.3902957 101.5483337
 102.0648924  51.9757037 101.1617351 103.5105307  51.9209152 101.6078375
  96.6416572  48.4792094 101.9470472  97.4147448  47.9321081 101.8083348
  96.9941970  49.3436343 102.1584933  98.4801614  49.8068476 115.1537371
  98.1891480  50.7114107 115.0384037  99.1158599  49.8485004 115.8681441
  99.4057821  47.1845325 111.7438731 100.0021393  46.9601347 111.0295694
  99.4632793  46.4430070 112.3464179  98.9782849  44.6384760  99.5788922
  99.2308370  44.1166282  98.8172385  98.0407409  44.4750906  99.6815605
 104.0226132  43.6420539 107.3863665 104.8089221  43.2239962 107.0354082
 104.2864837  44.5466631 107.5545313 104.1936210  49.0793389 102.0852322
 103.5582043  49.1528015 102.7973226 103.8633616  49.6686988 101.4071401
 109.4234559  43.5795772 108.2896643 110.1559731  43.0094989 108.5234473
 108.6673915  43.1917372 108.7303149  98.6979138  46.5412866 101.7813297
  98.5815396  45.8657770 102.4494381  98.8081398  46.0545240 100.9645450
 101.0410679  46.0023013 105.4859986 100.6768886  45.4753634 106.1972907
 101.8977795  45.6121482 105.3126471 106.9459980  37.2917346 112.7491252
 106.6143305  38.1612757 112.5252467 106.3505593  36.9753630 113.4285282
 100.6816166  41.0312913 100.4821334 100.8490568  41.8993149 100.8491805
 100.4913335  41.1940195  99.5582624 103.4391499  49.4929892 112.1487165
 103.1392222  50.3954931 112.0402972 103.0942559  49.2262075 113.0008318
  96.8903981  45.9443689 108.1823869  95.9654477  45.8119903 108.3901561
  97.1388394  46.7237908 108.6793812 106.8388643  42.0112432 109.8284602
 105.9305520  41.9427841 109.5343363 106.7876239  42.4884377 110.6566428
 100.6605387  43.4870571 101.4668001 100.5405012  43.9327621 102.3053481
  99.9657975  43.8355888 100.9081539  94.2512792  45.5876962 109.0167658
  94.3805173  45.8411441 109.9307070  93.5710243  46.1804670 108.6972313
  98.4212279  56.2574212 105.1158132  98.3436309  57.2082037 105.1946613
  97.8173923  55.9120085 105.7733059 100.9129509  43.4302078 117.7719499
 100.1362843  43.9895998 117.7622364 101.5520072  43.9158861 118.2934369
 108.7050289  40.2128871 111.6062476 108.0624670  40.5061404 110.9602271
 108.2005218  40.0981791 112.4115673 106.3590453  43.9592044 102.2948335
 107.2708309  44.1919430 102.1196033 105.8500100  44.5429088 101.7323414
  99.1675881  46.2387531 117.3337466  99.9090566  46.7772575 117.0572290
  98.4612867  46.8653820 117.4909018 104.6431221  48.3816672 115.9309628
 105.0514577  47.9399082 115.1864260 103.9208482  47.8069299 116.1843821
 100.9962291  43.3189278 113.3043185 101.8423486  43.7428692 113.4477834
 100.9360929  42.6622903 113.9981748 104.9660035  48.9417862 109.6861917
 104.3368898  49.1063576 108.9837985 104.5785698  49.3559472 110.4572881
 108.8449267  49.8772300 107.0406280 108.1600305  50.2571201 106.4903314
 108.9293117  50.4867627 107.7738228 104.1461736  40.9793647 114.9624358
 103.9022668  41.7335707 114.4258634 104.4221667  41.3578994 115.7971605
 106.1000199  47.5232259 113.6401624 106.3117094  48.1664019 112.9636005
 106.0529947  46.6894576 113.1723554 103.7026428  40.1350080 110.5438196
 102.8410907  40.4331333 110.8354934 103.7288863  40.3520479 109.6119229
 100.5187997  48.6792270 106.9512002 100.9826343  48.9579973 106.1616624
 100.2544795  47.7775715 106.7685093  97.4112078  48.2263752 109.8891765
  97.9813435  48.6551020 109.2509250  98.0020190  47.9446336 110.5875951
  99.4556883  44.8015423 103.7601567 100.1580927  45.2536466 104.2275493
  99.1237512  44.1599241 104.3881460  97.9037245  43.3927179 118.1352776
  97.2735905  44.0743460 118.3688173  97.7973333  43.2810261 117.1905915
  93.1982217  43.0598975 109.0618701  92.4081271  43.3156504 108.5858811
  93.6893465  43.8747313 109.1670741 107.2146027  50.4004214 111.8123981
 108.0363471  49.9984402 111.5306663 107.2108430  50.2972449 112.7640097
  95.1496963  43.4243555 106.0202177  94.3528126  43.5362249 106.5385673
  94.9222555  43.7630207 105.1543068 100.9802630  49.9488258 113.9684692
 101.0447063  50.4108665 114.8042864 100.2713554  49.3185623 114.0967002
  91.4819920  43.3129466 111.4933691  91.7327959  44.1976476 111.7591267
  92.0179469  43.1334067 110.7208783 115.3052020  46.7442963 108.1608953
 114.5515728  46.1750361 108.0052957 115.4399561  46.7105627 109.1079588
 100.6950648  51.6156365 103.8363672 100.5596323  52.4607901 104.2648520
 101.2360460  51.8175643 103.0729606  97.1817988  37.6947945 120.4978027
  96.7884933  37.1414144 121.1725672  97.9984128  38.0058524 120.8884545
  94.1480045  49.1331803 104.4091597  94.6604566  49.9275054 104.5597162
  94.8002758  48.4358094 104.3425199  95.9574930  52.2497560 106.4914350
  96.1341558  53.1715524 106.3035334  96.7531764  51.9355979 106.9208730
 100.0985949  39.1105824 118.0898284 100.8395662  39.7112977 118.0102746
 100.3303871  38.3683462 117.5316327  95.2427287  44.2962191 116.3676514
  95.1280802  43.3947449 116.6683613  94.3871804  44.5425888 116.0161330
 102.3219124  52.2379932 117.9664014 101.8782979  51.4516310 117.6484919
 102.9836338  52.4259082 117.3007905  97.0806246  53.7675733 112.4924693
  97.6313671  53.6392797 111.7201687  96.2417721  54.0670622 112.1419586
 104.4200362  52.5182732 115.9945416 104.4018838  53.3391613 115.5025685
 105.3420282  52.3936807 116.2195557 100.8773417  50.0326861 116.8368924
 101.4101753  49.2715149 116.6068232 100.3487498  49.7400513 117.5793078
 104.0443112  35.1386927 112.3662566 103.7007381  36.0288569 112.2901676
 104.4122074  34.9488585 111.5032151  92.1128962  47.4620458 105.1851168
  92.9504184  47.8717466 104.9684876  92.2907230  46.5219900 105.1551362
 104.0093394  45.1295538 100.8735001 103.4940018  45.9000143 101.1123388
 103.7370703  44.4560674 101.4968062 101.5940505  39.9745239 105.9320239
 100.7382102  39.5852089 105.7525878 102.0067457  40.0537200 105.0720025
 103.1239652  37.5091582 110.3311799 102.6204448  37.4721717 109.5179604
 103.4170259  38.4184325 110.3908456  99.3682538  37.5930312 109.3377981
 100.2335535  37.3973121 108.9783870  99.4360047  37.3640664 110.2647337
 108.9827668  47.8827893 102.8088174 108.2057111  47.5439052 102.3643336
 109.6619149  47.8880516 102.1343139 103.7979697  43.0022630 102.6994782
 103.4929833  43.3168780 103.5504925 104.7510140  43.0804050 102.7422115
 102.2426129  49.1612854 104.3487736 101.7147491  48.4265613 104.0360973
 101.7413632  49.9387530 104.1027704 107.2218975  47.3561874 109.4654782
 106.5642650  48.0461136 109.5534911 108.0259375  47.7458306 109.8088769
  96.9744857  39.8232520 106.7094347  97.5488609  39.6007701 105.9767540
  97.5615839  39.8921214 107.4622949 106.0324434  45.7106247 107.5158724
 106.5456316  46.3436239 108.0180434 106.6825658  45.1107442 107.1502084
  97.3014444  41.8536981 100.7290233  96.4651756  42.1911667 101.0499507
  97.1619214  41.7185961  99.7917370  99.2767525  36.6973769 105.4369417
  98.6231937  36.3822786 104.8126032  99.2347999  36.0749509 106.1629240
 100.3878729  46.9793064  97.3522709  99.4805791  46.7482317  97.5513858
 100.8849761  46.1830683  97.5396690 103.2946808  55.6890571 100.2719395
 102.6208507  55.9922268 100.8804353 103.6812630  56.4919651  99.9224852
 102.5105265  43.1855702 109.7617064 101.5927826  43.4070649 109.6038753
 102.9265409  43.2602013 108.9028772 103.2940313  44.5847118 104.8919745
 104.0412132  45.0968515 104.5826867 103.5631902  44.2631171 105.7524138
 101.5666963  47.0805659 101.8746699 100.6578182  46.7964692 101.9719169
 101.5962047  47.5004737 101.0150006 106.7986230  50.6912248 105.6437867
 106.3448557  49.8503158 105.7003057 106.1680197  51.3273647 105.9812647
 105.7419150  41.6204234 106.8738534 105.0041907  41.1081621 107.2048777
 105.9945923  41.1804616 106.0621811 105.2419170  52.5288745 106.5787685
 105.5342144  53.0893802 105.8600050 105.7517790  52.8217306 107.3340844
 105.8430777  34.3980486 107.4680303 106.1489654  33.5377850 107.1806218
 106.5683382  34.9898107 107.2679297  92.1355133  44.8011173 105.8561901
  91.9379533  44.2080534 105.1312968  91.5801797  44.4963383 106.5737840
 100.1151857  44.6934279 107.9756494 100.1700467  43.7408116 107.8998971
  99.3043059  44.8493718 108.4597793 101.2643051  48.6214402  99.2134778
 100.8262481  47.9050261  98.7540415 102.0053492  48.8490517  98.6519869
  98.0544217  43.3111339 105.7346873  97.2412082  43.6105510 106.1412065
  98.5503211  42.9167028 106.4521356 100.2052795  53.3069096 107.6681138
 100.1628974  53.5329942 106.7389670 101.1215494  53.0732471 107.8166939
 103.6518429  43.7753164 114.5661767 104.0067816  44.0024637 115.4256233
 104.2990560  44.1071540 113.9439022 109.3816165  46.8971599 105.2711096
 109.2434064  47.0873195 104.3432285 109.0252384  47.6590982 105.7279147
  97.5458292  40.8829695 111.3508108  98.1857671  40.7418454 110.6531072
  96.7135822  40.5964208 110.9746710 109.4085545  48.9648126 110.2822368
 109.8422052  48.8723416 111.1305422 110.1217126  48.9405627 109.6442384
  98.3218596  50.1832125 107.4643101  99.1159194  49.6882445 107.2625676
  97.6110288  49.6549988 107.1010806 103.1413440  52.5650221 111.8155468
 103.1950462  53.1341157 112.5833184 102.2728221  52.7352106 111.4509505
  94.6301359  44.3275207 103.5402853  93.6998947  44.2659662 103.7572815
  94.7258831  43.8051160 102.7439495  94.5486908  40.8530020 106.1281095
  94.8093725  41.7675353 106.0190255  95.3704080  40.3854462 106.2777708
  96.0211833  42.2667777 113.2979920  96.6934887  42.0585139 112.6492568
  95.1941620  42.0689863 112.8585152 110.2701095  49.0071827 112.8155253
 110.4636985  49.9117638 113.0614528 110.1701713  48.5479246 113.6493838
 101.9237405  38.8929718 115.3145580 101.2765320  39.5919667 115.2210057
 102.6938421  39.3265862 115.6821829 105.3316203  49.1578570 118.3896134
 105.1801710  48.9289122 117.4726217 105.3220883  50.1149171 118.4027479
 102.1001540  46.7310483 113.3742400 103.0293600  46.8821642 113.2011367
 101.6792570  46.8194503 112.5191047 100.8989872  50.7561147 111.1440938
 100.7600957  50.3879931 112.0166876 100.1104468  51.2708786 110.9724896
 101.4938024  55.8570244 102.4866474 101.6689779  55.3858287 103.3012097
 100.8070812  56.4836010 102.7147735 102.4495087  50.1342750 108.5329776
 102.1144919  50.0943520 109.4287425 101.9499032  49.4687466 108.0600186
  96.4239331  45.5410380 114.0582357  96.2859129  44.8090619 114.6593896
  97.3344254  45.4519280 113.7766544 105.3854278  47.4798784  98.8066835
 104.7683449  46.7545612  98.7099888 104.9170767  48.2408144  98.4633909
  99.0521631  45.2530339 113.5466036  99.7621250  44.6123531 113.5052655
  99.0090939  45.5043234 114.4692217 107.0408410  52.1897692 116.4672616
 106.9820956  51.5056913 115.8003199 107.4427928  52.9316682 116.0153242
  97.7650565  42.2395557 115.3661676  97.2287922  41.7886295 116.0183272
  97.1767274  42.3741466 114.6232140  96.0599109  59.0059606 109.2606334
  96.2995707  59.6378130 109.9385353  95.2168305  58.6547646 109.5471694
  97.1752824  41.6984208  97.9288139  96.2982291  41.5773009  97.5650386
  97.6510577  40.9070287  97.6767028 107.0425817  50.1537276 114.6986595
 106.1552596  49.8163198 114.8212994 107.6124368  49.4220308 114.9355361
  88.6954964  46.4861368 108.0229647  89.3826004  46.1723098 107.4350662
  88.5403093  47.3902733 107.7496898  93.4989687  41.3751565 112.4514670
  93.4147875  40.7677234 111.7165080  92.6772393  41.8660583 112.4524167
 100.5726971  54.8138729 111.6647838 100.4997142  55.6193700 112.1767143
 100.1304364  55.0130695 110.8395860 100.3616750  54.0510499 105.1750660
  99.5784272  54.5932179 105.2688885 101.0609495  54.5684478 105.5744901
 103.6713400  39.8605128 107.8184865 104.1682100  39.1075091 107.4985936
 102.9000382  39.8969445 107.2528075 111.5243158  45.5645494 109.4603157
 111.5133034  46.4470209 109.0897090 110.6560537  45.2117045 109.2657694
 103.0325654  54.7125563 113.8205997 103.7453626  55.3473028 113.7481899
 102.5415683  54.8089429 113.0045999 104.7543181  48.6176815 105.3923289
 103.8199460  48.7378278 105.2227993 104.9319850  47.7149282 105.1283299
 100.2548369  42.0022511 107.5456550  99.8846157  41.4493552 108.2337456
 100.7507462  41.3980645 106.9931550 108.1415732  44.4594135 105.9273323
 108.6076185  45.2922126 105.8533626 108.5923233  43.9939116 106.6318581
  98.0837568  52.4620006 114.6411568  98.7847027  53.0956489 114.7940962
  97.6132683  52.8034738 113.8807207 106.2091964  50.8037956 102.9259475
 106.4851807  50.6894551 103.8353349 105.3396462  50.4055441 102.8871648
 106.1132395  36.8274722 109.9664224 105.1995475  37.0578949 110.1346431
 106.5425497  36.9113166 110.8178257 105.8838854  45.0164614 112.4664118
 105.2310304  45.2640521 111.8116571 106.2619234  44.2028752 112.1326596
 102.8446028  55.0524307 106.5692289 103.0268422  54.2345963 107.0320041
 103.6679014  55.2691999 106.1317179 103.1788193  53.9792492 103.8307337
 103.7075959  53.4684947 103.2177499 103.4416413  53.6635022 104.6952870
 101.9326427  45.7584425 118.9530155 101.2567064  45.6578554 119.6232531
 102.7554061  45.6023638 119.4166153  93.6805286  51.9956361 111.5742671
  94.2658723  51.2500049 111.7070575  93.4830124  52.3060318 112.4579335
  96.5343941  55.0307609 106.5905113  95.8654316  55.5153736 106.1069153
  96.3956811  55.2776829 107.5048492  88.2722941  44.5661961 110.2947114
  88.3107040  44.0325552 111.0884232  87.7663233  44.0397167 109.6758091
 100.6749210  57.0651352 113.1887771 101.2267518  57.2282974 113.9536857
 101.0155403  57.6555790 112.5167796  95.6513703  39.4126502 113.7909656
  95.7155029  40.2741333 113.3787054  95.5880823  38.8000504 113.0582015
  95.1265975  41.4849635 117.4382690  95.7538014  41.1026712 118.0520215
  94.2693894  41.2663836 117.8038383 105.5260084  51.8912610 119.0436426
 106.0699988  52.5042568 118.5491381 104.9446929  52.4492188 119.5603439
  91.9031518  43.2926064 103.3701045  92.1984959  42.3836742 103.3168099
  91.0019554  43.2713803 103.0482047 103.8117597  55.0133328 110.1751454
 103.6868736  54.2123068 109.6662399 104.4696688  55.5079521 109.6865423
  95.4325765  41.3682060 109.3528594  94.7112351  41.9818028 109.2136067
  96.2219021  41.9039825 109.2745240 105.8752505  52.8142348 111.8031004
 104.9282841  52.6947699 111.7309330 106.2235278  51.9264846 111.8857265
  98.2352079  38.7036487 115.6269246  98.7586480  38.9498783 116.3895555
  98.0164412  39.5356522 115.2072383  93.6319360  40.9740161 103.4940370
  93.3032066  40.0937540 103.3115476  93.9858730  40.9187830 104.3816760
 102.8798939  52.6095064 108.0035356 102.7323901  51.6811771 108.1842926
 103.7052432  52.6315155 107.5192431  96.7461183  41.2613131 103.8615848
  97.0857255  41.7899052 103.1394456  97.1933303  41.5993537 104.6374415
 106.4833060  53.4323623 109.0900229 107.4079608  53.2266484 108.9524680
 106.3148364  53.1840024 109.9989570  99.4404624  39.6450182 113.3118916
  99.1001444  38.8457995 113.7139596  98.7343630  39.9451893 112.7395749
 100.0921095  36.7299494 111.7646239 100.9147165  36.2559972 111.6425129
 100.3359159  37.5089978 112.2644925  98.7329330  39.7587753 102.0609141
  99.4537692  40.1369005 101.5572858  98.1094634  40.4776630 102.1644119
 102.8760453  40.4632902 102.9967473 103.0924067  41.3457540 102.6956301
 102.3954520  40.0719115 102.2673115  97.6159674  43.4218615 109.5738218
  97.4704255  43.7358918 110.4662499  97.1384878  44.0403515 109.0209116
  99.4756057  40.4121163 109.6219107  99.4617626  39.5162256 109.2851405
 100.1928485  40.4191827 110.2557393 101.3282188  40.8458503 111.6672235
 101.0699966  41.7675574 111.6656565 100.7967228  40.4488938 112.3572699
 106.2728377  53.9509290 104.4462320 106.4465254  53.3855713 103.6936172
 106.7657268  54.7510185 104.2641810  92.0905336  45.9623959 112.5125879
  91.5458804  46.7383767 112.6446153  92.9684686  46.3094764 112.3545000
  98.8792953  39.2935543 104.8906677  99.0008864  38.3652189 105.0897565
  98.5894995  39.3074229 103.9784993 101.7484143  36.9790454 108.0273397
 101.7705840  37.0429787 107.0725377 102.1652202  36.1394962 108.2213903
 112.1267768  46.7145713 106.0652620 112.5698914  45.9653038 105.6671743
 111.2494278  46.7055850 105.6826352 107.2603549  53.2676055 101.5459218
 107.9554454  53.8882747 101.7646533 107.6026699  52.4171406 101.8211596
  92.8771358  45.0893856 115.4056036  92.1353094  45.2376491 115.9920666
  92.5564103  45.3502121 114.5422785 109.1594972  50.7175760 103.0746549
 109.6846296  51.0563033 102.3495869 109.0717325  49.7822775 102.8909684
 100.8215021  54.6309834 115.2036426 101.1302147  54.3858981 116.0759125
 101.6190503  54.8356472 114.7155296 100.8435633  56.7847743 107.4341802
 100.4040623  56.2924122 108.1274659 101.5943750  56.2420711 107.1933878
  93.3227972  52.9759284 107.4366430  94.1485992  52.6763056 107.0565074
  92.9722024  52.2066907 107.8856219  98.2909505  52.3285752 109.5064104
  97.6689514  51.6656458 109.2066332  98.9614372  52.3546884 108.8237752
  91.5236577  50.8945611 108.3955364  90.6868485  50.4667785 108.2139365
  91.4960222  51.0878054 109.3326155  98.3634033  40.8067541 119.0996610
  98.4122188  41.6829663 118.7174380  98.9056547  40.2644934 118.5268253
 108.8488878  51.3508664 118.3797747 108.0584422  51.3332803 117.8402246
 108.6122233  51.8896957 119.1346784 108.9686753  48.2001130 115.6930476
 109.0184758  48.0351138 116.6345998 108.8600677  47.3328389 115.3028356
  97.8523012  50.8789676 102.9822564  98.0011132  51.5625140 102.3289237
  98.6589455  50.8594766 103.4972020 106.2590516  44.1832058 117.0089782
 107.1600378  44.0438523 116.7173780 106.3338490  44.3486513 117.9487960
 100.5933321  41.5598913 115.8542969  99.7236630  41.8532479 115.5825557
 100.8292801  42.1439358 116.5750232 110.4704950  50.6198072 115.9372497
 110.1789758  50.9828052 116.7735958 109.8577081  49.9065080 115.7585829
 111.6700632  48.1850951 108.4575067 112.5047524  48.6240756 108.6212628
 111.8059761  47.7089605 107.6383313 108.7192138  45.7430686 114.4052555
 109.1946260  45.9358333 113.5971406 107.7957704  45.7989872 114.1595939
  95.6075645  46.9054853 103.9883633  95.3621687  46.0017183 104.1863844
  95.7771560  46.9072004 103.0463111 103.2972355  37.7778530 113.3708389
 103.8154299  38.5139557 113.0454878 102.9427488  38.0842523 114.2055148
  94.8771293  42.6383211 101.4869795  94.1840537  42.7127566 100.8309831
  94.6323044  41.8743555 102.0091312 103.5484949  34.1978812 108.8909286
 103.8286703  33.5302001 109.5169712 104.3335556  34.3907908 108.3783949
 101.3518418  53.3737806 100.4534312 100.7792385  53.9927993 100.0004784
 101.9251211  53.9237168 100.9874234 107.4193807  42.6196446 112.6380861
 108.3711230  42.7194544 112.6593085 107.2497258  41.8274715 113.1478945
 105.4408187  39.7052030 112.8240262 104.8458119  39.9857042 112.1286750
 105.1557884  40.1945931 113.5957003 104.5715677  53.6574956 101.5842894
 105.5046350  53.5920518 101.7875770 104.4838890  54.4931223 101.1257427
 107.2003694  52.9740827  98.5446842 107.1217326  52.6400690  99.4382600
 108.0213361  53.4662595  98.5438314 109.8981885  45.8402566 111.7523160
 109.8658205  44.9018567 111.9382844 110.5082509  45.9186603 111.0188985
 101.7365216  44.7098619  97.7950364 102.6824321  44.5804827  97.8638782
 101.3579461  43.9713281  98.2719793 110.0476374  42.6313609 111.7981444
 109.5315422  41.8472066 111.6111372 110.9316322  42.3032326 111.9627963
 107.7087101  36.3754625 107.7577256 107.5111922  36.0669713 108.6420588
 108.3186806  37.1016264 107.8875186 115.7158435  46.9018573 110.8929197
 116.4461823  46.6403861 111.4536900 115.1065380  46.1647295 110.9331265
 113.7973732  45.0426435 111.4903648 113.0706896  44.9082400 110.8820140
 113.3821019  45.3503264 112.2960366 101.6203909  48.7616365 119.2551021
 102.5406918  48.9394964 119.4491068 101.5853492  47.8172411 119.1030721
  99.9208133  42.6348595  97.7305250  99.0139589  42.3381708  97.8067963
 100.1984114  42.3378414  96.8639536  90.8386074  43.9554959 108.1804296
  90.5188858  43.1020267 107.8878670  90.2919502  44.1703537 108.9362263
  94.6165981  46.6717400 111.8973803  94.8351991  47.6034508 111.9161836
  95.0291755  46.3125374 112.6828606 101.5370199  37.1785485 103.8849491
 100.7270927  36.8332570 104.2604737 102.2254616  36.8693029 104.4737102
 103.4660747  36.2563532 105.5073788 104.0191786  36.6758985 106.1663811
 103.7030834  35.3299280 105.5496744  99.4893846  42.2450606 121.2876551
  99.3890573  43.1944963 121.2188643  99.2715388  41.9168844 120.4152622
  98.6906918  39.4935531  97.8717229  99.5526082  39.8190429  98.1313046
  98.8757262  38.7067027  97.3590295  90.7074334  47.5757870 110.1497418
  90.0137805  47.1611823 109.6367372  91.4547325  47.6178407 109.5530837
 106.8439554  38.3664057 105.0152452 106.2638223  39.0248861 104.6330504
 106.5775487  37.5441402 104.6039869 105.2943121  37.7669115 107.2173772
 105.7942899  37.8785649 106.4088091 105.9378729  37.4630168 107.8574581
  99.3525116  45.6747744 120.1041613  98.8692198  46.4748105 120.3105502
  99.4386056  45.6855689 119.1509057  92.6211076  47.5076124 108.0263432
  92.5981764  47.6063811 107.0745316  92.9311713  48.3541275 108.3480599
  95.2798454  49.5652279 112.1410047  96.2341708  49.5336221 112.0739978
  95.0810978  49.1042903 112.9560273  95.8697836  48.1353395 114.7080845
  96.6890725  48.6297474 114.7315682  96.1434644  47.2185363 114.6798412
 105.6264432  40.5264147 104.0708800 104.7390287  40.8113798 103.8528995
 106.0418421  40.3657911 103.2236077 108.9778968  40.5510668 107.7863139
 109.7539359  41.0407121 108.0587756 108.2527103  40.9768723 108.2435009
 111.4151527  41.2638288 108.8437080 112.0096018  41.0234024 108.1330388
 111.4878111  40.5445418 109.4710616  93.6348683  55.1071899 109.1580245
  93.5003151  54.3472300 108.5918243  93.2180745  55.8312798 108.6909034
 104.7707646  50.2908822  98.1656820 105.4743496  50.4958825  98.7814476
 104.0470295  50.8585584  98.4305904 105.6005456  46.0418683 104.2859090
 105.5440657  46.4987235 103.4466723 106.1533799  45.2809368 104.1081933
 109.4110262  41.8308415 105.1109210 109.1547196  41.4305051 105.9417417
 108.7863130  42.5452209 104.9859349 113.7222600  44.5704489 107.6180501
 113.1622158  44.6397678 108.3912063 113.1166103  44.3945473 106.8979997
  96.7917809  56.0041216 109.3698687  96.6750193  56.9486648 109.2677378
  95.9710255  55.7014777 109.7584487 106.6794343  50.7291351 100.2155280
 107.5139947  50.2972550 100.0332755 106.5178686  50.5573365 101.1432175
 106.3340235  47.2323465 101.5811619 106.2789039  47.0667736 100.6400064
 105.7086291  47.9399498 101.7373809  91.1232750  42.4691529 115.4073042
  91.7691614  41.9590483 115.8960267  90.9149901  43.2060211 115.9816467
 103.6486143  49.5372377 120.9065182 104.5177302  49.7113029 120.5451817
 103.1692894  50.3566793 120.7840912  99.6436361  36.7331574 101.1596938
  99.6315031  37.6773414 101.3165209 100.5359783  36.5501719 100.8656399
  97.8172323  56.6569478 112.5854616  98.7199569  56.6893088 112.9021111
  97.5909693  55.7269928 112.6000952  99.5725925  55.4100464 109.2464694
  98.6221556  55.4102326 109.1329067  99.8758411  54.6633199 108.7300729
 103.4588480  33.3274350 105.4142875 102.6920876  32.7732837 105.5599557
 103.8699185  33.3996219 106.2757026  95.4630241  39.6159146 119.5048056
  96.3261703  39.2595951 119.7151380  94.8895652  39.2773041 120.1923460
 115.3078618  61.2461002 110.3110457 115.9457028  61.1267750 109.6073797
 115.1899461  62.1941846 110.3698409 112.1168325  61.1988431 110.2471982
 111.7786836  61.0829495 109.3592516 112.9858093  60.7979596 110.2272988
 107.9755140  63.0523907 106.2368873 107.4120005  62.9613844 105.4685160
 107.8607535  62.2323811 106.7171365 112.5988108  62.3523282 116.2058187
 112.5876748  61.9576081 115.3338691 112.7608747  61.6189355 116.7991959
 105.5219572  64.5475099 109.0753093 106.3140864  64.2065923 108.6599392
 105.7616222  64.6570074 109.9955246 113.5554699  66.7194875 101.5483337
 112.9042679  67.3048955 101.1617351 114.3499062  67.2501070 101.6078375
 107.4810326  63.8084012 101.9470472 108.2541202  63.2612999 101.8083348
 107.8335725  64.6728261 102.1584933 109.3195369  65.1360394 115.1537371
 109.0285235  66.0406025 115.0384037 109.9552353  65.1776922 115.8681441
 110.2451576  62.5137243 111.7438731 110.8415148  62.2893265 111.0295694
 110.3026547  61.7721988 112.3464179 109.8176604  59.9676678  99.5788922
 110.0702125  59.4458199  98.8172385 108.8801163  59.8042823  99.6815605
 114.8619887  58.9712456 107.3863665 115.6482976  58.5531879 107.0354082
 115.1258591  59.8758549 107.5545313 115.0329964  64.4085307 102.0852322
 114.3975797  64.4819933 102.7973226 114.7027371  64.9978905 101.4071401
 120.2628314  58.9087690 108.2896643 120.9953486  58.3386906 108.5234473
 119.5067670  58.5209290 108.7303149 109.5372893  61.8704784 101.7813297
 109.4209151  61.1949687 102.4494381 109.6475153  61.3837158 100.9645450
 111.8804434  61.3314931 105.4859986 111.5162641  60.8045552 106.1972907
 112.7371550  60.9413400 105.3126471 117.7853734  52.6209264 112.7491252
 117.4537059  53.4904675 112.5252467 117.1899348  52.3045548 113.4285282
 111.5209921  56.3604831 100.4821334 111.6884323  57.2285067 100.8491805
 111.3307090  56.5232112  99.5582624 114.2785254  64.8221810 112.1487165
 113.9785977  65.7246848 112.0402972 113.9336313  64.5553993 113.0008318
 107.7297735  61.2735606 108.1823869 106.8048232  61.1411821 108.3901561
 107.9782148  62.0529826 108.6793812 117.6782398  57.3404350 109.8284602
 116.7699275  57.2719758 109.5343363 117.6269993  57.8176295 110.6566428
 111.4999141  58.8162488 101.4668001 111.3798767  59.2619539 102.3053481
 110.8051730  59.1647806 100.9081539 105.0906546  60.9168880 109.0167658
 105.2198927  61.1703359 109.9307070 104.4103998  61.5096588 108.6972313
 109.2606034  71.5866130 105.1158132 109.1830063  72.5373955 105.1946613
 108.6567677  71.2412002 105.7733059 111.7523263  58.7593995 117.7719499
 110.9756597  59.3187916 117.7622364 112.3913826  59.2450778 118.2934369
 119.5444044  55.5420788 111.6062476 118.9018424  55.8353321 110.9602271
 119.0398972  55.4273709 112.4115673 117.1984208  59.2883961 102.2948335
 118.1102064  59.5211348 102.1196033 116.6893855  59.8721006 101.7323414
 110.0069636  61.5679449 117.3337466 110.7484320  62.1064493 117.0572290
 109.3006621  62.1945738 117.4909018 115.4824975  63.7108589 115.9309628
 115.8908331  63.2691000 115.1864260 114.7602237  63.1361217 116.1843821
 111.8356045  58.6481196 113.3043185 112.6817241  59.0720610 113.4477834
 111.7754683  57.9914820 113.9981748 115.8053790  64.2709780 109.6861917
 115.1762652  64.4355494 108.9837985 115.4179452  64.6851389 110.4572881
 119.6843022  65.2064218 107.0406280 118.9994060  65.5863119 106.4903314
 119.7686871  65.8159544 107.7738228 114.9855491  56.3085564 114.9624358
 114.7416423  57.0627625 114.4258634 115.2615421  56.6870912 115.7971605
 116.9393953  62.8524177 113.6401624 117.1510849  63.4955937 112.9636005
 116.8923702  62.0186493 113.1723554 114.5420182  55.4641997 110.5438196
 113.6804661  55.7623251 110.8354934 114.5682617  55.6812396 109.6119229
 111.3581752  64.0084188 106.9512002 111.8220097  64.2871891 106.1616624
 111.0938550  63.1067633 106.7685093 108.2505833  63.5555669 109.8891765
 108.8207190  63.9842938 109.2509250 108.8413945  63.2738254 110.5875951
 110.2950638  60.1307340 103.7601567 110.9974681  60.5828384 104.2275493
 109.9631266  59.4891159 104.3881460 108.7430999  58.7219097 118.1352776
 108.1129660  59.4035378 118.3688173 108.6367087  58.6102179 117.1905915
 104.0375972  58.3890893 109.0618701 103.2475026  58.6448422 108.5858811
 104.5287219  59.2039231 109.1670741 118.0539781  65.7296132 111.8123981
 118.8757225  65.3276319 111.5306663 118.0502184  65.6264366 112.7640097
 105.9890717  58.7535472 106.0202177 105.1921880  58.8654166 106.5385673
 105.7616309  59.0922124 105.1543068 111.8196385  65.2780175 113.9684692
 111.8840817  65.7400583 114.8042864 111.1107309  64.6477540 114.0967002
 102.3213675  58.6421383 111.4933691 102.5721713  59.5268393 111.7591267
 102.8573223  58.4625985 110.7208783 126.1445774  62.0734881 108.1608953
 125.3909483  61.5042279 108.0052957 126.2793316  62.0397545 109.1079588
 111.5344402  66.9448283 103.8363672 111.3990077  67.7899819 104.2648520
 112.0754215  67.1467561 103.0729606 108.0211742  53.0239863 120.4978027
 107.6278688  52.4706061 121.1725672 108.8377882  53.3350441 120.8884545
 104.9873800  64.4623721 104.4091597 105.4998320  65.2566971 104.5597162
 105.6396513  63.7650011 104.3425199 106.7968685  67.5789477 106.4914350
 106.9735313  68.5007442 106.3035334 107.5925518  67.2647896 106.9208730
 110.9379703  54.4397742 118.0898284 111.6789416  55.0404895 118.0102746
 111.1697626  53.6975380 117.5316327 106.0821041  59.6254109 116.3676514
 105.9674556  58.7239366 116.6683613 105.2265559  59.8717806 116.0161330
 113.1612879  67.5671849 117.9664014 112.7176733  66.7808228 117.6484919
 113.8230092  67.7551000 117.3007905 107.9200000  69.0967651 112.4924693
 108.4707425  68.9684714 111.7201687 107.0811476  69.3962540 112.1419586
 115.2594117  67.8474649 115.9945416 115.2412592  68.6683530 115.5025685
 116.1814037  67.7228725 116.2195557 111.7167171  65.3618779 116.8368924
 112.2495508  64.6007067 116.6068232 111.1881252  65.0692431 117.5793078
 114.8836866  50.4678845 112.3662566 114.5401135  51.3580486 112.2901676
 115.2515829  50.2780502 111.5032151 102.9522717  62.7912375 105.1851168
 103.7897939  63.2009384 104.9684876 103.1300984  61.8511817 105.1551362
 114.8487149  60.4587456 100.8735001 114.3333772  61.2292061 101.1123388
 114.5764457  59.7852592 101.4968062 112.4334260  55.3037157 105.9320239
 111.5775856  54.9144007 105.7525878 112.8461212  55.3829117 105.0720025
 113.9633406  52.8383500 110.3311799 113.4598202  52.8013635 109.5179604
 114.2564013  53.7476243 110.3908456 110.2076292  52.9222230 109.3377981
 111.0729289  52.7265038 108.9783870 110.2753801  52.6932581 110.2647337
 119.8221423  63.2119811 102.8088174 119.0450866  62.8730970 102.3643336
 120.5012904  63.2172434 102.1343139 114.6373452  58.3314548 102.6994782
 114.3323588  58.6460697 103.5504925 115.5903894  58.4095968 102.7422115
 113.0819884  64.4904771 104.3487736 112.5541245  63.7557531 104.0360973
 112.5807387  65.2679448 104.1027704 118.0612730  62.6853792 109.4654782
 117.4036404  63.3753053 109.5534911 118.8653129  63.0750224 109.8088769
 107.8138611  55.1524438 106.7094347 108.3882363  54.9299619 105.9767540
 108.4009594  55.2213132 107.4622949 116.8718189  61.0398165 107.5158724
 117.3850070  61.6728156 108.0180434 117.5219412  60.4399360 107.1502084
 108.1408199  57.1828899 100.7290233 107.3045511  57.5203585 101.0499507
 108.0012968  57.0477878  99.7917370 110.1161279  52.0265687 105.4369417
 109.4625691  51.7114704 104.8126032 110.0741753  51.4041427 106.1629240
 111.2272484  62.3084982  97.3522709 110.3199546  62.0774235  97.5513858
 111.7243516  61.5122601  97.5396690 114.1340563  71.0182489 100.2719395
 113.4602262  71.3214186 100.8804353 114.5206385  71.8211569  99.9224852
 113.3499019  58.5147620 109.7617064 112.4321581  58.7362567 109.6038753
 113.7659163  58.5893931 108.9028772 114.1334067  59.9139036 104.8919745
 114.8805886  60.4260433 104.5826867 114.4025657  59.5923088 105.7524138
 112.4060717  62.4097576 101.8746699 111.4971937  62.1256609 101.9719169
 112.4355801  62.8296655 101.0150006 117.6379985  66.0204166 105.6437867
 117.1842312  65.1795076 105.7003057 117.0073952  66.6565564 105.9812647
 116.5812904  56.9496152 106.8738534 115.8435661  56.4373538 107.2048777
 116.8339678  56.5096534 106.0621811 116.0812924  67.8580663 106.5787685
 116.3735898  68.4185720 105.8600050 116.5911545  68.1509224 107.3340844
 116.6824532  49.7272404 107.4680303 116.9883409  48.8669767 107.1806218
 117.4077137  50.3190024 107.2679297 102.9748888  60.1303091 105.8561901
 102.7773288  59.5372451 105.1312968 102.4195552  59.8255301 106.5737840
 110.9545611  60.0226197 107.9756494 111.0094221  59.0700033 107.8998971
 110.1436813  60.1785636 108.4597793 112.1036805  63.9506320  99.2134778
 111.6656235  63.2342179  98.7540415 112.8447246  64.1782435  98.6519869
 108.8937971  58.6403257 105.7346873 108.0805837  58.9397427 106.1412065
 109.3896966  58.2458946 106.4521356 111.0446549  68.6361014 107.6681138
 111.0022728  68.8621860 106.7389670 111.9609248  68.4024388 107.8166939
 114.4912183  59.1045081 114.5661767 114.8461571  59.3316554 115.4256233
 115.1384314  59.4363458 113.9439022 120.2209920  62.2263517 105.2711096
 120.0827819  62.4165113 104.3432285 119.8646139  62.9882900 105.7279147
 108.3852046  56.2121612 111.3508108 109.0251425  56.0710371 110.6531072
 107.5529577  55.9256126 110.9746710 120.2479300  64.2940044 110.2822368
 120.6815806  64.2015333 111.1305422 120.9610880  64.2697545 109.6442384
 109.1612350  65.5124043 107.4643101 109.9552949  65.0174363 107.2625676
 108.4504042  64.9841906 107.1010806 113.9807194  67.8942138 111.8155468
 114.0344217  68.4633075 112.5833184 113.1121976  68.0644023 111.4509505
 105.4695113  59.6567124 103.5402853 104.5392702  59.5951580 103.7572815
 105.5652585  59.1343077 102.7439495 105.3880663  56.1821937 106.1281095
 105.6487480  57.0967271 106.0190255 106.2097835  55.7146380 106.2777708
 106.8605588  57.5959694 113.2979920 107.5328641  57.3877057 112.6492568
 106.0335374  57.3981780 112.8585152 121.1094849  64.3363745 112.8155253
 121.3030739  65.2409555 113.0614528 121.0095467  63.8771164 113.6493838
 112.7631160  54.2221635 115.3145580 112.1159075  54.9211585 115.2210057
 113.5332175  54.6557779 115.6821829 116.1709958  64.4870488 118.3896134
 116.0195464  64.2581039 117.4726217 116.1614637  65.4441089 118.4027479
 112.9395294  62.0602400 113.3742400 113.8687354  62.2113560 113.2011367
 112.5186324  62.1486421 112.5191047 111.7383626  66.0853065 111.1440938
 111.5994712  65.7171849 112.0166876 110.9498222  66.6000704 110.9724896
 112.3331778  71.1862161 102.4866474 112.5083534  70.7150204 103.3012097
 111.6464566  71.8127927 102.7147735 113.2888841  65.4634667 108.5329776
 112.9538674  65.4235437 109.4287425 112.7892787  64.7979383 108.0600186
 107.2633085  60.8702297 114.0582357 107.1252883  60.1382536 114.6593896
 108.1738009  60.7811198 113.7766544 116.2248033  62.8090702  98.8066835
 115.6077203  62.0837530  98.7099888 115.7564521  63.5700062  98.4633909
 109.8915386  60.5822257 113.5466036 110.6015004  59.9415449 113.5052655
 109.8484694  60.8335152 114.4692217 117.8802164  67.5189610 116.4672616
 117.8214711  66.8348830 115.8003199 118.2821683  68.2608600 116.0153242
 108.6044320  57.5687475 115.3661676 108.0681677  57.1178213 116.0183272
 108.0161028  57.7033384 114.6232140 106.8992863  74.3351524 109.2606334
 107.1389462  74.9670048 109.9385353 106.0562060  73.9839564 109.5471694
 108.0146579  57.0276126  97.9288139 107.1376045  56.9064927  97.5650386
 108.4904332  56.2362204  97.6767028 117.8819572  65.4829194 114.6986595
 116.9946351  65.1455116 114.8212994 118.4518123  64.7512225 114.9355361
  99.5348719  61.8153286 108.0229647 100.2219759  61.5015016 107.4350662
  99.3796848  62.7194650 107.7496898 104.3383441  56.7043482 112.4514670
 104.2541630  56.0969152 111.7165080 103.5166147  57.1952501 112.4524167
 111.4120725  70.1430646 111.6647838 111.3390897  70.9485618 112.1767143
 110.9698118  70.3422612 110.8395860 111.2010505  69.3802416 105.1750660
 110.4178027  69.9224097 105.2688885 111.9003250  69.8976396 105.5744901
 114.5107155  55.1897046 107.8184865 115.0075854  54.4367008 107.4985936
 113.7394136  55.2261363 107.2528075 122.3636912  60.8937411 109.4603157
 122.3526789  61.7762127 109.0897090 121.4954292  60.5408962 109.2657694
 113.8719409  70.0417480 113.8205997 114.5847381  70.6764945 113.7481899
 113.3809437  70.1381346 113.0045999 115.5936936  63.9468733 105.3923289
 114.6593214  64.0670196 105.2227993 115.7713604  63.0441200 105.1283299
 111.0942124  57.3314429 107.5456550 110.7239911  56.7785469 108.2337456
 111.5901216  56.7272562 106.9931550 118.9809487  59.7886052 105.9273323
 119.4469939  60.6214044 105.8533626 119.4316987  59.3231034 106.6318581
 108.9231322  67.7911924 114.6411568 109.6240782  68.4248407 114.7940962
 108.4526437  68.1326655 113.8807207 117.0485718  66.1329874 102.9259475
 117.3245562  66.0186468 103.8353349 116.1790217  65.7347359 102.8871648
 116.9526150  52.1566639 109.9664224 116.0389229  52.3870866 110.1346431
 117.3819251  52.2405083 110.8178257 116.7232608  60.3456531 112.4664118
 116.0704058  60.5932439 111.8116571 117.1012988  59.5320670 112.1326596
 113.6839782  70.3816225 106.5692289 113.8662177  69.5637880 107.0320041
 114.5072768  70.5983917 106.1317179 114.0181948  69.3084410 103.8307337
 114.5469714  68.7976864 103.2177499 114.2810167  68.9926940 104.6952870
 112.7720181  61.0876342 118.9530155 112.0960818  60.9870472 119.6232531
 113.5947815  60.9315556 119.4166153 104.5199040  67.3248279 111.5742671
 105.1052477  66.5791967 111.7070575 104.3223879  67.6352236 112.4579335
 107.3737695  70.3599526 106.5905113 106.7048071  70.8445654 106.1069153
 107.2350565  70.6068747 107.5048492  99.1116695  59.8953879 110.2947114
  99.1500795  59.3617470 111.0884232  98.6056988  59.3689085 109.6758091
 111.5142964  72.3943270 113.1887771 112.0661272  72.5574891 113.9536857
 111.8549158  72.9847708 112.5167796 106.4907457  54.7418420 113.7909656
 106.5548784  55.6033251 113.3787054 106.4274578  54.1292421 113.0582015
 105.9659730  56.8141552 117.4382690 106.5931769  56.4318630 118.0520215
 105.1087649  56.5955754 117.8038383 116.3653838  67.2204527 119.0436426
 116.9093742  67.8334486 118.5491381 115.7840683  67.7784106 119.5603439
 102.7425273  58.6217981 103.3701045 103.0378714  57.7128660 103.3168099
 101.8413308  58.6005721 103.0482047 114.6511351  70.3425245 110.1751454
 114.5262491  69.5414985 109.6662399 115.3090442  70.8371439 109.6865423
 106.2719520  56.6973978 109.3528594 105.5506105  57.3109946 109.2136067
 107.0612775  57.2331743 109.2745240 116.7146260  68.1434265 111.8031004
 115.7676595  68.0239617 111.7309330 117.0629033  67.2556764 111.8857265
 109.0745833  54.0328404 115.6269246 109.5980235  54.2790701 116.3895555
 108.8558166  54.8648439 115.2072383 104.4713114  56.3032079 103.4940370
 104.1425820  55.4229458 103.3115476 104.8252485  56.2479748 104.3816760
 113.7192693  67.9386982 108.0035356 113.5717655  67.0103689 108.1842926
 114.5446187  67.9607072 107.5192431 107.5854937  56.5905049 103.8615848
 107.9251010  57.1190970 103.1394456 108.0327058  56.9285455 104.6374415
 117.3226815  68.7615540 109.0900229 118.2473362  68.5558402 108.9524680
 117.1542118  68.5131942 109.9989570 110.2798378  54.9742100 113.3118916
 109.9395198  54.1749913 113.7139596 109.5737384  55.2743810 112.7395749
 110.9314850  52.0591412 111.7646239 111.7540919  51.5851890 111.6425129
 111.1752913  52.8381896 112.2644925 109.5723084  55.0879670 102.0609141
 110.2931447  55.4660923 101.5572858 108.9488389  55.8068547 102.1644119
 113.7154207  55.7924819 102.9967473 113.9317822  56.6749457 102.6956301
 113.2348274  55.4011033 102.2673115 108.4553429  58.7510533 109.5738218
 108.3098009  59.0650836 110.4662499 107.9778632  59.3695433 109.0209116
 110.3149812  55.7413081 109.6219107 110.3011380  54.8454174 109.2851405
 111.0322240  55.7483744 110.2557393 112.1675942  56.1750421 111.6672235
 111.9093720  57.0967491 111.6656565 111.6360983  55.7780855 112.3572699
 117.1122131  69.2801208 104.4462320 117.2859009  68.7147630 103.6936172
 117.6051022  70.0802103 104.2641810 102.9299091  61.2915877 112.5125879
 102.3852559  62.0675685 112.6446153 103.8078441  61.6386681 112.3545000
 109.7186708  54.6227461 104.8906677 109.8402619  53.6944107 105.0897565
 109.4288750  54.6366147 103.9784993 112.5877898  52.3082371 108.0273397
 112.6099595  52.3721704 107.0725377 113.0045957  51.4686880 108.2213903
 122.9661522  62.0437631 106.0652620 123.4092668  61.2944956 105.6671743
 122.0888033  62.0347767 105.6826352 118.0997304  68.5967972 101.5459218
 118.7948208  69.2174665 101.7646533 118.4420454  67.7463324 101.8211596
 103.7165113  60.4185773 115.4056036 102.9746849  60.5668409 115.9920666
 103.3957857  60.6794039 114.5422785 119.9988727  66.0467678 103.0746549
 120.5240051  66.3854951 102.3495869 119.9111079  65.1114693 102.8909684
 111.6608775  69.9601751 115.2036426 111.9695902  69.7150898 116.0759125
 112.4584257  70.1648390 114.7155296 111.6829387  72.1139661 107.4341802
 111.2434378  71.6216040 108.1274659 112.4337504  71.5712629 107.1933878
 104.1621726  68.3051202 107.4366430 104.9879746  68.0054974 107.0565074
 103.8115778  67.5358824 107.8856219 109.1303260  67.6577670 109.5064104
 108.5083269  66.9948375 109.2066332 109.8008126  67.6838802 108.8237752
 102.3630331  66.2237528 108.3955364 101.5262240  65.7959703 108.2139365
 102.3353977  66.4169972 109.3326155 109.2027787  56.1359458 119.0996610
 109.2515943  57.0121581 118.7174380 109.7450301  55.5936851 118.5268253
 119.6882633  66.6800581 118.3797747 118.8978176  66.6624720 117.8402246
 119.4515987  67.2188875 119.1346784 119.8080508  63.5293048 115.6930476
 119.8578513  63.3643055 116.6345998 119.6994431  62.6620307 115.3028356
 108.6916766  66.2081594 102.9822564 108.8404887  66.8917058 102.3289237
 109.4983210  66.1886684 103.4972020 117.0984270  59.5123976 117.0089782
 117.9994133  59.3730441 116.7173780 117.1732245  59.6778431 117.9487960
 111.4327076  56.8890831 115.8542969 110.5630385  57.1824397 115.5825557
 111.6686556  57.4731276 116.5750232 121.3098705  65.9489989 115.9372497
 121.0183513  66.3119970 116.7735958 120.6970836  65.2356998 115.7585829
 122.5094387  63.5142869 108.4575067 123.3441278  63.9532673 108.6212628
 122.6453516  63.0381522 107.6383313 119.5585893  61.0722604 114.4052555
 120.0340014  61.2650250 113.5971406 118.6351458  61.1281790 114.1595939
 106.4469399  62.2346771 103.9883633 106.2015441  61.3309101 104.1863844
 106.6165314  62.2363922 103.0463111 114.1366109  53.1070448 113.3708389
 114.6548053  53.8431474 113.0454878 113.7821242  53.4134441 114.2055148
 105.7165047  57.9675129 101.4869795 105.0234292  58.0419484 100.8309831
 105.4716799  57.2035472 102.0091312 114.3878704  49.5270730 108.8909286
 114.6680457  48.8593919 109.5169712 115.1729310  49.7199826 108.3783949
 112.1912172  68.7029724 100.4534312 111.6186139  69.3219911 100.0004784
 112.7644966  69.2529086 100.9874234 118.2587562  57.9488364 112.6380861
 119.2104985  58.0486462 112.6593085 118.0891012  57.1566633 113.1478945
 116.2801941  55.0343947 112.8240262 115.6851873  55.3148960 112.1286750
 115.9951638  55.5237848 113.5957003 115.4109432  68.9866874 101.5842894
 116.3440105  68.9212436 101.7875770 115.3232645  69.8223141 101.1257427
 118.0397448  68.3032744  98.5446842 117.9611080  67.9692608  99.4382600
 118.8607115  68.7954512  98.5438314 120.7375640  61.1694484 111.7523160
 120.7051960  60.2310484 111.9382844 121.3476263  61.2478520 111.0188985
 112.5758971  60.0390537  97.7950364 113.5218075  59.9096745  97.8638782
 112.1973215  59.3005199  98.2719793 120.8870128  57.9605527 111.7981444
 120.3709177  57.1763984 111.6111372 121.7710077  57.6324244 111.9627963
 118.5480855  51.7046543 107.7577256 118.3505676  51.3961631 108.6420588
 119.1580561  52.4308182 107.8875186 126.5552190  62.2310491 110.8929197
 127.2855578  61.9695779 111.4536900 125.9459135  61.4939213 110.9331265
 124.6367487  60.3718353 111.4903648 123.9100650  60.2374318 110.8820140
 124.2214774  60.6795182 112.2960366 112.4597663  64.0908283 119.2551021
 113.3800673  64.2686882 119.4491068 112.4247246  63.1464328 119.1030721
 110.7601888  57.9640513  97.7305250 109.8533343  57.6673626  97.8067963
 111.0377869  57.6670331  96.8639536 101.6779828  59.2846877 108.1804296
 101.3582612  58.4312185 107.8878670 101.1313256  59.4995455 108.9362263
 105.4559736  62.0009318 111.8973803 105.6745745  62.9326425 111.9161836
 105.8685509  61.6417292 112.6828606 112.3763953  52.5077403 103.8849491
 111.5664682  52.1624488 104.2604737 113.0648370  52.1984947 104.4737102
 114.3054502  51.5855450 105.5073788 114.8585540  52.0050903 106.1663811
 114.5424588  50.6591198 105.5496744 110.3287601  57.5742523 121.2876551
 110.2284328  58.5236880 121.2188643 110.1109143  57.2460762 120.4152622
 109.5300672  54.8227448  97.8717229 110.3919836  55.1482347  98.1313046
 109.7151016  54.0358944  97.3590295 101.5468088  62.9049788 110.1497418
 100.8531559  62.4903741 109.6367372 102.2941079  62.9470325 109.5530837
 117.6833309  53.6955975 105.0152452 117.1031978  54.3540779 104.6330504
 117.4169241  52.8733319 104.6039869 116.1336875  53.0961032 107.2173772
 116.6336654  53.2077567 106.4088091 116.7772483  52.7922085 107.8574581
 110.1918871  61.0039662 120.1041613 109.7085953  61.8040022 120.3105502
 110.2779810  61.0147607 119.1509057 103.4604831  62.8368042 108.0263432
 103.4375519  62.9355729 107.0745316 103.7705467  63.6833193 108.3480599
 106.1192208  64.8944197 112.1410047 107.0735462  64.8628139 112.0739978
 105.9204732  64.4334821 112.9560273 106.7091591  63.4645313 114.7080845
 107.5284480  63.9589392 114.7315682 106.9828398  62.5477281 114.6798412
 116.4658187  55.8556065 104.0708800 115.5784042  56.1405716 103.8528995
 116.8812176  55.6949829 103.2236077 119.8172723  55.8802586 107.7863139
 120.5933113  56.3699039 108.0587756 119.0920857  56.3060640 108.2435009
 122.2545282  56.5930205 108.8437080 122.8489772  56.3525941 108.1330388
 122.3271865  55.8737336 109.4710616 104.4742437  70.4363816 109.1580245
 104.3396905  69.6764217 108.5918243 104.0574500  71.1604716 108.6909034
 115.6101400  65.6200740  98.1656820 116.3137250  65.8250742  98.7814476
 114.8864049  66.1877502  98.4305904 116.4399211  61.3710601 104.2859090
 116.3834412  61.8279153 103.4466723 116.9927553  60.6101286 104.1081933
 120.2504016  57.1600333 105.1109210 119.9940951  56.7596969 105.9417417
 119.6256884  57.8744127 104.9859349 124.5616354  59.8996406 107.6180501
 124.0015912  59.9689596 108.3912063 123.9559858  59.7237391 106.8979997
 107.6311563  71.3333133 109.3698687 107.5143947  72.2778566 109.2677378
 106.8104009  71.0306695 109.7584487 117.5188098  66.0583269 100.2155280
 118.3533702  65.6264468 100.0332755 117.3572441  65.8865283 101.1432175
 117.1733990  62.5615382 101.5811619 117.1182794  62.3959654 100.6400064
 116.5480045  63.2691415 101.7373809 101.9626505  57.7983447 115.4073042
 102.6085368  57.2882401 115.8960267 101.7543656  58.5352128 115.9816467
 114.4879897  64.8664294 120.9065182 115.3571057  65.0404946 120.5451817
 114.0086649  65.6858711 120.7840912 110.4830115  52.0623491 101.1596938
 110.4708785  53.0065331 101.3165209 111.3753537  51.8793637 100.8656399
 108.6566077  71.9861395 112.5854616 109.5593324  72.0185005 112.9021111
 108.4303447  71.0561846 112.6000952 110.4119679  70.7392382 109.2464694
 109.4615310  70.7394243 109.1329067 110.7152165  69.9925116 108.7300729
 114.2982235  48.6566268 105.4142875 113.5314631  48.1024755 105.5599557
 114.7092940  48.7288137 106.2757026 106.3023996  54.9451064 119.5048056
 107.1655457  54.5887869 119.7151380 105.7289406  54.6064959 120.1923460
 126.1472373  76.5752920 110.3110457 126.7850783  76.4559668 109.6073797
 126.0293216  77.5233764 110.3698409 122.9562079  76.5280348 110.2471982
 122.6180591  76.4121413 109.3592516 123.8251847  76.1271513 110.2272988
 118.8148895  78.3815825 106.2368873 118.2513760  78.2905762 105.4685160
 118.7001290  77.5615729 106.7171365 123.4381862  77.6815200 116.2058187
 123.4270503  77.2867998 115.3338691 123.6002502  76.9481273 116.7991959
 116.3613327  79.8767016 109.0753093 117.1534619  79.5357841 108.6599392
 116.6009977  79.9861991 109.9955246 124.3948453  82.0486792 101.5483337
 123.7436433  82.6340873 101.1617351 125.1892816  82.5792987 101.6078375
 118.3204081  79.1375930 101.9470472 119.0934957  78.5904917 101.8083348
 118.6729479  80.0020179 102.1584933 120.1589123  80.4652312 115.1537371
 119.8678989  81.3697943 115.0384037 120.7946108  80.5068839 115.8681441
 121.0845330  77.8429160 111.7438731 121.6808902  77.6185183 111.0295694
 121.1420302  77.1013906 112.3464179 120.6570358  75.2968596  99.5788922
 120.9095879  74.7750117  98.8172385 119.7194918  75.1334741  99.6815605
 125.7013641  74.3004374 107.3863665 126.4876730  73.8823797 107.0354082
 125.9652346  75.2050466 107.5545313 125.8723719  79.7377224 102.0852322
 125.2369552  79.8111851 102.7973226 125.5421125  80.3270823 101.4071401
 131.1022068  74.2379607 108.2896643 131.8347240  73.6678824 108.5234473
 130.3461424  73.8501208 108.7303149 120.3766647  77.1996702 101.7813297
 120.2602905  76.5241605 102.4494381 120.4868907  76.7129076 100.9645450
 122.7198188  76.6606849 105.4859986 122.3556395  76.1337470 106.1972907
 123.5765304  76.2705318 105.3126471 128.6247489  67.9501181 112.7491252
 128.2930814  68.8196592 112.5252467 128.0293102  67.6337465 113.4285282
 122.3603675  71.6896748 100.4821334 122.5278077  72.5576985 100.8491805
 122.1700844  71.8524030  99.5582624 125.1179008  80.1513727 112.1487165
 124.8179731  81.0538766 112.0402972 124.7730068  79.8845911 113.0008318
 118.5691490  76.6027524 108.1823869 117.6441986  76.4703738 108.3901561
 118.8175903  77.3821743 108.6793812 128.5176152  72.6696267 109.8284602
 127.6093029  72.6011676 109.5343363 128.4663748  73.1468212 110.6566428
 122.3392896  74.1454406 101.4668001 122.2192521  74.5911457 102.3053481
 121.6445484  74.4939724 100.9081539 115.9300301  76.2460798 109.0167658
 116.0592682  76.4995277 109.9307070 115.2497752  76.8388506 108.6972313
 120.0999788  86.9158048 105.1158132 120.0223818  87.8665873 105.1946613
 119.4961432  86.5703920 105.7733059 122.5917018  74.0885913 117.7719499
 121.8150352  74.6479833 117.7622364 123.2307581  74.5742696 118.2934369
 130.3837798  70.8712706 111.6062476 129.7412179  71.1645239 110.9602271
 129.8792727  70.7565626 112.4115673 128.0377962  74.6175879 102.2948335
 128.9495818  74.8503266 102.1196033 127.5287609  75.2012923 101.7323414
 120.8463390  76.8971366 117.3337466 121.5878075  77.4356410 117.0572290
 120.1400376  77.5237655 117.4909018 126.3218730  79.0400507 115.9309628
 126.7302086  78.5982917 115.1864260 125.5995991  78.4653134 116.1843821
 122.6749800  73.9773114 113.3043185 123.5210995  74.4012527 113.4477834
 122.6148437  73.3206738 113.9981748 126.6447544  79.6001698 109.6861917
 126.0156407  79.7647412 108.9837985 126.2573206  80.0143307 110.4572881
 130.5236776  80.5356135 107.0406280 129.8387814  80.9155037 106.4903314
 130.6080626  81.1451462 107.7738228 125.8249245  71.6377482 114.9624358
 125.5810177  72.3919543 114.4258634 126.1009176  72.0162830 115.7971605
 127.7787708  78.1816094 113.6401624 127.9904603  78.8247854 112.9636005
 127.7317456  77.3478411 113.1723554 125.3813937  70.7933915 110.5438196
 124.5198416  71.0915169 110.8354934 125.4076372  71.0104314 109.6119229
 122.1975506  79.3376106 106.9512002 122.6613852  79.6163809 106.1616624
 121.9332304  78.4359550 106.7685093 119.0899587  78.8847587 109.8891765
 119.6600944  79.3134856 109.2509250 119.6807699  78.6030172 110.5875951
 121.1344392  75.4599258 103.7601567 121.8368436  75.9120302 104.2275493
 120.8025021  74.8183077 104.3881460 119.5824754  74.0511015 118.1352776
 118.9523414  74.7327295 118.3688173 119.4760842  73.9394096 117.1905915
 114.8769726  73.7182811 109.0618701 114.0868780  73.9740339 108.5858811
 115.3680974  74.5331149 109.1670741 128.8933536  81.0588050 111.8123981
 129.7150980  80.6568237 111.5306663 128.8895939  80.9556284 112.7640097
 116.8284472  74.0827390 106.0202177 116.0315635  74.1946084 106.5385673
 116.6010064  74.4214042 105.1543068 122.6590139  80.6072093 113.9684692
 122.7234572  81.0692500 114.8042864 121.9501063  79.9769458 114.0967002
 113.1607429  73.9713301 111.4933691 113.4115468  74.8560311 111.7591267
 113.6966978  73.7917903 110.7208783 136.9839529  77.4026798 108.1608953
 136.2303237  76.8334196 108.0052957 137.1187070  77.3689463 109.1079588
 122.3738157  82.2740201 103.8363672 122.2383832  83.1191736 104.2648520
 122.9147969  82.4759478 103.0729606 118.8605497  68.3531780 120.4978027
 118.4672442  67.7997979 121.1725672 119.6771637  68.6642359 120.8884545
 115.8267554  79.7915639 104.4091597 116.3392075  80.5858889 104.5597162
 116.4790267  79.0941929 104.3425199 117.6362439  82.9081395 106.4914350
 117.8129067  83.8299360 106.3035334 118.4319273  82.5939814 106.9208730
 121.7773458  69.7689660 118.0898284 122.5183171  70.3696813 118.0102746
 122.0091380  69.0267297 117.5316327 116.9214796  74.9546027 116.3676514
 116.8068311  74.0531284 116.6683613 116.0659313  75.2009724 116.0161330
 124.0006633  82.8963767 117.9664014 123.5570488  82.1100146 117.6484919
 124.6623847  83.0842918 117.3007905 118.7593755  84.4259569 112.4924693
 119.3101180  84.2976632 111.7201687 117.9205230  84.7254458 112.1419586
 126.0987871  83.1766567 115.9945416 126.0806347  83.9975448 115.5025685
 127.0207791  83.0520642 116.2195557 122.5560926  80.6910697 116.8368924
 123.0889262  79.9298985 116.6068232 122.0275007  80.3984348 117.5793078
 125.7230621  65.7970762 112.3662566 125.3794890  66.6872404 112.2901676
 126.0909583  65.6072420 111.5032151 113.7916471  78.1204293 105.1851168
 114.6291693  78.5301301 104.9684876 113.9694739  77.1803735 105.1551362
 125.6880903  75.7879374 100.8735001 125.1727527  76.5583978 101.1123388
 125.4158212  75.1144510 101.4968062 123.2728014  70.6329074 105.9320239
 122.4169611  70.2435925 105.7525878 123.6854966  70.7121035 105.0720025
 124.8027161  68.1675418 110.3311799 124.2991957  68.1305553 109.5179604
 125.0957768  69.0768160 110.3908456 121.0470047  68.2514147 109.3377981
 121.9123044  68.0556956 108.9783870 121.1147556  68.0224499 110.2647337
 130.6615177  78.5411728 102.8088174 129.8844620  78.2022888 102.3643336
 131.3406658  78.5464351 102.1343139 125.4767206  73.6606466 102.6994782
 125.1717342  73.9752615 103.5504925 126.4297649  73.7387886 102.7422115
 123.9213638  79.8196689 104.3487736 123.3935000  79.0849449 104.0360973
 123.4201141  80.5971365 104.1027704 128.9006484  78.0145709 109.4654782
 128.2430159  78.7044971 109.5534911 129.7046884  78.4042141 109.8088769
 118.6532366  70.4816355 106.7094347 119.2276118  70.2591537 105.9767540
 119.2403348  70.5505050 107.4622949 127.7111943  76.3690082 107.5158724
 128.2243825  77.0020074 108.0180434 128.3613167  75.7691278 107.1502084
 118.9801953  72.5120816 100.7290233 118.1439265  72.8495503 101.0499507
 118.8406723  72.3769796  99.7917370 120.9555034  67.3557604 105.4369417
 120.3019446  67.0406621 104.8126032 120.9135508  66.7333345 106.1629240
 122.0666238  77.6376899  97.3522709 121.1593300  77.4066153  97.5513858
 122.5637270  76.8414519  97.5396690 124.9734317  86.3474406 100.2719395
 124.2996016  86.6506103 100.8804353 125.3600139  87.1503487  99.9224852
 124.1892774  73.8439538 109.7617064 123.2715335  74.0654485 109.6038753
 124.6052918  73.9185848 108.9028772 124.9727822  75.2430953 104.8919745
 125.7199641  75.7552351 104.5826867 125.2419411  74.9215006 105.7524138
 123.2454472  77.7389494 101.8746699 122.3365691  77.4548527 101.9719169
 123.2749556  78.1588573 101.0150006 128.4773739  81.3496084 105.6437867
 128.0236066  80.5086994 105.7003057 127.8467706  81.9857482 105.9812647
 127.4206659  72.2788070 106.8738534 126.6829416  71.7665456 107.2048777
 127.6733432  71.8388451 106.0621811 126.9206679  83.1872580 106.5787685
 127.2129653  83.7477637 105.8600050 127.4305299  83.4801141 107.3340844
 127.5218286  65.0564322 107.4680303 127.8277163  64.1961685 107.1806218
 128.2470891  65.6481942 107.2679297 113.8142642  75.4595008 105.8561901
 113.6167042  74.8664369 105.1312968 113.2589306  75.1547218 106.5737840
 121.7939366  75.3518115 107.9756494 121.8487976  74.3991951 107.8998971
 120.9830568  75.5077554 108.4597793 122.9430560  79.2798238  99.2134778
 122.5049990  78.5634097  98.7540415 123.6841001  79.5074353  98.6519869
 119.7331726  73.9695174 105.7346873 118.9199591  74.2689345 106.1412065
 120.2290720  73.5750863 106.4521356 121.8840304  83.9652931 107.6681138
 121.8416483  84.1913778 106.7389670 122.8003003  83.7316306 107.8166939
 125.3305938  74.4336999 114.5661767 125.6855325  74.6608472 115.4256233
 125.9778069  74.7655376 113.9439022 131.0603674  77.5555435 105.2711096
 130.9221573  77.7457031 104.3432285 130.7039893  78.3174818 105.7279147
 119.2245801  71.5413530 111.3508108 119.8645180  71.4002289 110.6531072
 118.3923331  71.2548043 110.9746710 131.0873054  79.6231962 110.2822368
 131.5209561  79.5307251 111.1305422 131.8004635  79.5989462 109.6442384
 120.0006105  80.8415960 107.4643101 120.7946703  80.3466281 107.2625676
 119.2897797  80.3133824 107.1010806 124.8200949  83.2234056 111.8155468
 124.8737971  83.7924992 112.5833184 123.9515730  83.3935941 111.4509505
 116.3088868  74.9859042 103.5402853 115.3786456  74.9243498 103.7572815
 116.4046340  74.4634995 102.7439495 116.2274417  71.5113855 106.1281095
 116.4881234  72.4259188 106.0190255 117.0491589  71.0438298 106.2777708
 117.6999342  72.9251612 113.2979920 118.3722396  72.7168974 112.6492568
 116.8729129  72.7273698 112.8585152 131.9488604  79.6655663 112.8155253
 132.1424494  80.5701473 113.0614528 131.8489222  79.2063082 113.6493838
 123.6024914  69.5513553 115.3145580 122.9552829  70.2503503 115.2210057
 124.3725930  69.9849697 115.6821829 127.0103712  79.8162405 118.3896134
 126.8589219  79.5872957 117.4726217 127.0008392  80.7733007 118.4027479
 123.7789049  77.3894318 113.3742400 124.7081109  77.5405478 113.2011367
 123.3580079  77.4778339 112.5191047 122.5777381  81.4144982 111.1440938
 122.4388466  81.0463767 112.0166876 121.7891977  81.9292622 110.9724896
 123.1725532  86.5154079 102.4866474 123.3477288  86.0442122 103.3012097
 122.4858321  87.1419845 102.7147735 124.1282596  80.7926585 108.5329776
 123.7932428  80.7527355 109.4287425 123.6286541  80.1271301 108.0600186
 118.1026840  76.1994215 114.0582357 117.9646638  75.4674454 114.6593896
 119.0131763  76.1103115 113.7766544 127.0641787  78.1382619  98.8066835
 126.4470958  77.4129448  98.7099888 126.5958276  78.8991980  98.4633909
 120.7309140  75.9114174 113.5466036 121.4408759  75.2707367 113.5052655
 120.6878448  76.1627069 114.4692217 128.7195919  82.8481528 116.4672616
 128.6608465  82.1640748 115.8003199 129.1215437  83.5900518 116.0153242
 119.4438074  72.8979392 115.3661676 118.9075431  72.4470131 116.0183272
 118.8554783  73.0325301 114.6232140 117.7386618  89.6643442 109.2606334
 117.9783216  90.2961966 109.9385353 116.8955814  89.3131482 109.5471694
 118.8540333  72.3568044  97.9288139 117.9769800  72.2356845  97.5650386
 119.3298086  71.5654122  97.6767028 128.7213326  80.8121112 114.6986595
 127.8340105  80.4747034 114.8212994 129.2911877  80.0804143 114.9355361
 110.3742473  77.1445203 108.0229647 111.0613513  76.8306934 107.4350662
 110.2190602  78.0486568 107.7496898 115.1777195  72.0335400 112.4514670
 115.0935384  71.4261070 111.7165080 114.3559902  72.5244418 112.4524167
 122.2514480  85.4722564 111.6647838 122.1784651  86.2777536 112.1767143
 121.8091873  85.6714530 110.8395860 122.0404259  84.7094334 105.1750660
 121.2571781  85.2516014 105.2688885 122.7397004  85.2268314 105.5744901
 125.3500909  70.5188964 107.8184865 125.8469609  69.7658926 107.4985936
 124.5787891  70.5553280 107.2528075 133.2030667  76.2229329 109.4603157
 133.1920543  77.1054045 109.0897090 132.3348046  75.8700880 109.2657694
 124.7113163  85.3709398 113.8205997 125.4241135  86.0056863 113.7481899
 124.2203192  85.4673264 113.0045999 126.4330690  79.2760651 105.3923289
 125.4986969  79.3962113 105.2227993 126.6107359  78.3733118 105.1283299
 121.9335878  72.6606347 107.5456550 121.5633666  72.1077387 108.2337456
 122.4294971  72.0564480 106.9931550 129.8203241  75.1177970 105.9273323
 130.2863694  75.9505962 105.8533626 130.2710742  74.6522952 106.6318581
 119.7625077  83.1203842 114.6411568 120.4634536  83.7540325 114.7940962
 119.2920192  83.4618573 113.8807207 127.8879473  81.4621791 102.9259475
 128.1639316  81.3478386 103.8353349 127.0183971  81.0639276 102.8871648
 127.7919904  67.4858557 109.9664224 126.8782984  67.7162784 110.1346431
 128.2213006  67.5697001 110.8178257 127.5626363  75.6748449 112.4664118
 126.9097813  75.9224356 111.8116571 127.9406743  74.8612587 112.1326596
 124.5233537  85.7108142 106.5692289 124.7055931  84.8929798 107.0320041
 125.3466523  85.9275834 106.1317179 124.8575702  84.6376327 103.8307337
 125.3863468  84.1268782 103.2177499 125.1203922  84.3218858 104.6952870
 123.6113936  76.4168260 118.9530155 122.9354573  76.3162389 119.6232531
 124.4341570  76.2607474 119.4166153 115.3592795  82.6540197 111.5742671
 115.9446232  81.9083885 111.7070575 115.1617633  82.9644153 112.4579335
 118.2131450  85.6891444 106.5905113 117.5441825  86.1737572 106.1069153
 118.0744320  85.9360664 107.5048492 109.9510449  75.2245797 110.2947114
 109.9894549  74.6909388 111.0884232 109.4450742  74.6981002 109.6758091
 122.3536719  87.7235188 113.1887771 122.9055027  87.8866809 113.9536857
 122.6942912  88.3139625 112.5167796 117.3301212  70.0710337 113.7909656
 117.3942538  70.9325168 113.3787054 117.2668332  69.4584339 113.0582015
 116.8053484  72.1433470 117.4382690 117.4325523  71.7610547 118.0520215
 115.9481403  71.9247672 117.8038383 127.2047593  82.5496445 119.0436426
 127.7487497  83.1626403 118.5491381 126.6234438  83.1076023 119.5603439
 113.5819027  73.9509899 103.3701045 113.8772468  73.0420577 103.3168099
 112.6807063  73.9297638 103.0482047 125.4905106  85.6717163 110.1751454
 125.3656245  84.8706903 109.6662399 126.1484197  86.1663356 109.6865423
 117.1113274  72.0265896 109.3528594 116.3899860  72.6401863 109.2136067
 117.9006530  72.5623660 109.2745240 127.5540014  83.4726183 111.8031004
 126.6070350  83.3531534 111.7309330 127.9022787  82.5848681 111.8857265
 119.9139588  69.3620322 115.6269246 120.4373989  69.6082619 116.3895555
 119.6951921  70.1940357 115.2072383 115.3106869  71.6323997 103.4940370
 114.9819575  70.7521376 103.3115476 115.6646239  71.5771665 104.3816760
 124.5586448  83.2678899 108.0035356 124.4111410  82.3395607 108.1842926
 125.3839941  83.2898990 107.5192431 118.4248692  71.9196966 103.8615848
 118.7644764  72.4482888 103.1394456 118.8720812  72.2577373 104.6374415
 128.1620569  84.0907458 109.0900229 129.0867117  83.8850319 108.9524680
 127.9935873  83.8423859 109.9989570 121.1192133  70.3034017 113.3118916
 120.7788953  69.5041830 113.7139596 120.4131139  70.6035728 112.7395749
 121.7708604  67.3883330 111.7646239 122.5934674  66.9143808 111.6425129
 122.0146668  68.1673813 112.2644925 120.4116839  70.4171588 102.0609141
 121.1325201  70.7952841 101.5572858 119.7882143  71.1360465 102.1644119
 124.5547962  71.1216737 102.9967473 124.7711576  72.0041375 102.6956301
 124.0742029  70.7302950 102.2673115 119.2947183  74.0802450 109.5738218
 119.1491764  74.3942753 110.4662499 118.8172387  74.6987351 109.0209116
 121.1543566  71.0704998 109.6219107 121.1405135  70.1746092 109.2851405
 121.8715994  71.0775662 110.2557393 123.0069697  71.5042338 111.6672235
 122.7487475  72.4259409 111.6656565 122.4754737  71.1072773 112.3572699
 127.9515886  84.6093126 104.4462320 128.1252763  84.0439548 103.6936172
 128.4444777  85.4094020 104.2641810 113.7692845  76.6207795 112.5125879
 113.2246313  77.3967603 112.6446153 114.6472195  76.9678599 112.3545000
 120.5580462  69.9519379 104.8906677 120.6796373  69.0236025 105.0897565
 120.2682504  69.9658064 103.9784993 123.4271652  67.6374289 108.0273397
 123.4493349  67.7013622 107.0725377 123.8439711  66.7978798 108.2213903
 133.8055277  77.3729548 106.0652620 134.2486423  76.6236874 105.6671743
 132.9281787  77.3639685 105.6826352 128.9391058  83.9259890 101.5459218
 129.6341963  84.5466583 101.7646533 129.2814208  83.0755241 101.8211596
 114.5558867  75.7477691 115.4056036 113.8140603  75.8960326 115.9920666
 114.2351612  76.0085957 114.5422785 130.8382481  81.3759595 103.0746549
 131.3633805  81.7146868 102.3495869 130.7504834  80.4406611 102.8909684
 122.5002530  85.2893669 115.2036426 122.8089656  85.0442816 116.0759125
 123.2978012  85.4940308 114.7155296 122.5223142  87.4431579 107.4341802
 122.0828132  86.9507957 108.1274659 123.2731259  86.9004546 107.1933878
 115.0015481  83.6343120 107.4366430 115.8273501  83.3346891 107.0565074
 114.6509533  82.8650742 107.8856219 119.9697014  82.9869588 109.5064104
 119.3477023  82.3240293 109.2066332 120.6401881  83.0130720 108.8237752
 113.2024086  81.5529446 108.3955364 112.3655994  81.1251620 108.2139365
 113.1747731  81.7461889 109.3326155 120.0421542  71.4651376 119.0996610
 120.0909697  72.3413499 118.7174380 120.5844056  70.9228769 118.5268253
 130.5276387  82.0092499 118.3797747 129.7371931  81.9916638 117.8402246
 130.2909742  82.5480793 119.1346784 130.6474262  78.8584965 115.6930476
 130.6972267  78.6934973 116.6345998 130.5388186  77.9912225 115.3028356
 119.5310521  81.5373511 102.9822564 119.6798641  82.2208976 102.3289237
 120.3376964  81.5178601 103.4972020 127.9378025  74.8415894 117.0089782
 128.8387887  74.7022358 116.7173780 128.0125999  75.0070348 117.9487960
 122.2720830  72.2182748 115.8542969 121.4024139  72.5116314 115.5825557
 122.5080310  72.8023193 116.5750232 132.1492459  81.2781907 115.9372497
 131.8577267  81.6411888 116.7735958 131.5364590  80.5648915 115.7585829
 133.3488141  78.8434787 108.4575067 134.1835033  79.2824591 108.6212628
 133.4847270  78.3673440 107.6383313 130.3979647  76.4014522 114.4052555
 130.8733769  76.5942168 113.5971406 129.4745213  76.4573707 114.1595939
 117.2863154  77.5638689 103.9883633 117.0409196  76.6601019 104.1863844
 117.4559069  77.5655839 103.0463111 124.9759864  68.4362365 113.3708389
 125.4941808  69.1723392 113.0454878 124.6214997  68.7426358 114.2055148
 116.5558801  73.2967046 101.4869795 115.8628046  73.3711401 100.8309831
 116.3110553  72.5327390 102.0091312 125.2272458  64.8562648 108.8909286
 125.5074212  64.1885837 109.5169712 126.0123065  65.0491743 108.3783949
 123.0305927  84.0321642 100.4534312 122.4579894  84.6511829 100.0004784
 123.6038720  84.5821003 100.9874234 129.0981316  73.2780282 112.6380861
 130.0498739  73.3778379 112.6593085 128.9284767  72.4858550 113.1478945
 127.1195696  70.3635865 112.8240262 126.5245628  70.6440878 112.1286750
 126.8345393  70.8529766 113.5957003 126.2503186  84.3158792 101.5842894
 127.1833859  84.2504353 101.7875770 126.1626399  85.1515059 101.1257427
 128.8791203  83.6324662  98.5446842 128.8004834  83.2984526  99.4382600
 129.7000870  84.1246430  98.5438314 131.5769394  76.4986401 111.7523160
 131.5445714  75.5602402 111.9382844 132.1870018  76.5770438 111.0188985
 123.4152725  75.3682454  97.7950364 124.3611830  75.2388662  97.8638782
 123.0366970  74.6297116  98.2719793 131.7263883  73.2897445 111.7981444
 131.2102931  72.5055901 111.6111372 132.6103831  72.9616161 111.9627963
 129.3874610  67.0338460 107.7577256 129.1899431  66.7253549 108.6420588
 129.9974315  67.7600099 107.8875186 135.4761241  75.7010271 111.4903648
 134.7494405  75.5666236 110.8820140 135.0608528  76.0087099 112.2960366
 123.2991418  79.4200201 119.2551021 124.2194427  79.5978800 119.4491068
 123.2641001  78.4756246 119.1030721 121.5995642  73.2932431  97.7305250
 120.6927098  72.9965543  97.8067963 121.8771623  72.9962249  96.8639536
 112.5173583  74.6138794 108.1804296 112.1976367  73.7604102 107.8878670
 111.9707011  74.8287372 108.9362263 116.2953490  77.3301235 111.8973803
 116.5139500  78.2618343 111.9161836 116.7079264  76.9709210 112.6828606
 123.2157708  67.8369320 103.8849491 122.4058436  67.4916405 104.2604737
 123.9042125  67.5276864 104.4737102 125.1448256  66.9147367 105.5073788
 125.6979295  67.3342821 106.1663811 125.3818343  65.9883115 105.5496744
 121.1681355  72.9034441 121.2876551 121.0678082  73.8528798 121.2188643
 120.9502897  72.5752680 120.4152622 120.3694427  70.1519366  97.8717229
 121.2313591  70.4774264  98.1313046 120.5544771  69.3650862  97.3590295
 112.3861843  78.2341706 110.1497418 111.6925314  77.8195658 109.6367372
 113.1334834  78.2762242 109.5530837 128.5227063  69.0247892 105.0152452
 127.9425732  69.6832696 104.6330504 128.2562996  68.2025237 104.6039869
 126.9730630  68.4252950 107.2173772 127.4730408  68.5369485 106.4088091
 127.6166238  68.1214003 107.8574581 121.0312625  76.3331580 120.1041613
 120.5479707  77.1331940 120.3105502 121.1173565  76.3439525 119.1509057
 114.2998585  78.1659959 108.0263432 114.2769273  78.2647647 107.0745316
 114.6099222  79.0125110 108.3480599 116.9585963  80.2236114 112.1410047
 117.9129216  80.1920057 112.0739978 116.7598487  79.7626738 112.9560273
 117.5485345  78.7937231 114.7080845 118.3678234  79.2881309 114.7315682
 117.8222153  77.8769199 114.6798412 127.3051941  71.1847983 104.0708800
 126.4177796  71.4697633 103.8528995 127.7205930  71.0241746 103.2236077
 130.6566477  71.2094504 107.7863139 131.4326868  71.6990956 108.0587756
 129.9314612  71.6352558 108.2435009 133.0939036  71.9222123 108.8437080
 133.6883527  71.6817859 108.1330388 133.1665620  71.2029254 109.4710616
 115.3136192  85.7655734 109.1580245 115.1790660  85.0056135 108.5918243
 114.8968254  86.4896634 108.6909034 126.4495155  80.9492658  98.1656820
 127.1531005  81.1542660  98.7814476 125.7257804  81.5169419  98.4305904
 127.2792965  76.7002519 104.2859090 127.2228166  77.1571070 103.4466723
 127.8321307  75.9393203 104.1081933 131.0897771  72.4892251 105.1109210
 130.8334705  72.0888886 105.9417417 130.4650639  73.2036045 104.9859349
 135.4010109  75.2288324 107.6180501 134.8409667  75.2981513 108.3912063
 134.7953612  75.0529309 106.8979997 118.4705318  86.6625051 109.3698687
 118.3537702  87.6070483 109.2677378 117.6497764  86.3598613 109.7584487
 128.3581852  81.3875187 100.2155280 129.1927456  80.9556385 100.0332755
 128.1966195  81.2157200 101.1432175 128.0127744  77.8907300 101.5811619
 127.9576548  77.7251571 100.6400064 127.3873800  78.5983333 101.7373809
 112.8020259  73.1275364 115.4073042 113.4479123  72.6174318 115.8960267
 112.5937410  73.8644046 115.9816467 125.3273652  80.1956212 120.9065182
 126.1964811  80.3696864 120.5451817 124.8480403  81.0150629 120.7840912
 121.3223870  67.3915409 101.1596938 121.3102540  68.3357249 101.3165209
 122.2147292  67.2085554 100.8656399 119.4959832  87.3153313 112.5854616
 120.3987078  87.3476923 112.9021111 119.2697202  86.3853764 112.6000952
 121.2513434  86.0684299 109.2464694 120.3009065  86.0686161 109.1329067
 121.5545920  85.3217034 108.7300729 125.1375989  63.9858186 105.4142875
 124.3708385  63.4316672 105.5599557 125.5486694  64.0580054 106.2757026
 117.1417750  70.2742981 119.5048056 118.0049212  69.9179786 119.7151380
 116.5683161  69.9356876 120.1923460 133.7955834  91.8572266 110.2471982
 133.4574345  91.7413331 109.3592516 134.6645602  91.4563431 110.2272988
 129.6542649  93.7107742 106.2368873 129.0907514  93.6197679 105.4685160
 129.5395044  92.8907647 106.7171365 127.2007081  95.2058934 109.0753093
 127.9928373  94.8649759 108.6599392 127.4403731  95.3153909 109.9955246
 135.2342208  97.3778710 101.5483337 134.5830188  97.9632790 101.1617351
 136.0286571  97.9084905 101.6078375 129.1597835  94.4667847 101.9470472
 129.9328711  93.9196834 101.8083348 129.5123234  95.3312097 102.1584933
 131.9239085  93.1721078 111.7438731 132.5202657  92.9477100 111.0295694
 131.9814056  92.4305823 112.3464179 131.4964113  90.6260513  99.5788922
 131.7489634  90.1042035  98.8172385 130.5588672  90.4626659  99.6815605
 136.5407396  89.6296292 107.3863665 137.3270485  89.2115715 107.0354082
 136.8046100  90.5342384 107.5545313 136.7117473  95.0669142 102.0852322
 136.0763306  95.1403769 102.7973226 136.3814880  95.6562741 101.4071401
 131.2160402  92.5288619 101.7813297 131.0996660  91.8533523 102.4494381
 131.3262662  92.0420993 100.9645450 133.5591943  91.9898766 105.4859986
 133.1950150  91.4629387 106.1972907 134.4159058  91.5997235 105.3126471
 133.1997430  87.0188666 100.4821334 133.3671832  87.8868902 100.8491805
 133.0094599  87.1815948  99.5582624 129.4085244  91.9319442 108.1823869
 128.4835741  91.7995656 108.3901561 129.6569657  92.7113661 108.6793812
 133.1786650  89.4746324 101.4668001 133.0586276  89.9203374 102.3053481
 132.4839239  89.8231641 100.9081539 126.7694055  91.5752715 109.0167658
 126.8986436  91.8287194 109.9307070 126.0891507  92.1680423 108.6972313
 130.9393543 102.2449965 105.1158132 130.8617572 103.1957790 105.1946613
 130.3355186 101.8995838 105.7733059 133.5143554  89.3065031 113.3043185
 134.3604750  89.7304445 113.4477834 133.4542192  88.6498656 113.9981748
 136.2207691  86.1225833 110.5438196 135.3592170  86.4207086 110.8354934
 136.2470126  86.3396232 109.6119229 133.0369261  94.6668023 106.9512002
 133.5007606  94.9455726 106.1616624 132.7726059  93.7651468 106.7685093
 129.9293342  94.2139505 109.8891765 130.4994699  94.6426773 109.2509250
 130.5201454  93.9322090 110.5875951 131.9738147  90.7891176 103.7601567
 132.6762190  91.2412219 104.2275493 131.6418775  90.1474995 104.3881460
 125.7163481  89.0474728 109.0618701 124.9262535  89.3032257 108.5858811
 126.2074728  89.8623066 109.1670741 127.6678226  89.4119308 106.0202177
 126.8709389  89.5238002 106.5385673 127.4403818  89.7505960 105.1543068
 124.0001184  89.3005219 111.4933691 124.2509222  90.1852229 111.7591267
 124.5360732  89.1209820 110.7208783 133.2131911  97.6032118 103.8363672
 133.0777586  98.4483654 104.2648520 133.7541724  97.8051396 103.0729606
 126.6661309  95.1207556 104.4091597 127.1785829  95.9150807 104.5597162
 127.3184022  94.4233847 104.3425199 128.4756194  98.2373313 106.4914350
 128.6522822  99.1591277 106.3035334 129.2713027  97.9231732 106.9208730
 127.7608550  90.2837944 116.3676514 127.6462065  89.3823202 116.6683613
 126.9053068  90.5301641 116.0161330 136.5624375  81.1262680 112.3662566
 136.2188644  82.0164322 112.2901676 136.9303338  80.9364338 111.5032151
 124.6310226  93.4496211 105.1851168 125.4685448  93.8593219 104.9684876
 124.8088493  92.5095653 105.1551362 136.5274658  91.1171291 100.8735001
 136.0121281  91.8875896 101.1123388 136.2551966  90.4436427 101.4968062
 134.1121769  85.9620992 105.9320239 133.2563365  85.5727842 105.7525878
 134.5248721  86.0412953 105.0720025 135.6420915  83.4967335 110.3311799
 135.1385711  83.4597470 109.5179604 135.9351522  84.4060078 110.3908456
 131.8863801  83.5806065 109.3377981 132.7516798  83.3848874 108.9783870
 131.9541310  83.3516417 110.2647337 136.3160961  88.9898383 102.6994782
 136.0111096  89.3044533 103.5504925 137.2691403  89.0679803 102.7422115
 134.7607393  95.1488607 104.3487736 134.2328754  94.4141366 104.0360973
 134.2594895  95.9263283 104.1027704 129.4926120  85.8108273 106.7094347
 130.0669872  85.5883454 105.9767540 130.0797103  85.8796967 107.4622949
 129.8195707  87.8412734 100.7290233 128.9833020  88.1787421 101.0499507
 129.6800477  87.7061714  99.7917370 131.7948788  82.6849522 105.4369417
 131.1413200  82.3698539 104.8126032 131.7529262  82.0625262 106.1629240
 132.9059993  92.9668817  97.3522709 131.9987055  92.7358070  97.5513858
 133.4031025  92.1706436  97.5396690 135.8128072 101.6766324 100.2719395
 135.1389771 101.9798021 100.8804353 136.1993894 102.4795404  99.9224852
 135.0286528  89.1731455 109.7617064 134.1109090  89.3946402 109.6038753
 135.4446672  89.2477766 108.9028772 135.8121576  90.5722871 104.8919745
 136.5593395  91.0844268 104.5826867 136.0813166  90.2506924 105.7524138
 134.0848226  93.0681412 101.8746699 133.1759446  92.7840445 101.9719169
 134.1143310  93.4880490 101.0150006 124.6536397  90.7886926 105.8561901
 124.4560797  90.1956287 105.1312968 124.0983061  90.4839136 106.5737840
 132.6333120  90.6810032 107.9756494 132.6881730  89.7283869 107.8998971
 131.8224322  90.8369472 108.4597793 133.7824314  94.6090155  99.2134778
 133.3443744  93.8926014  98.7540415 134.5234755  94.8366270  98.6519869
 130.5725480  89.2987092 105.7346873 129.7593346  89.5981263 106.1412065
 131.0684475  88.9042781 106.4521356 132.7234058  99.2944849 107.6681138
 132.6810237  99.5205695 106.7389670 133.6396757  99.0608224 107.8166939
 130.0639555  86.8705448 111.3508108 130.7038934  86.7294207 110.6531072
 129.2317086  86.5839961 110.9746710 130.8399859  96.1707878 107.4643101
 131.6340458  95.6758198 107.2625676 130.1291551  95.6425741 107.1010806
 127.1482622  90.3150960 103.5402853 126.2180211  90.2535415 103.7572815
 127.2440094  89.7926913 102.7439495 127.0668172  86.8405773 106.1281095
 127.3274989  87.7551106 106.0190255 127.8885344  86.3730215 106.2777708
 128.5393097  88.2543530 113.2979920 129.2116150  88.0460892 112.6492568
 127.7122883  88.0565616 112.8585152 134.4418669  84.8805471 115.3145580
 133.7946584  85.5795420 115.2210057 135.2119684  85.3141615 115.6821829
 134.0119287 101.8445997 102.4866474 134.1871043 101.3734040 103.3012097
 133.3252075 102.4711763 102.7147735 134.9676350  96.1218503 108.5329776
 134.6326183  96.0819273 109.4287425 134.4680296  95.4563219 108.0600186
 128.9420594  91.5286133 114.0582357 128.8040392  90.7966372 114.6593896
 129.8525518  91.4395033 113.7766544 131.5702895  91.2406092 113.5466036
 132.2802513  90.5999284 113.5052655 131.5272203  91.4918987 114.4692217
 130.2831829  88.2271310 115.3661676 129.7469186  87.7762048 116.0183272
 129.6948537  88.3617219 114.6232140 129.6934088  87.6859961  97.9288139
 128.8163554  87.5648762  97.5650386 130.1691841  86.8946040  97.6767028
 121.2136228  92.4737121 108.0229647 121.9007268  92.1598851 107.4350662
 121.0584357  93.3778486 107.7496898 126.0170950  87.3627318 112.4514670
 125.9329139  86.7552987 111.7165080 125.1953656  87.8536336 112.4524167
 132.8798014 100.0386252 105.1750660 132.0965536 100.5807932 105.2688885
 133.5790759 100.5560231 105.5744901 136.1894664  85.8480881 107.8184865
 136.6863363  85.0950844 107.4985936 135.4181645  85.8845198 107.2528075
 137.2724445  94.6052568 105.3923289 136.3380723  94.7254031 105.2227993
 137.4501113  93.7025035 105.1283299 132.7729633  87.9898264 107.5456550
 132.4027420  87.4369305 108.2337456 133.2688725  87.3856398 106.9931550
 135.3627291 101.0400060 106.5692289 135.5449686 100.2221716 107.0320041
 136.1860277 101.2567752 106.1317179 135.6969457  99.9668245 103.8307337
 136.2257223  99.4560700 103.2177499 135.9597676  99.6510775 104.6952870
 126.1986549  97.9832114 111.5742671 126.7839986  97.2375802 111.7070575
 126.0011388  98.2936071 112.4579335 129.0525204 101.0183362 106.5905113
 128.3835580 101.5029489 106.1069153 128.9138074 101.2652582 107.5048492
 120.7904204  90.5537715 110.2947114 120.8288303  90.0201305 111.0884232
 120.2844497  90.0272920 109.6758091 128.1694966  85.4002255 113.7909656
 128.2336293  86.2617086 113.3787054 128.1062087  84.7876257 113.0582015
 127.6447239  87.4725388 117.4382690 128.2719278  87.0902465 118.0520215
 126.7875158  87.2539589 117.8038383 124.4212782  89.2801817 103.3701045
 124.7166223  88.3712495 103.3168099 123.5200817  89.2589556 103.0482047
 127.9507029  87.3557813 109.3528594 127.2293614  87.9693781 109.2136067
 128.7400284  87.8915578 109.2745240 130.7533342  84.6912240 115.6269246
 131.2767744  84.9374536 116.3895555 130.5345675  85.5232275 115.2072383
 126.1500623  86.9615914 103.4940370 125.8213329  86.0813293 103.3115476
 126.5039994  86.9063583 104.3816760 135.3980202  98.5970817 108.0035356
 135.2505164  97.6687524 108.1842926 136.2233696  98.6190908 107.5192431
 129.2642446  87.2488884 103.8615848 129.6038519  87.7774805 103.1394456
 129.7114567  87.5869290 104.6374415 131.9585887  85.6325935 113.3118916
 131.6182707  84.8333748 113.7139596 131.2524893  85.9327646 112.7395749
 132.6102359  82.7175247 111.7646239 133.4328428  82.2435725 111.6425129
 132.8540422  83.4965731 112.2644925 131.2510593  85.7463506 102.0609141
 131.9718956  86.1244759 101.5572858 130.6275898  86.4652383 102.1644119
 135.3941716  86.4508655 102.9967473 135.6105331  87.3333293 102.6956301
 134.9135783  86.0594868 102.2673115 130.1340938  89.4094368 109.5738218
 129.9885518  89.7234671 110.4662499 129.6566141  90.0279268 109.0209116
 131.9937321  86.3996916 109.6219107 131.9798889  85.5038009 109.2851405
 132.7109749  86.4067580 110.2557393 133.8463451  86.8334256 111.6672235
 133.5881229  87.7551327 111.6656565 133.3148492  86.4364691 112.3572699
 124.6086600  91.9499712 112.5125879 124.0640068  92.7259520 112.6446153
 125.4865950  92.2970517 112.3545000 131.3974217  85.2811296 104.8906677
 131.5190128  84.3527942 105.0897565 131.1076259  85.2949982 103.9784993
 134.2665407  82.9666207 108.0273397 134.2887104  83.0305540 107.0725377
 134.6833466  82.1270715 108.2213903 125.3952622  91.0769609 115.4056036
 124.6534358  91.2252244 115.9920666 125.0745366  91.3377874 114.5422785
 125.8409235  98.9635037 107.4366430 126.6667255  98.6638809 107.0565074
 125.4903287  98.1942660 107.8856219 130.8090769  98.3161506 109.5064104
 130.1870778  97.6532211 109.2066332 131.4795635  98.3422637 108.8237752
 124.0417840  96.8821364 108.3955364 123.2049749  96.4543538 108.2139365
 124.0141486  97.0753807 109.3326155 130.3704275  96.8665429 102.9822564
 130.5192396  97.5500893 102.3289237 131.1770719  96.8470519 103.4972020
 128.1256908  92.8930607 103.9883633 127.8802950  91.9892936 104.1863844
 128.2952823  92.8947757 103.0463111 135.8153618  83.7654283 113.3708389
 136.3335562  84.5015310 113.0454878 135.4608751  84.0718276 114.2055148
 127.3952556  88.6258964 101.4869795 126.7021801  88.7003319 100.8309831
 127.1504308  87.8619308 102.0091312 136.0666212  80.1854565 108.8909286
 136.3467966  79.5177754 109.5169712 136.8516819  80.3783661 108.3783949
 133.8699681  99.3613559 100.4534312 133.2973648  99.9803746 100.0004784
 134.4432475  99.9112921 100.9874234 134.2546479  90.6974372  97.7950364
 135.2005584  90.5680580  97.8638782 133.8760724  89.9589034  98.2719793
 132.4389397  88.6224348  97.7305250 131.5320852  88.3257461  97.8067963
 132.7165378  88.3254167  96.8639536 123.3567337  89.9430712 108.1804296
 123.0370121  89.0896020 107.8878670 122.8100765  90.1579290 108.9362263
 127.1347245  92.6593153 111.8973803 127.3533254  93.5910261 111.9161836
 127.5473018  92.3001127 112.6828606 134.0551462  83.1661238 103.8849491
 133.2452191  82.8208323 104.2604737 134.7435879  82.8568782 104.4737102
 135.9842011  82.2439285 105.5073788 136.5373049  82.6634738 106.1663811
 136.2212097  81.3175033 105.5496744 131.2088181  85.4811284  97.8717229
 132.0707345  85.8066182  98.1313046 131.3938525  84.6942780  97.3590295
 123.2255597  93.5633623 110.1497418 122.5319068  93.1487576 109.6367372
 123.9728588  93.6054160 109.5530837 125.1392340  93.4951877 108.0263432
 125.1163028  93.5939564 107.0745316 125.4492976  94.3417028 108.3480599
 127.7979717  95.5528032 112.1410047 128.7522971  95.5211974 112.0739978
 127.5992241  95.0918656 112.9560273 126.1529946 101.0947652 109.1580245
 126.0184414 100.3348053 108.5918243 125.7362008 101.8188552 108.6909034
 123.6414014  88.4567282 115.4073042 124.2872877  87.9466236 115.8960267
 123.4331165  89.1935964 115.9816467 132.1617624  82.7207327 101.1596938
 132.1496294  83.6649167 101.3165209 133.0541046  82.5377472 100.8656399
 135.9769744  79.3150103 105.4142875 135.2102140  78.7608590 105.5599557
 136.3880449  79.3871972 106.2757026 135.2606536 104.6093734 103.3701045
 135.5559977 103.7004413 103.3168099 134.3594572 104.5881474 103.0482047
 136.9894378 102.2907832 103.4940370 136.6607084 101.4105211 103.3115476
 137.3433748 102.2355501 104.3816760  76.7424771   2.6052500  91.8403439
  76.6648801   3.5560325  91.9191920  76.1386415   2.2598372  92.4978365
  75.4018738   0.1154021  99.2169999  75.9526163  -0.0128916  98.4446993
  74.5630214   0.4148910  98.8664892  81.6159301   2.0368858  86.9964702
  80.9420999   2.3400555  87.6049660  82.0025123   2.8397939  86.6470159
  79.8150516   2.2048531  89.2111781  79.9902271   1.7336574  90.0257404
  79.1283304   2.8314297  89.4393042  74.3811601   5.3537894  95.9851641
  74.6208199   5.9856418  96.6630660  73.5380798   5.0025934  96.2717000
  78.8939463   1.1617016  98.3893145  78.8209634   1.9671987  98.9012450
  78.4516856   1.3608982  97.5641166  78.6829243   0.3988786  91.8995967
  77.8996764   0.9410466  91.9934191  79.3821988   0.9162766  92.2990208
  81.3538146   1.0603850 100.5451304  82.0666119   1.6951315 100.4727205
  80.8628175   1.1567716  99.7291306  72.0017778  -1.6565351  98.2987977
  72.5871215  -2.4021664  98.4315881  71.8042617  -1.3461395  99.1824641
  74.8556433   1.3785896  93.3150420  74.1866809   1.8632024  92.8314460
  74.7169303   1.6255116  94.2293798  78.9961702   3.4129639  99.9133078
  79.5480010   3.5761261 100.6782163  79.3367895   4.0034077  99.2413103
  79.1427513   0.9788121 101.9281732  79.4514640   0.7337268 102.8004432
  79.9402995   1.1834759 101.4400603  79.1648125   3.1326031  94.1587109
  78.7253116   2.6402409  94.8519966  79.9156242   2.5898998  93.9179184
  71.6440464  -0.6762428  94.1611737  72.4698484  -0.9758657  93.7810381
  71.2934516  -1.4454806  94.6101526  69.8449069  -2.7576102  95.1200671
  69.0080978  -3.1853928  94.9384672  69.8172715  -2.5643659  96.0571462
  71.9561175   1.4550186  95.8825551  71.8215643   0.6950587  95.3163549
  71.5393237   2.1791086  95.4154340  75.1130301   2.3519503  96.0943994
  74.9962685   3.2964935  95.9922684  74.2922747   2.0493064  96.4829793
  76.1384815   3.0047765  99.3099922  77.0412062   3.0371375  99.6266417
  75.9122185   2.0748216  99.3246258  77.8938417   1.7578751  95.9710001
  76.9434048   1.7580613  95.8574373  78.1970903   1.0111486  95.4546036
  93.6291111   7.5939290  97.0355764  94.2669520   7.4746037  96.3319104
  93.5111953   8.5420134  97.0943716  90.4380817   7.5466718  96.9717288
  90.0999328   7.4307783  96.0837823  91.3070585   7.1457883  96.9518294
  86.2967633   9.4002194  92.9614179  85.7332498   9.3092131  92.1930467
  86.1820028   8.5802099  93.4416672  90.9200600   8.7001570 102.9303494
  90.9089241   8.3054368 102.0583997  91.0821239   7.9667642 103.5237265
  83.8432064  10.8953386  95.7998400  84.6353356  10.5544210  95.3844699
  84.0828715  11.0048361  96.7200553  91.8767191  13.0673162  88.2728644
  91.2255171  13.6527242  87.8862658  92.6711554  13.5979357  88.3323682
  85.8022818  10.1562299  88.6715778  86.5753694   9.6091286  88.5328654
  86.1548217  11.0206548  88.8830240  87.6407861  11.4838681 101.8782678
  87.3497727  12.3884312 101.7629344  88.2764845  11.5255209 102.5926747
  88.5664068   8.8615530  98.4684037  89.1627640   8.6371552  97.7541000
  88.6239039   8.1200275  99.0709485  88.1389096   6.3154965  86.3034228
  88.3914617   5.7936486  85.5417691  87.2013655   6.1521111  86.4060912
  93.3542456  10.7563594  88.8097628  92.7188289  10.8298220  89.5218533
  93.0239863  11.3457193  88.1316708  87.8585385   8.2183071  88.5058603
  87.7421643   7.5427975  89.1739688  87.9687645   7.7315445  87.6890756
  90.2016926   7.6793218  92.2105293  89.8375133   7.1523839  92.9218214
  91.0584042   7.2891687  92.0371778  92.5997746  11.1700097  98.8732471
  92.2998469  12.0725136  98.7648279  92.2548806  10.9032280  99.7253624
  86.0510228   7.6213894  94.9069176  85.1260724   7.4890108  95.1146868
  86.2994641   8.4008113  95.4039118  89.8211634   5.1640775  88.1913308
  89.7011259   5.6097826  89.0298788  89.1264222   5.5126093  87.6326846
  83.4119039   7.2647167  95.7412965  83.5411420   7.5181646  96.6552377
  82.7316490   7.8574875  95.4217620  87.5818526  17.9344417  91.8403439
  87.5042556  18.8852242  91.9191920  86.9780169  17.5890290  92.4978365
  90.0735756   5.1072283 104.4964806  89.2969090   5.6666203 104.4867671
  90.7126319   5.5929066 105.0179676  88.3282128   7.9157736 104.0582773
  89.0696812   8.4542780 103.7817597  87.6219113   8.5424025 104.2154325
  93.8037468  10.0586876 102.6554934  94.2120824   9.6169287 101.9109567
  93.0814729   9.4839504 102.9089127  90.1568538   4.9959483 100.0288491
  91.0029733   5.4198897 100.1723140  90.0967175   4.3393108 100.7227055
  94.1266282  10.6188067  96.4107223  93.4975145  10.7833781  95.7083291
  93.7391944  11.0329677  97.1818187  98.0055514  11.5542505  93.7651587
  97.3206552  11.9341406  93.2148620  98.0899363  12.1637832  94.4983535
  95.2606446   9.2002464 100.3646931  95.4723341   9.8434224  99.6881312
  95.2136194   8.3664781  99.8968861  89.6794244  10.3562475  93.6757308
  90.1432590  10.6350178  92.8861931  89.4151042   9.4545920  93.4930399
  86.5718325   9.9033957  96.6137072  87.1419682  10.3321225  95.9754556
  87.1626437   9.6216541  97.3121257  88.6163130   6.4785628  90.4846874
  89.3187173   6.9306671  90.9520800  88.2843759   5.8369446  91.1126767
  87.0643492   5.0697384 104.8598083  86.4342152   5.7513665 105.0933480
  86.9579580   4.9580466 103.9151221  82.3588464   4.7369180  95.7864007
  81.5687518   4.9926709  95.3104118  82.8499711   5.5517518  95.8916048
  96.3752274  12.0774419  98.5369288  97.1969717  11.6754607  98.2551970
  96.3714677  11.9742654  99.4885404  84.3103209   5.1013759  92.7447484
  83.5134373   5.2132454  93.2630980  84.0828802   5.4400412  91.8788374
  90.1408877  11.6258463 100.6929998  90.2053310  12.0878870 101.5288170
  89.4319801  10.9955828 100.8212308  80.6426167   4.9899671  98.2178998
  80.8934205   5.8746681  98.4836574  81.1785715   4.8104272  97.4454090
  89.8556895  13.2926570  90.5608979  89.7202570  14.1378106  90.9893827
  90.3966707  13.4945848  89.7974913  83.3086292  10.8102008  91.1336904
  83.8210813  11.6045258  91.2842469  83.9609005  10.1128299  91.0670505
  85.1181177  13.9267764  93.2159657  85.2947805  14.8485729  93.0280641
  85.9138010  13.6126184  93.6454037  84.4033533   5.9732396 103.0921820
  84.2887049   5.0717654 103.3928919  83.5478051   6.2196093 102.7406637
  91.4825371  13.9150137 104.6909321  91.0389225  13.1286515 104.3730225
  92.1442585  14.1029287 104.0253212  86.2412492  15.4445938  99.2169999
  86.7919917  15.3163002  98.4446993  85.4023968  15.7440827  98.8664892
  93.5806609  14.1952937 102.7190722  93.5625085  15.0161818 102.2270991
  94.5026529  14.0707012 102.9440863  90.0379663  11.7097066 103.5614231
  90.5708000  10.9485354 103.3313539  89.5093744  11.4170718 104.3038385
  81.2735209   9.1390663  91.9096474  82.1110431   9.5487671  91.6930182
  81.4513477   8.1990105  91.8796668  93.1699641   6.8065743  87.5980307
  92.6546264   7.5770348  87.8368695  92.8976949   6.1330879  88.2213369
  98.1433915   9.5598098  89.5333481  97.3663358   9.2209257  89.0888643
  98.8225396   9.5650721  88.8588446  91.4032376  10.8383059  91.0733043
  90.8753738  10.1035818  90.7606280  90.9019879  11.6157735  90.8273011
  96.3825222   9.0332079  96.1900089  95.7248897   9.7231340  96.2780217
  97.1865621   9.4228511  96.5334075  95.1930681   7.3876452  94.2404031
  95.7062563   8.0206444  94.7425740  95.8431905   6.7877647  93.8747391
  86.4620691   3.5307186  87.4535539  85.6258003   3.8681872  87.7744814
  86.3225460   3.3956166  86.5162676  89.5484976   8.6563269  84.0768016
  88.6412038   8.4252522  84.2759165  90.0456008   7.8600888  84.2641997
  92.4553055  17.3660776  86.9964702  91.7814754  17.6692473  87.6049660
  92.8418877  18.1689856  86.6470159  91.6711512   4.8625907  96.4862371
  90.7534073   5.0840854  96.3284059  92.0871655   4.9372218  95.6274078
  92.4546560   6.2617323  91.6165051  93.2018378   6.7738720  91.3072173
  92.7238149   5.9401376  92.4769445  90.7273210   8.7575864  88.5992006
  89.8184429   8.4734897  88.6964475  90.7568293   9.1774942  87.7395313
  95.9592477  12.3682453  92.3683173  95.5054804  11.5273363  92.4248364
  95.3286444  13.0043852  92.7057953  94.4025416  14.2058950  93.3032991
  94.6948391  14.7664007  92.5845357  94.9124037  14.4987511  94.0586150
  81.2961380   6.4781378  92.5807208  81.0985780   5.8850739  91.8558274
  80.7408044   6.1733588  93.2983147  89.2758104   6.3704484  94.7001801
  89.3306714   5.4178321  94.6244278  88.4649306   6.5263923  95.1843099
  90.4249297  10.2984607  85.9380084  89.9868727   9.5820466  85.4785722
  91.1659738  10.5260722  85.3765176  87.2150464   4.9881544  92.4592180
  86.4018329   5.2875715  92.8657372  87.7109458   4.5937233  93.1766662
  89.3659042  14.9839301  94.3926445  89.3235220  15.2100147  93.4634977
  90.2821740  14.7502676  94.5412246  92.8124675   5.4523369 101.2907074
  93.1674063   5.6794842 102.1501540  93.4596807   5.7841745 100.6684329
  98.5422412   8.5741804  91.9956403  98.4040311   8.7643400  91.0677592
  98.1858631   9.3361187  92.4524454  98.5691792  10.6418331  97.0067674
  99.0028299  10.5493621  97.8550728  99.2823373  10.6175832  96.3687690
  87.4824842  11.8602330  94.1888407  88.2765441  11.3652650  93.9870982
  86.7716535  11.3320193  93.8256113  92.3019687  14.2420426  98.5400775
  92.3556709  14.8111362  99.3078491  91.4334468  14.4122311  98.1754812
  83.7907606   6.0045412  90.2648160  82.8605194   5.9429867  90.4818122
  83.8865078   5.4821364  89.4684801  83.7093155   2.5300225  92.8526402
  83.9699972   3.4445558  92.7435562  84.5310327   2.0624667  93.0023014
  85.1818080   3.9437982 100.0225226  85.8541134   3.7355344  99.3737875
  84.3547867   3.7460068  99.5830458  99.4307341  10.6842032  99.5400560
  99.6243232  11.5887843  99.7859835  99.3307960  10.2249451 100.3739145
  94.4922450  10.8348775 105.1141440  94.3407957  10.6059327 104.1971524
  94.4827130  11.7919376 105.1272785  91.2607787   8.4080688 100.0987707
  92.1899847   8.5591847  99.9256674  90.8398817   8.4964708  99.2436353
  90.0596118  12.4331352  97.8686244  89.9207204  12.0650136  98.7412183
  89.2710715  12.9478991  97.6970202  90.6544270  17.5340448  89.2111781
  90.8296026  17.0628492  90.0257404  89.9677058  18.1606215  89.4393042
  91.6101333  11.8112955  95.2575082  91.2751166  11.7713725  96.1532732
  91.1105279  11.1457671  94.7845492  85.5845577   7.2180585 100.7827663
  85.4465375   6.4860824 101.3839202  86.4950501   7.1289485 100.5011851
  94.5460525   9.1568989  85.5312142  93.9289696   8.4315817  85.4345195
  94.0777014   9.9178349  85.1879216  88.2127878   6.9300544 100.2711343
  88.9227497   6.2893736 100.2297961  88.1697186   7.1813439 101.1937524
  96.2014657  13.8667897 103.1917922  96.1427203  13.1827118 102.5248505
  96.6034175  14.6086887 102.7398548  86.9256812   3.9165762 102.0906982
  86.3894169   3.4656500 102.7428579  86.3373521   4.0511671 101.3477447
  85.2205356  20.6829811  95.9851641  85.4601954  21.3148335  96.6630660
  84.3774552  20.3317851  96.2717000  86.3359071   3.3754413  84.6533446
  85.4588537   3.2543214  84.2895693  86.8116824   2.5840492  84.4012335
  96.2032064  11.8307481 101.4231902  95.3158843  11.4933403 101.5458301
  96.7730615  11.0990513 101.6600667  77.8561211   8.1631573  94.7474953
  78.5432251   7.8493303  94.1595969  77.7009340   9.0672938  94.4742205
  82.6595933   3.0521770  99.1759977  82.5754122   2.4447439  98.4410387
  81.8378640   3.5430788  99.1769473  89.7333217  16.4908934  98.3893145
  89.6603389  17.2963905  98.9012450  89.2910611  16.6900899  97.5641166
  89.5222997  15.7280704  91.8995967  88.7390519  16.2702384  91.9934191
  90.2215742  16.2454683  92.2990208  92.1931901  16.3895768 100.5451304
  92.9059873  17.0243233 100.4727205  91.7021930  16.4859634  99.7291306
  93.9149428  10.2947020  92.1168595  92.9805707  10.4148483  91.9473300
  94.0926096   9.3919487  91.8528605  87.2443814  14.1390211 101.3656875
  87.9453274  14.7726694 101.5186269  86.7738929  14.4804943 100.6052514
  95.3698210  12.4808161  89.6504782  95.6458054  12.3664756  90.5598656
  94.5002709  12.0825646  89.6116955  95.0445100   6.6934819  99.1909425
  94.3916551   6.9410726  98.5361878  95.4225480   5.8798957  98.8571902
  92.0052274  16.7294512  93.2937595  92.1874669  15.9116168  93.7565348
  92.8285260  16.9462204  92.8562485  92.3394440  15.6562697  90.5552644
  92.8682206  15.1455151  89.9422806  92.6022659  15.3405227  91.4198177
  91.0932673   7.4354630 105.6775462  90.4173310   7.3348759 106.3477837
  91.9160307   7.2793843 106.1411459  82.8411533  13.6726566  98.2987977
  83.4264969  12.9270254  98.4315881  82.6436371  13.9830523  99.1824641
  85.6950188  16.7077814  93.3150420  85.0260563  17.1923941  92.8314460
  85.5563057  16.9547034  94.2293798  77.4329187   6.2432166  97.0192420
  77.4713287   5.7095757  97.8129538  76.9269480   5.7167372  96.4003398
  89.8355456  18.7421557  99.9133078  90.3873764  18.9053179 100.6782163
  90.1761650  19.3325995  99.2413103  84.2872222   3.1619839 104.1627997
  84.9144261   2.7796917 104.7765521  83.4300141   2.9434041 104.5283689
  94.6866331  13.5682815 105.7681732  95.2306235  14.1812773 105.2736687
  94.1053176  14.1262393 106.2848745  81.0637765   4.9696269  90.0946352
  81.3591206   4.0606947  90.0413405  80.1625801   4.9484008  89.7727354
  92.9723844  16.6903533  96.8996760  92.8474983  15.8893272  96.3907706
  93.6302935  17.1849726  96.4110730  84.5932012   3.0452265  96.0773900
  83.8718598   3.6588233  95.9381374  85.3825268   3.5810030  95.9990546
  95.0358752  14.4912553  98.5276310  94.0889088  14.3717904  98.4554637
  95.3841525  13.6035051  98.6102572  82.7925606   2.6510366  90.2185677
  82.4638313   1.7707745  90.0360783  83.1464977   2.5958035  91.1062066
  92.0405185  14.2865269  94.7280662  91.8930148  13.3581976  94.9088233
  92.8658679  14.3085360  94.2437738  85.9067430   2.9383336  90.5861155
  86.2463502   3.4669257  89.8639763  86.3539550   3.2763742  91.3619721
  95.6439307  15.1093828  95.8145535  96.5685855  14.9036689  95.6769986
  95.4754611  14.8610229  96.7234877  86.7765921   5.0988820  96.2983524
  86.6310502   5.4129123  97.1907806  86.2991125   5.7173720  95.7454423
  95.4334623  15.6279495  91.1707627  95.6071501  15.0625918  90.4181479
  95.9263515  16.4280390  90.9887117  81.2511583   7.6394164  99.2371185
  80.7065051   8.4153972  99.3691460  82.1290933   7.9864969  99.0790307
  96.4209796  14.9446260  88.2704525  97.1160700  15.5652952  88.4891840
  96.7632946  14.0941611  88.5456903  82.0377605   6.7664060 102.1301342
  81.2959341   6.9146696 102.7165973  81.7170349   7.0272326 101.2668092
  98.3201219  12.3945965  89.7991856  98.8452543  12.7333238  89.0741176
  98.2323572  11.4592980  89.6154990  89.9821268  16.3080039 101.9281732
  90.2908394  16.0629185 102.8004432  90.7796750  16.5126677 101.4400603
  90.0041880  18.4617948  94.1587109  89.5646870  17.9694327  94.8519966
  90.7549997  17.9190916  93.9179184  82.4834219  14.6529489  94.1611737
  83.3092239  14.3533261  93.7810381  82.1328271  13.8837112  94.6101526
  87.4515752  14.0055957  96.2309411  86.8295761  13.3426662  95.9311638
  88.1220619  14.0317089  95.5483058  80.6842824  12.5715816  95.1200671
  79.8474732  12.1437990  94.9384672  80.6566469  12.7648259  96.0571462
  98.0095125  13.0278869 105.1043054  97.2190669  13.0103008 104.5647553
  97.7728480  13.5667162 105.8592090  98.1293000   9.8771335 102.4175782
  98.1791005   9.7121343 103.3591305  98.0206923   9.0098594 102.0273663
  87.0129259  12.5559881  89.7067871  87.1617379  13.2395345  89.0534544
  87.8195702  12.5364971  90.2217327  99.6311197  12.2968277 102.6617804
  99.3396005  12.6598257 103.4981265  99.0183328  11.5835285 102.4831136
 100.8306879   9.8621156  95.1820374 101.6653771  10.3010960  95.3457934
 100.9666008   9.3859810  94.3628620  97.8798385   7.4200891 101.1297862
  98.3552507   7.6128538 100.3216713  96.9563951   7.4760077 100.8841245
  84.7681892   8.5825058  90.7128940  84.5227934   7.6787388  90.9109150
  84.9377806   8.5842209  89.7708418  84.0377539   4.3153416  88.2115101
  83.3446784   4.3897771  87.5555137  83.7929291   3.5513760  88.7336618
  90.5124664  15.0508011  87.1779619  89.9398631  15.6698198  86.7250090
  91.0857458  15.6007373  87.7119540  93.7321924  15.3345161  88.3088201
  94.6652597  15.2690723  88.5121076  93.6445137  16.1701428  87.8502733
  96.3609941  14.6511032  85.2692148  96.2823572  14.3170895  86.1627906
  97.1819608  15.1432800  85.2683621  90.8971463   6.3868824  84.5195671
  91.8430568   6.2575032  84.5884089  90.5185708   5.6483486  84.9965099
  90.7810155  10.4386570 105.9796328  91.7013165  10.6165169 106.1736375
  90.7459738   9.4942615 105.8276027  89.0814380   4.3118800  84.4550556
  88.1745835   4.0151913  84.5313270  89.3590361   4.0148618  83.5884843
  79.9992320   5.6325164  94.9049603  79.6795105   4.7790472  94.6123977
  79.4525749   5.8473742  95.6607570  83.7772228   8.3487605  98.6219109
  83.9958238   9.2804713  98.6407143  84.1898002   7.9895579  99.4073913
  88.6500093   3.9220811 108.0121858  88.5496820   4.8715167 107.9433949
  88.4321635   3.5939049 107.1397928  79.8680580   9.2528075  96.8742724
  79.1744052   8.8382028  96.3612679  80.6153571   9.2948612  96.2776143
  88.5131363   7.3517949 106.8286920  88.0298445   8.1518309 107.0350809
  88.5992302   7.3625894 105.8754364  81.7817323   9.1846329  94.7508739
  81.7588011   9.2834016  93.7990622  82.0917959  10.0311480  95.0725905
  84.4404701  11.2422484  98.8655354  85.3947954  11.2106426  98.7985285
  84.2417224  10.7813108  99.6805579  85.0304083   9.8123600 101.4326151
  85.8496972  10.3067679 101.4560988  85.3040891   8.8955568 101.4043719
  82.7954930  16.7842104  95.8825551  82.6609397  16.0242504  95.3163549
  82.3786992  17.5083003  95.4154340  93.9313893  11.9679027  84.8902127
  94.6349743  12.1729030  85.5059782  93.2076541  12.5355789  85.1551210
  94.7611703   7.7188888  91.0104397  94.7046904   8.1757440  90.1712029
  95.3140045   6.9579573  90.8327240  85.9524055  17.6811421  96.0943994
  85.8356440  18.6256853  95.9922684  85.1316502  17.3784982  96.4829793
  95.8400590  12.4061556  86.9400587  96.6746194  11.9742755  86.7578062
  95.6784933  12.2343570  87.8677481  95.4946482   8.9093670  88.3056926
  95.4395286   8.7437941  87.3645370  94.8692537   9.6169702  88.4619116
  80.2838997   4.1461734 102.1318348  80.9297861   3.6360688 102.6205573
  80.0756148   4.8830416 102.7061774  92.8092389  11.2142581 107.6310489
  93.6783549  11.3883234 107.2697124  92.3299141  12.0336998 107.5086218
  86.9778570  18.3339682  99.3099922  87.8805816  18.3663293  99.6266417
  86.7515940  17.4040133  99.3246258  88.7332172  17.0870669  95.9710001
  87.7827803  17.0872531  95.8574373  89.0364658  16.3403404  95.4546036
 104.4684865  22.9231207  97.0355764 105.1063275  22.8037955  96.3319104
 104.3505708  23.8712051  97.0943716 101.2774571  22.8758636  96.9717288
 100.9393083  22.7599700  96.0837823 102.1464340  22.4749801  96.9518294
  97.1361387  24.7294112  92.9614179  96.5726252  24.6384049  92.1930467
  97.0213782  23.9094016  93.4416672 101.7594354  24.0293487 102.9303494
 101.7482995  23.6346285 102.0583997 101.9214994  23.2959560 103.5237265
  94.6825819  26.2245304  95.7998400  95.4747111  25.8836128  95.3844699
  94.9222469  26.3340279  96.7200553 102.7160946  28.3965080  88.2728644
 102.0648925  28.9819160  87.8862658 103.5105309  28.9271275  88.3323682
  96.6416573  25.4854217  88.6715778  97.4147449  24.9383204  88.5328654
  96.9941972  26.3498466  88.8830240  98.4801615  26.8130599 101.8782678
  98.1891481  27.7176230 101.7629344  99.1158600  26.8547127 102.5926747
  99.4057822  24.1907448  98.4684037 100.0021395  23.9663470  97.7541000
  99.4632794  23.4492193  99.0709485  98.9782851  21.6446883  86.3034228
  99.2308371  21.1228404  85.5417691  98.0407410  21.4813028  86.4060912
 104.0226134  20.6482661  94.1108972 104.8089223  20.2302084  93.7599389
 104.2864838  21.5528753  94.2790620 104.1936211  26.0855512  88.8097628
 103.5582044  26.1590138  89.5218533 103.8633617  26.6749110  88.1316708
 109.4234561  20.5857894  95.0141950 110.1559733  20.0157111  95.2479780
 108.6673916  20.1979495  95.4548456  98.6979139  23.5474989  88.5058603
  98.5815398  22.8719892  89.1739688  98.8081399  23.0607363  87.6890756
 101.0410680  23.0085136  92.2105293 100.6768888  22.4815757  92.9218214
 101.8977796  22.6183605  92.0371778 106.9459981  14.2979469  99.4736559
 106.6143306  15.1674880  99.2497774 106.3505594  13.9815753 100.1530589
 100.6816167  18.0375036  87.2066641 100.8490570  18.9055272  87.5737112
 100.4913336  18.2002317  86.2827930 103.4391501  26.4992015  98.8732471
 103.1392224  27.4017053  98.7648279 103.0942560  26.2324198  99.7253624
  96.8903982  22.9505811  94.9069176  95.9654478  22.8182025  95.1146868
  97.1388395  23.7300031  95.4039118 106.8388644  19.0174555  96.5529909
 105.9305522  18.9489963  96.2588670 106.7876240  19.4946500  97.3811734
 100.6605388  20.4932693  88.1913308 100.5405013  20.9389744  89.0298788
  99.9657977  20.8418011  87.6326846  94.2512793  22.5939085  95.7412965
  94.3805174  22.8473564  96.6552377  93.5710244  23.1866793  95.4217620
  98.4212280  33.2636335  91.8403439  98.3436310  34.2144160  91.9191920
  97.8173924  32.9182207  92.4978365 100.9129510  20.4364200 104.4964806
 100.1362844  20.9958120 104.4867671 101.5520073  20.9220983 105.0179676
 108.7050291  17.2190993  98.3307783 108.0624671  17.5123526  97.6847577
 108.2005219  17.1043913  99.1360979 106.3590454  20.9654166  89.0193642
 107.2708310  21.1981553  88.8441339 105.8500101  21.5491211  88.4568721
  99.1675882  23.2449654 104.0582773  99.9090567  23.7834698 103.7817597
  98.4612868  23.8715942 104.2154325 104.6431222  25.3878794 102.6554934
 105.0514578  24.9461205 101.9109567 103.9208484  24.8131422 102.9089127
 100.9962292  20.3251401 100.0288491 101.8423487  20.7490814 100.1723140
 100.9360930  19.6685025 100.7227055 104.9660037  25.9479985  96.4107223
 104.3368899  26.1125699  95.7083291 104.5785699  26.3621594  97.1818187
 108.8449269  26.8834423  93.7651587 108.1600307  27.2633324  93.2148620
 108.9293118  27.4929749  94.4983535 104.1461737  17.9855769 101.6869665
 103.9022669  18.7397830 101.1503941 104.4221668  18.3641117 102.5216912
 106.1000200  24.5294382 100.3646931 106.3117095  25.1726142  99.6881312
 106.0529948  23.6956698  99.8968861 103.7026429  17.1412202  97.2683503
 102.8410908  17.4393456  97.5600240 103.7288864  17.3582601  96.3364535
 100.5187999  25.6854393  93.6757308 100.9826344  25.9642096  92.8861931
 100.2544797  24.7837837  93.4930399  97.4112080  25.2325874  96.6137072
  97.9813437  25.6613143  95.9754556  98.0020191  24.9508459  97.3121257
  99.4556885  21.8077545  90.4846874 100.1580928  22.2598589  90.9520800
  99.1237513  21.1661364  91.1126767  97.9037246  20.3989302 104.8598083
  97.2735907  21.0805583 105.0933480  97.7973334  20.2872383 103.9151221
  93.1982219  20.0661098  95.7864007  92.4081273  20.3218626  95.3104118
  93.6893466  20.8809436  95.8916048 107.2146028  27.4066337  98.5369288
 108.0363472  27.0046524  98.2551970 107.2108431  27.3034571  99.4885404
  95.1496964  20.4305677  92.7447484  94.3528127  20.5424371  93.2630980
  94.9222556  20.7692329  91.8788374 100.9802632  26.9550380 100.6929998
 101.0447064  27.4170788 101.5288170 100.2713555  26.3247745 100.8212308
  91.4819922  20.3191588  98.2178998  91.7327960  21.2038598  98.4836574
  92.0179470  20.1396190  97.4454090 115.3052021  23.7505086  94.8854259
 114.5515730  23.1812484  94.7298264 115.4399562  23.7167750  95.8324894
 100.6950649  28.6218488  90.5608979 100.5596324  29.4670024  90.9893827
 101.2360462  28.8237765  89.7974913  97.1817989  14.7010068 107.2223334
  96.7884934  14.1476266 107.8970978  97.9984129  15.0120646 107.6129852
  94.1480047  26.1393926  91.1336904  94.6604567  26.9337176  91.2842469
  94.8002759  25.4420216  91.0670505  95.9574931  29.2559682  93.2159657
  96.1341560  30.1777647  93.0280641  96.7531765  28.9418101  93.6454037
 100.0985950  16.1167947 104.8143591 100.8395663  16.7175100 104.7348053
 100.3303873  15.3745585 104.2561633  95.2427288  21.3024314 103.0921820
  95.1280803  20.4009571 103.3928919  94.3871806  21.5488011 102.7406637
 102.3219126  29.2442054 104.6909321 101.8782980  28.4578433 104.3730225
 102.9836339  29.4321205 104.0253212  97.0806247  30.7737856  99.2169999
  97.6313672  30.6454919  98.4446993  96.2417723  31.0732745  98.8664892
 104.4200364  29.5244854 102.7190722 104.4018839  30.3453735 102.2270991
 105.3420284  29.3998930 102.9440863 100.8773418  27.0388984 103.5614231
 101.4101755  26.2777272 103.3313539 100.3487499  26.7462636 104.3038385
 104.0443113  12.1449050  99.0907872 103.7007382  13.0350691  99.0146983
 104.4122075  11.9550707  98.2277457  92.1128963  24.4682580  91.9096474
  92.9504185  24.8779589  91.6930182  92.2907231  23.5282022  91.8796668
 104.0093396  22.1357661  87.5980307 103.4940019  22.9062265  87.8368695
 103.7370704  21.4622797  88.2213369 101.5940507  16.9807362  92.6565546
 100.7382103  16.5914212  92.4771184 102.0067458  17.0599322  91.7965331
 103.1239653  14.5153705  97.0557106 102.6204449  14.4783840  96.2424911
 103.4170260  15.4246448  97.1153762  99.3682539  14.5992435  96.0623287
 100.2335536  14.4035243  95.7029177  99.4360048  14.3702786  96.9892644
 108.9827670  24.8890015  89.5333481 108.2057112  24.5501175  89.0888643
 109.6619151  24.8942639  88.8588446 103.7979699  20.0084753  89.4240089
 103.4929834  20.3230902  90.2750232 104.7510141  20.0866173  89.4667422
 102.2426131  26.1674976  91.0733043 101.7147492  25.4327736  90.7606280
 101.7413633  26.9449653  90.8273011 107.2218977  24.3623997  96.1900089
 106.5642651  25.0523258  96.2780217 108.0259376  24.7520429  96.5334075
  96.9744858  16.8294643  93.4339654  97.5488610  16.6069824  92.7012847
  97.5615841  16.8983337  94.1868255 106.0324435  22.7168369  94.2404031
 106.5456317  23.3498361  94.7425740 106.6825659  22.1169565  93.8747391
  97.3014445  18.8599104  87.4535539  96.4651758  19.1973790  87.7744814
  97.1619215  18.7248083  86.5162676  99.2767526  13.7035891  92.1614724
  98.6231938  13.3884909  91.5371338  99.2348000  13.0811632  92.8874546
 100.3878731  23.9855187  84.0768016  99.4805792  23.7544440  84.2759165
 100.8849763  23.1892806  84.2641997 103.2946810  32.6952694  86.9964702
 102.6208508  32.9984390  87.6049660 103.6812632  33.4981774  86.6470159
 102.5105266  20.1917825  96.4862371 101.5927828  20.4132772  96.3284059
 102.9265410  20.2664135  95.6274078 103.2940314  21.5909241  91.6165051
 104.0412133  22.1030638  91.3072173 103.5631904  21.2693293  92.4769445
 101.5666964  24.0867781  88.5992006 100.6578183  23.8026814  88.6964475
 101.5962048  24.5066860  87.7395313 106.7986232  27.6974371  92.3683173
 106.3448559  26.8565281  92.4248364 106.1680198  28.3335769  92.7057953
 105.7419151  18.6266357  93.5983841 105.0041908  18.1143743  93.9294083
 105.9945925  18.1866739  92.7867118 105.2419171  29.5350868  93.3032991
 105.5342145  30.0955925  92.5845357 105.7517791  29.8279429  94.0586150
 105.8430778  11.4042609  94.1925610 106.1489655  10.5439972  93.9051525
 106.5683383  11.9960229  93.9924604  92.1355135  21.8073296  92.5807208
  91.9379534  21.2142656  91.8558274  91.5801799  21.5025506  93.2983147
 100.1151858  21.6996402  94.7001801 100.1700468  20.7470238  94.6244278
  99.3043060  21.8555841  95.1843099 101.2643052  25.6276525  85.9380084
 100.8262482  24.9112384  85.4785722 102.0053493  25.8552640  85.3765176
  98.0544218  20.3173462  92.4592180  97.2412084  20.6167632  92.8657372
  98.5503212  19.9229150  93.1766662 100.2052796  30.3131219  94.3926445
 100.1628975  30.5392065  93.4634977 101.1215495  30.0794593  94.5412246
 103.6518430  20.7815286 101.2907074 104.0067818  21.0086759 102.1501540
 104.2990561  21.1133663 100.6684329 109.3816167  23.9033722  91.9956403
 109.2434065  24.0935318  91.0677592 109.0252386  24.6653105  92.4524454
  97.5458293  17.8891817  98.0753415  98.1857672  17.7480576  97.3776378
  96.7135823  17.6026331  97.6992017 109.4085546  25.9710249  97.0067674
 109.8422053  25.8785538  97.8550728 110.1217127  25.9467750  96.3687690
  98.3218597  27.1894248  94.1888407  99.1159195  26.6944568  93.9870982
  97.6110289  26.6612111  93.8256113 103.1413441  29.5712343  98.5400775
 103.1950464  30.1403280  99.3078491 102.2728223  29.7414228  98.1754812
  94.6301360  21.3337329  90.2648160  93.6998948  21.2721785  90.4818122
  94.7258832  20.8113282  89.4684801  94.5486909  17.8592142  92.8526402
  94.8093727  18.7737475  92.7435562  95.3704082  17.3916585  93.0023014
  96.0211835  19.2729899 100.0225226  96.6934888  19.0647262  99.3737875
  95.1941621  19.0751985  99.5830458 110.2701096  26.0133950  99.5400560
 110.4636986  26.9179760  99.7859835 110.1701714  25.5541369 100.3739145
 101.9237407  15.8991840 102.0390887 101.2765322  16.5981790 101.9455363
 102.6938422  16.3327984 102.4067135 105.3316205  26.1640692 105.1141440
 105.1801711  25.9351244 104.1971524 105.3220884  27.1211294 105.1272785
 102.1001541  23.7372605 100.0987707 103.0293601  23.8883765  99.9256674
 101.6792571  23.8256626  99.2436353 100.8989873  27.7623270  97.8686244
 100.7600958  27.3942054  98.7412183 100.1104469  28.2770909  97.6970202
 101.4938025  32.8632366  89.2111781 101.6689780  32.3920409  90.0257404
 100.8070813  33.4898132  89.4393042 102.4495088  27.1404872  95.2575082
 102.1144921  27.1005642  96.1532732 101.9499034  26.4749588  94.7845492
  96.4239332  22.5472502 100.7827663  96.2859130  21.8152741 101.3839202
  97.3344255  22.4581402 100.5011851 105.3854280  24.4860907  85.5312142
 104.7683450  23.7607735  85.4345195 104.9170768  25.2470267  85.1879216
  99.0521633  22.2592462 100.2711343  99.7621251  21.6185654 100.2297961
  99.0090941  22.5105357 101.1937524 107.0408411  29.1959815 103.1917922
 106.9820957  28.5119035 102.5248505 107.4427930  29.9378805 102.7398548
  97.7650567  19.2457680 102.0906982  97.2287924  18.7948418 102.7428579
  97.1767275  19.3803588 101.3477447  96.0599110  36.0121729  95.9851641
  96.2995708  36.6440253  96.6630660  95.2168307  35.6609769  96.2717000
  97.1752825  18.7046331  84.6533446  96.2982292  18.5835132  84.2895693
  97.6510579  17.9132409  84.4012335 107.0425819  27.1599399 101.4231902
 106.1552597  26.8225321 101.5458301 107.6124370  26.4282430 101.6600667
  88.6954966  23.4923491  94.7474953  89.3826005  23.1785221  94.1595969
  88.5403094  24.3964855  94.4742205  93.4989688  18.3813687  99.1759977
  93.4147877  17.7739357  98.4410387  92.6772394  18.8722706  99.1769473
 100.5726972  31.8200851  98.3893145 100.4997143  32.6255823  98.9012450
 100.1304365  32.0192817  97.5641166 100.3616752  31.0572621  91.8995967
  99.5784273  31.5994302  91.9934191 101.0609497  31.5746601  92.2990208
 103.6713402  16.8667251  94.5430172 104.1682101  16.1137213  94.2231242
 102.9000383  16.9031567  93.9773381 111.5243159  22.5707616  96.1848464
 111.5133035  23.4532332  95.8142397 110.6560538  22.2179167  95.9903001
 103.0325655  31.7187685 100.5451304 103.7453628  32.3535150 100.4727205
 102.5415684  31.8151551  99.7291306 104.7543182  25.6238938  92.1168595
 103.8199461  25.7440401  91.9473300 104.9319851  24.7211405  91.8528605
 100.2548370  19.0084634  94.2701857  99.8846158  18.4555674  94.9582762
 100.7507463  18.4042767  93.7176857 108.1415734  21.4656257  92.6518630
 108.6076186  22.2984249  92.5778932 108.5923234  21.0001239  93.3563888
  98.0837569  29.4682129 101.3656875  98.7847028  30.1018612 101.5186269
  97.6132684  29.8096860 100.6052514 106.2091965  27.8100079  89.6504782
 106.4851809  27.6956673  90.5598656 105.3396464  27.4117563  89.6116955
 106.1132396  13.8336844  96.6909531 105.1995476  14.0641071  96.8591738
 106.5425498  13.9175288  97.5423563 105.8838855  22.0226736  99.1909425
 105.2310305  22.2702644  98.5361878 106.2619235  21.2090874  98.8571902
 102.8446029  32.0586429  93.2937595 103.0268423  31.2408085  93.7565348
 103.6679015  32.2754122  92.8562485 103.1788194  30.9854615  90.5552644
 103.7075961  30.4747069  89.9422806 103.4416414  30.6697145  91.4198177
 101.9326428  22.7646547 105.6775462 101.2567065  22.6640677 106.3477837
 102.7554062  22.6085761 106.1411459  93.6805287  29.0018484  98.2987977
  94.2658724  28.2562172  98.4315881  93.4830125  29.3122441  99.1824641
  96.5343942  32.0369731  93.3150420  95.8654318  32.5215859  92.8314460
  96.3956812  32.2838952  94.2293798  88.2722942  21.5724084  97.0192420
  88.3107041  21.0387675  97.8129538  87.7663235  21.0459290  96.4003398
 100.6749211  34.0713475  99.9133078 101.2267519  34.2345096 100.6782163
 101.0155404  34.6617913  99.2413103  95.6513704  16.4188625 100.5154963
  95.7155031  17.2803455 100.1032360  95.5880824  15.8062626  99.7827321
  95.1265977  18.4911757 104.1627997  95.7538015  18.1088834 104.7765521
  94.2693895  18.2725959 104.5283689 105.5260085  28.8974732 105.7681732
 106.0699989  29.5104691 105.2736687 104.9446930  29.4554311 106.2848745
  91.9031519  20.2988186  90.0946352  92.1984960  19.3898865  90.0413405
  91.0019555  20.2775926  89.7727354 103.8117598  32.0195450  96.8996760
 103.6868738  31.2185190  96.3907706 104.4696689  32.5141644  96.4110730
  95.4325766  18.3744183  96.0773900  94.7112352  18.9880151  95.9381374
  96.2219022  18.9101948  95.9990546 105.8752506  29.8204470  98.5276310
 104.9282842  29.7009822  98.4554637 106.2235280  28.9326968  98.6102572
  98.2352080  15.7098609 102.3514552  98.7586482  15.9560906 103.1140861
  98.0164413  16.5418644 101.9317689  93.6319361  17.9802284  90.2185677
  93.3032067  17.0999663  90.0360783  93.9858732  17.9249953  91.1062066
 102.8798940  29.6157187  94.7280662 102.7323902  28.6873894  94.9088233
 103.7052433  29.6377277  94.2437738  96.7461184  18.2675254  90.5861155
  97.0857257  18.7961175  89.8639763  97.1933305  18.6055660  91.3619721
 106.4833062  30.4385745  95.8145535 107.4079609  30.2328607  95.6769986
 106.3148365  30.1902147  96.7234877  99.4404625  16.6512304 100.0364223
  99.1001445  15.8520117 100.4384903  98.7343631  16.9514015  99.4641056
 100.0921097  13.7361617  98.4891546 100.9147166  13.2622095  98.3670436
 100.3359160  14.5152101  98.9890232  98.7329331  16.7649875  88.7854447
  99.4537694  17.1431128  88.2818164  98.1094635  17.4838752  88.8889425
 102.8760454  17.4695024  89.7212780 103.0924068  18.3519662  89.4201608
 102.3954521  17.0781238  88.9918422  97.6159675  20.4280737  96.2983524
  97.4704256  20.7421041  97.1907806  97.1384879  21.0465638  95.7454423
  99.4756058  17.4183285  96.3464414  99.4617627  16.5224379  96.0096712
 100.1928486  17.4253949  96.9802700 101.3282189  17.8520626  98.3917541
 101.0699967  18.7737696  98.3901872 100.7967229  17.4551060  99.0818005
 106.2728378  30.9571413  91.1707627 106.4465255  30.3917835  90.4181479
 106.7657269  31.7572308  90.9887117  92.0905338  22.9686082  99.2371185
  91.5458806  23.7445890  99.3691460  92.9684688  23.3156886  99.0790307
  98.8792954  16.2997666  91.6151984  99.0008865  15.3714312  91.8142871
  98.5894997  16.3136352  90.7030299 101.7484145  13.9852576  94.7518704
 101.7705842  14.0491909  93.7970683 102.1652204  13.1457085  94.9459210
 112.1267769  23.7207836  92.7897926 112.5698915  22.9715161  92.3917050
 111.2494279  23.7117972  92.4071658 107.2603550  30.2738177  88.2704525
 107.9554455  30.8944870  88.4891840 107.6026700  29.4233528  88.5456903
  92.8771360  22.0955978 102.1301342  92.1353096  22.2438614 102.7165973
  92.5564104  22.3564244 101.2668092 109.1594973  27.7237883  89.7991856
 109.6846298  28.0625155  89.0741176 109.0717326  26.7884898  89.6154990
 100.8215022  31.6371956 101.9281732 101.1302149  31.3921103 102.8004432
 101.6190504  31.8418595 101.4400603 100.8435634  33.7909866  94.1587109
 100.4040624  33.2986245  94.8519966 101.5943751  33.2482834  93.9179184
  93.3227973  29.9821407  94.1611737  94.1485993  29.6825179  93.7810381
  92.9722025  29.2129029  94.6101526  98.2909506  29.3347875  96.2309411
  97.6689516  28.6718580  95.9311638  98.9614373  29.3609007  95.5483058
  91.5236578  27.9007733  95.1200671  90.6868487  27.4729908  94.9384672
  91.4960224  28.0940177  96.0571462  98.3634034  17.8129663 105.8241917
  98.4122189  18.6891786 105.4419686  98.9056548  17.2707056 105.2513560
 108.8488880  28.3570786 105.1043054 108.0584423  28.3394925 104.5647553
 108.6122234  28.8959080 105.8592090 108.9686755  25.2063253 102.4175782
 109.0184760  25.0413260 103.3591305 108.8600678  24.3390512 102.0273663
  97.8523013  27.8851798  89.7067871  98.0011134  28.5687263  89.0534544
  98.6589457  27.8656888  90.2217327 106.2590517  21.1894181 103.7335089
 107.1600380  21.0500646 103.4419087 106.3338491  21.3548636 104.6733266
 100.5933322  18.5661036 102.5788275  99.7236632  18.8594602 102.3070864
 100.8292803  19.1501481 103.2995539 110.4704951  27.6260194 102.6617804
 110.1789760  27.9890175 103.4981265 109.8577083  26.9127203 102.4831136
 111.6700634  25.1913074  95.1820374 112.5047525  25.6302878  95.3457934
 111.8059763  24.7151727  94.3628620 108.7192140  22.7492809 101.1297862
 109.1946261  22.9420455 100.3216713 107.7957705  22.8051995 100.8841245
  95.6075646  23.9116976  90.7128940  95.3621688  23.0079306  90.9109150
  95.7771561  23.9134127  89.7708418 103.2972356  14.7840652 100.0953696
 103.8154300  15.5201679  99.7700184 102.9427489  15.0904646 100.9300455
  94.8771294  19.6445334  88.2115101  94.1840539  19.7189689  87.5555137
  94.6323046  18.8805677  88.7336618 103.5484950  11.2040935  95.6154592
 103.8286704  10.5364124  96.2415019 104.3335557  11.3970031  95.1029256
 101.3518419  30.3799929  87.1779619 100.7792386  30.9990116  86.7250090
 101.9251212  30.9299291  87.7119540 107.4193809  19.6258569  99.3626167
 108.3711232  19.7256667  99.3838391 107.2497259  18.8336838  99.8724252
 105.4408188  16.7114152  99.5485568 104.8458120  16.9919165  98.8532057
 105.1557885  17.2008053 100.3202309 104.5715679  30.6637079  88.3088201
 105.5046352  30.5982641  88.5121076 104.4838891  31.4993346  87.8502733
 107.2003695  29.9802949  85.2692148 107.1217327  29.6462813  86.1627906
 108.0213362  30.4724717  85.2683621 109.8981886  22.8464689  98.4768467
 109.8658207  21.9080689  98.6628151 110.5082510  22.9248725  97.7434292
 101.7365217  21.7160742  84.5195671 102.6824322  21.5866950  84.5884089
 101.3579462  20.9775404  84.9965099 110.0476375  19.6375732  98.5226750
 109.5315424  18.8534189  98.3356679 110.9316323  19.3094449  98.6873270
 107.7087102  13.3816748  94.4822563 107.5111923  13.0731836  95.3665895
 108.3186807  14.1078387  94.6120493 115.7158436  23.9080696  97.6174504
 116.4461825  23.6465984  98.1782207 115.1065382  23.1709417  97.6576572
 113.7973733  22.0488558  98.2148955 113.0706897  21.9144523  97.6065447
 113.3821020  22.3565387  99.0205673 101.6203910  25.7678488 105.9796328
 102.5406919  25.9457087 106.1736375 101.5853493  24.8234533 105.8276027
  99.9208134  19.6410718  84.4550556  99.0139590  19.3443831  84.5313270
 100.1984115  19.3440536  83.5884843  90.8386075  20.9617081  94.9049603
  90.5188859  20.1082390  94.6123977  90.2919503  21.1765660  95.6607570
  94.6165982  23.6779522  98.6219109  94.8351992  24.6096630  98.6407143
  95.0291756  23.3187497  99.4073913 101.5370200  14.1847608  90.6094798
 100.7270928  13.8394693  90.9850044 102.2254617  13.8755151  91.1982409
 103.4660748  13.2625655  92.2319094 104.0191787  13.6821108  92.8909117
 103.7030835  12.3361403  92.2742050  99.4893848  19.2512728 108.0121858
  99.3890575  20.2007085 107.9433949  99.2715390  18.9230967 107.1397928
  98.6906919  16.4997653  84.5962535  99.5526083  16.8252552  84.8558353
  98.8757263  15.7129149  84.0835601  90.7074335  24.5819993  96.8742724
  90.0137806  24.1673946  96.3612679  91.4547326  24.6240529  96.2776143
 106.8439556  15.3726180  91.7397758 106.2638225  16.0310984  91.3575811
 106.5775488  14.5503524  91.3285176 105.2943122  14.7731237  93.9419079
 105.7942900  14.8847772  93.1333398 105.9378730  14.4692290  94.5819887
  99.3525118  22.6809867 106.8286920  98.8692199  23.4810227 107.0350809
  99.4386057  22.6917812 105.8754364  92.6211077  24.5138247  94.7508739
  92.5981765  24.6125934  93.7990622  92.9311714  25.3603398  95.0725905
  95.2798455  26.5714402  98.8655354  96.2341709  26.5398344  98.7985285
  95.0810979  26.1105025  99.6805579  95.8697837  25.1415518 101.4326151
  96.6890726  25.6359596 101.4560988  96.1434645  24.2247486 101.4043719
 105.6264434  17.5326270  90.7954107 104.7390289  17.8175921  90.5774301
 106.0418423  17.3720033  89.9481384 108.9778970  17.5572791  94.5108446
 109.7539360  18.0469244  94.7833063 108.2527104  17.9830845  94.9680315
 111.4151528  18.2700410  95.5682387 112.0096019  18.0296146  94.8575695
 111.4878112  17.5507541  96.1955923  93.6348684  32.1134021  95.8825551
  93.5003152  31.3534422  95.3163549  93.2180746  32.8374921  95.4154340
 104.7707647  27.2970945  84.8902127 105.4743497  27.5020947  85.5059782
 104.0470296  27.8647707  85.1551210 105.6005457  23.0480806  91.0104397
 105.5440659  23.5049357  90.1712029 106.1533800  22.2871491  90.8327240
 109.4110263  18.8370538  91.8354516 109.1547197  18.4367174  92.6662724
 108.7863131  19.5514332  91.7104656 113.7222601  21.5766611  94.3425808
 113.1622159  21.6459800  95.1157370 113.1166104  21.4007596  93.6225304
  96.7917810  33.0103338  96.0943994  96.6750194  33.9548771  95.9922684
  95.9710256  32.7076900  96.4829793 106.6794344  27.7353474  86.9400587
 107.5139948  27.3034672  86.7578062 106.5178687  27.5635488  87.8677481
 106.3340237  24.2385587  88.3056926 106.2789040  24.0729859  87.3645370
 105.7086292  24.9461620  88.4619116  91.1232752  19.4753652 102.1318348
  91.7691615  18.9652606 102.6205573  90.9149903  20.2122333 102.7061774
 103.6486144  26.5434499 107.6310489 104.5177303  26.7175151 107.2697124
 103.1692895  27.3628916 107.5086218  99.6436362  13.7393696  87.8842244
  99.6315032  14.6835536  88.0410515 100.5359784  13.5563842  87.5901706
  97.8172324  33.6631600  99.3099922  98.7199571  33.6955210  99.6266417
  97.5909694  32.7332051  99.3246258  99.5725926  32.4162587  95.9710001
  98.6221557  32.4164448  95.8574373  99.8758412  31.6695321  95.4546036
 103.4588482  10.3336473  92.1388181 102.6920877   9.7794960  92.2844864
 103.8699186  10.4058342  93.0002333  95.4630243  16.6221269 106.2293363
  96.3261704  16.2658074 106.4396687  94.8895653  16.2835164 106.9168767
 115.3078620  38.2523125  97.0355764 115.9457029  38.1329872  96.3319104
 115.1899462  39.2003969  97.0943716 112.1168326  38.2050553  96.9717288
 111.7786837  38.0891618  96.0837823 112.9858094  37.8041718  96.9518294
 107.9755141  40.0586030  92.9614179 107.4120007  39.9675967  92.1930467
 107.8607537  39.2385934  93.4416672 112.5988109  39.3585405 102.9303494
 112.5876750  38.9638203 102.0583997 112.7608748  38.6251478 103.5237265
 105.5219573  41.5537221  95.7998400 106.3140865  41.2128046  95.3844699
 105.7616224  41.6632196  96.7200553 113.5554700  43.7256997  88.2728644
 112.9042680  44.3111078  87.8862658 114.3499063  44.2563192  88.3323682
 107.4810327  40.8146134  88.6715778 108.2541203  40.2675122  88.5328654
 107.8335726  41.6790384  88.8830240 109.3195370  42.1422517 101.8782678
 109.0285236  43.0468148 101.7629344 109.9552354  42.1839044 102.5926747
 110.2451577  39.5199365  98.4684037 110.8415149  39.2955388  97.7541000
 110.3026548  38.7784111  99.0709485 109.8176605  36.9738801  86.3034228
 110.0702126  36.4520322  85.5417691 108.8801164  36.8104946  86.4060912
 114.8619888  35.9774579  94.1108972 115.6482977  35.5594002  93.7599389
 115.1258592  36.8820671  94.2790620 115.0329965  41.4147429  88.8097628
 114.3975798  41.4882056  89.5218533 114.7027372  42.0041028  88.1316708
 120.2628315  35.9149812  95.0141950 120.9953487  35.3449029  95.2479780
 119.5067671  35.5271413  95.4548456 109.5372894  38.8766907  88.5058603
 109.4209152  38.2011810  89.1739688 109.6475154  38.3899280  87.6890756
 111.8804435  38.3377054  92.2105293 111.5162642  37.8107675  92.9218214
 112.7371551  37.9475523  92.0371778 117.7853735  29.6271386  99.4736559
 117.4537060  30.4966797  99.2497774 117.1899349  29.3107670 100.1530589
 111.5209922  33.3666953  87.2066641 111.6884324  34.2347190  87.5737112
 111.3307091  33.5294235  86.2827930 114.2785255  41.8283932  98.8732471
 113.9785978  42.7308971  98.7648279 113.9336315  41.5616115  99.7253624
 107.7297736  38.2797729  94.9069176 106.8048233  38.1473943  95.1146868
 107.9782150  39.0591948  95.4039118 117.6782399  34.3466472  96.5529909
 116.7699276  34.2781881  96.2588670 117.6269995  34.8238417  97.3811734
 111.4999143  35.8224611  88.1913308 111.3798768  36.2681662  89.0298788
 110.8051731  36.1709928  87.6326846 105.0906548  37.9231003  95.7412965
 105.2198929  38.1765482  96.6552377 104.4103999  38.5158711  95.4217620
 109.2606035  48.5928253  91.8403439 109.1830065  49.5436078  91.9191920
 108.6567678  48.2474125  92.4978365 111.7523265  35.7656118 104.4964806
 110.9756599  36.3250038 104.4867671 112.3913828  36.2512901 105.0179676
 119.5444045  32.5482911  98.3307783 118.9018425  32.8415444  97.6847577
 119.0398974  32.4335831  99.1360979 117.1984209  36.2946084  89.0193642
 118.1102065  36.5273471  88.8441339 116.6893856  36.8783128  88.4568721
 110.0069637  38.5741571 104.0582773 110.7484321  39.1126615 103.7817597
 109.3006622  39.2007860 104.2154325 115.4824977  40.7170712 102.6554934
 115.8908333  40.2753122 101.9109567 114.7602238  40.1423339 102.9089127
 111.8356047  35.6543319 100.0288491 112.6817242  36.0782732 100.1723140
 111.7754684  34.9976943 100.7227055 115.8053791  41.2771902  96.4107223
 115.1762654  41.4417617  95.7083291 115.4179453  41.6913512  97.1818187
 119.6843023  42.2126340  93.7651587 118.9994061  42.5925242  93.2148620
 119.7686872  42.8221667  94.4983535 114.9855492  33.3147687 101.6869665
 114.7416424  34.0689747 101.1503941 115.2615422  33.6933035 102.5216912
 116.9393955  39.8586299 100.3646931 117.1510850  40.5018059  99.6881312
 116.8923703  39.0248616  99.8968861 114.5420184  32.4704120  97.2683503
 113.6804663  32.7685374  97.5600240 114.5682618  32.6874519  96.3364535
 111.3581753  41.0146311  93.6757308 111.8220099  41.2934014  92.8861931
 111.0938551  40.1129755  93.4930399 108.2505834  40.5617792  96.6137072
 108.8207191  40.9905060  95.9754556 108.8413946  40.2800377  97.3121257
 110.2950639  37.1369463  90.4846874 110.9974682  37.5890507  90.9520800
 109.9631268  36.4953282  91.1126767 108.7431001  35.7281220 104.8598083
 108.1129661  36.4097500 105.0933480 108.6367089  35.6164301 103.9151221
 104.0375973  35.3953016  95.7864007 103.2475027  35.6510544  95.3104118
 104.5287220  36.2101353  95.8916048 118.0539783  42.7358255  98.5369288
 118.8757226  42.3338442  98.2551970 118.0502185  42.6326489  99.4885404
 105.9890718  35.7597595  92.7447484 105.1921882  35.8716289  93.2630980
 105.7616311  36.0984247  91.8788374 111.8196386  42.2842298 100.6929998
 111.8840819  42.7462705 101.5288170 111.1107310  41.6539663 100.8212308
 102.3213676  35.6483506  98.2178998 102.5721714  36.5330516  98.4836574
 102.8573224  35.4688108  97.4454090 126.1445776  39.0797003  94.8854259
 125.3909484  38.5104401  94.7298264 126.2793317  39.0459668  95.8324894
 111.5344404  43.9510406  90.5608979 111.3990079  44.7961941  90.9893827
 112.0754216  44.1529683  89.7974913 108.0211743  30.0301985 107.2223334
 107.6278689  29.4768184 107.8970978 108.8377884  30.3412564 107.6129852
 104.9873801  41.4685844  91.1336904 105.4998322  42.2629094  91.2842469
 105.6396514  40.7712134  91.0670505 106.7968686  44.5851600  93.2159657
 106.9735314  45.5069565  93.0280641 107.5925519  44.2710019  93.6454037
 110.9379704  31.4459864 104.8143591 111.6789418  32.0467018 104.7348053
 111.1697627  30.7037502 104.2561633 106.0821042  36.6316232 103.0921820
 105.9674558  35.7301489 103.3928919 105.2265560  36.8779928 102.7406637
 113.1612880  44.5733972 104.6909321 112.7176734  43.7870351 104.3730225
 113.8230094  44.7613123 104.0253212 107.9200001  46.1029774  99.2169999
 108.4707426  45.9746837  98.4446993 107.0811477  46.4024663  98.8664892
 115.2594118  44.8536772 102.7190722 115.2412594  45.6745653 102.2270991
 116.1814038  44.7290847 102.9440863 111.7167172  42.3680901 103.5614231
 112.2495509  41.6069190 103.3313539 111.1881253  42.0754553 104.3038385
 114.8836867  27.4740967  99.0907872 114.5401137  28.3642609  99.0146983
 115.2515830  27.2842625  98.2277457 102.9522718  39.7974498  91.9096474
 103.7897940  40.2071506  91.6930182 103.1300986  38.8573940  91.8796668
 114.8487150  37.4649579  87.5980307 114.3333773  38.2354183  87.8368695
 114.5764458  36.7914715  88.2213369 112.4334261  32.3099279  92.6565546
 111.5775857  31.9206130  92.4771184 112.8461213  32.3891240  91.7965331
 113.9633408  29.8445623  97.0557106 113.4598203  29.8075758  96.2424911
 114.2564015  30.7538365  97.1153762 110.2076294  29.9284352  96.0623287
 111.0729290  29.7327161  95.7029177 110.2753802  29.6994704  96.9892644
 119.8221424  40.2181933  89.5333481 119.0450867  39.8793093  89.0888643
 120.5012905  40.2234556  88.8588446 114.6373453  35.3376671  89.4240089
 114.3323589  35.6522820  90.2750232 115.5903895  35.4158090  89.4667422
 113.0819885  41.4966894  91.0733043 112.5541247  40.7619654  90.7606280
 112.5807388  42.2741570  90.8273011 118.0612731  39.6915914  96.1900089
 117.4036405  40.3815176  96.2780217 118.8653130  40.0812346  96.5334075
 107.8138613  32.1586560  93.4339654 108.3882365  31.9361742  92.7012847
 108.4009595  32.2275255  94.1868255 116.8718190  38.0460287  94.2404031
 117.3850072  38.6790279  94.7425740 117.5219414  37.4461483  93.8747391
 108.1408200  34.1891021  87.4535539 107.3045512  34.5265708  87.7744814
 108.0012969  34.0540001  86.5162676 110.1161280  29.0327809  92.1614724
 109.4625693  28.7176826  91.5371338 110.0741755  28.4103550  92.8874546
 111.2272485  39.3147104  84.0768016 110.3199547  39.0836358  84.2759165
 111.7243517  38.5184723  84.2641997 114.1340564  48.0244611  86.9964702
 113.4602263  48.3276308  87.6049660 114.5206386  48.8273692  86.6470159
 113.3499021  35.5209743  96.4862371 112.4321582  35.7424690  96.3284059
 113.7659164  35.5956053  95.6274078 114.1334068  36.9201158  91.6165051
 114.8805887  37.4322556  91.3072173 114.4025658  36.5985211  92.4769445
 112.4060719  39.4159699  88.5992006 111.4971938  39.1318732  88.6964475
 112.4355802  39.8358778  87.7395313 117.6379986  43.0266289  92.3683173
 117.1842313  42.1857198  92.4248364 117.0073953  43.6627687  92.7057953
 116.5812906  33.9558275  93.5983841 115.8435662  33.4435661  93.9294083
 116.8339679  33.5158656  92.7867118 116.0812925  44.8642785  93.3032991
 116.3735900  45.4247842  92.5845357 116.5911546  45.1571346  94.0586150
 116.6824533  26.7334527  94.1925610 116.9883410  25.8731890  93.9051525
 117.4077138  27.3252147  93.9924604 102.9748889  37.1365213  92.5807208
 102.7773289  36.5434574  91.8558274 102.4195553  36.8317423  93.2983147
 110.9545613  37.0288320  94.7001801 111.0094222  36.0762156  94.6244278
 110.1436815  37.1847759  95.1843099 112.1036806  40.9568443  85.9380084
 111.6656236  40.2404302  85.4785722 112.8447247  41.1844558  85.3765176
 108.8937973  35.6465379  92.4592180 108.0805838  35.9459550  92.8657372
 109.3896967  35.2521068  93.1766662 111.0446551  45.6423136  94.3926445
 111.0022729  45.8683983  93.4634977 111.9609249  45.4086511  94.5412246
 114.4912184  36.1107204 101.2907074 114.8461572  36.3378677 102.1501540
 115.1384316  36.4425581 100.6684329 120.2209921  39.2325640  91.9956403
 120.0827820  39.4227236  91.0677592 119.8646140  39.9945023  92.4524454
 108.3852047  33.2183735  98.0753415 109.0251427  33.0772494  97.3776378
 107.5529578  32.9318248  97.6992017 120.2479301  41.3002167  97.0067674
 120.6815808  41.2077456  97.8550728 120.9610882  41.2759667  96.3687690
 109.1612351  42.5186165  94.1888407 109.9552950  42.0236485  93.9870982
 108.4504044  41.9904028  93.8256113 113.9807196  44.9004261  98.5400775
 114.0344218  45.4695197  99.3078491 113.1121977  45.0706146  98.1754812
 105.4695115  36.6629247  90.2648160 104.5392703  36.6013703  90.4818122
 105.5652587  36.1405200  89.4684801 105.3880664  33.1884060  92.8526402
 105.6487481  34.1029393  92.7435562 106.2097836  32.7208502  93.0023014
 106.8605589  34.6021817 100.0225226 107.5328643  34.3939179  99.3737875
 106.0335376  34.4043903  99.5830458 121.1094850  41.3425867  99.5400560
 121.3030740  42.2471678  99.7859835 121.0095469  40.8833286 100.3739145
 112.7631161  31.2283758 102.0390887 112.1159076  31.9273708 101.9455363
 113.5332177  31.6619902 102.4067135 116.1709959  41.4932610 105.1141440
 116.0195465  41.2643162 104.1971524 116.1614639  42.4503212 105.1272785
 112.9395295  39.0664523 100.0987707 113.8687355  39.2175683  99.9256674
 112.5186326  39.1548544  99.2436353 111.7383627  43.0915187  97.8686244
 111.5994713  42.7233972  98.7412183 110.9498224  43.6062827  97.6970202
 112.3331779  48.1924284  89.2111781 112.5083535  47.7212327  90.0257404
 111.6464567  48.8190050  89.4393042 113.2888842  42.4696790  95.2575082
 112.9538675  42.4297560  96.1532732 112.7892788  41.8041506  94.7845492
 107.2633086  37.8764420 100.7827663 107.1252884  37.1444659 101.3839202
 108.1738010  37.7873320 100.5011851 116.2248034  39.8152824  85.5312142
 115.6077205  39.0899653  85.4345195 115.7564523  40.5762185  85.1879216
 109.8915387  37.5884379 100.2711343 110.6015006  36.9477572 100.2297961
 109.8484695  37.8397274 101.1937524 117.8802166  44.5251733 103.1917922
 117.8214712  43.8410953 102.5248505 118.2821684  45.2670723 102.7398548
 108.6044321  34.5749597 102.0906982 108.0681678  34.1240336 102.7428579
 108.0161029  34.7095506 101.3477447 106.8992865  51.3413647  95.9851641
 107.1389463  51.9732171  96.6630660 106.0562061  50.9901687  96.2717000
 108.0146580  34.0338249  84.6533446 107.1376046  33.9127049  84.2895693
 108.4904333  33.2424327  84.4012335 117.8819573  42.4891317 101.4231902
 116.9946352  42.1517238 101.5458301 118.4518124  41.7574348 101.6600667
  99.5348720  38.8215408  94.7474953 100.2219760  38.5077138  94.1595969
  99.3796849  39.7256773  94.4742205 104.3383442  33.7105605  99.1759977
 104.2541631  33.1031275  98.4410387 103.5166149  34.2014623  99.1769473
 111.4120726  47.1492769  98.3893145 111.3390898  47.9547741  98.9012450
 110.9698120  47.3484735  97.5641166 111.2010506  46.3864539  91.8995967
 110.4178028  46.9286219  91.9934191 111.9003251  46.9038519  92.2990208
 114.5107156  32.1959168  94.5430172 115.0075856  31.4429131  94.2231242
 113.7394138  32.2323485  93.9773381 122.3636914  37.8999534  96.1848464
 122.3526790  38.7824249  95.8142397 121.4954293  37.5471085  95.9903001
 113.8719410  47.0479603 100.5451304 114.5847382  47.6827068 100.4727205
 113.3809439  47.1443469  99.7291306 115.5936937  40.9530856  92.1168595
 114.6593216  41.0732318  91.9473300 115.7713605  40.0503322  91.8528605
 111.0942125  34.3376551  94.2701857 110.7239912  33.7847592  94.9582762
 111.5901217  33.7334685  93.7176857 118.9809488  36.7948175  92.6518630
 119.4469940  37.6276167  92.5778932 119.4316989  36.3293157  93.3563888
 108.9231323  44.7974047 101.3656875 109.6240783  45.4310529 101.5186269
 108.4526438  45.1388778 100.6052514 117.0485719  43.1391996  89.6504782
 117.3245563  43.0248591  90.5598656 116.1790218  42.7409481  89.6116955
 116.9526151  29.1628762  96.6909531 116.0389231  29.3932989  96.8591738
 117.3819252  29.2467206  97.5423563 116.7232609  37.3518654  99.1909425
 116.0704060  37.5994561  98.5361878 117.1012989  36.5382792  98.8571902
 113.6839783  47.3878347  93.2937595 113.8662178  46.5700003  93.7565348
 114.5072769  47.6046039  92.8562485 114.0181949  46.3146532  90.5552644
 114.5469715  45.8038987  89.9422806 114.2810168  45.9989062  91.4198177
 112.7720182  38.0938465 105.6775462 112.0960819  37.9932594 106.3477837
 113.5947816  37.9377679 106.1411459 104.5199042  44.3310402  98.2987977
 105.1052478  43.5854089  98.4315881 104.3223880  44.6414358  99.1824641
 107.3737697  47.3661649  93.3150420 106.7048072  47.8507777  92.8314460
 107.2350566  47.6130869  94.2293798  99.1116696  36.9016002  97.0192420
  99.1500796  36.3679592  97.8129538  98.6056989  36.3751207  96.4003398
 111.5142965  49.4005392  99.9133078 112.0661273  49.5637014 100.6782163
 111.8549159  49.9909830  99.2413103 106.4907459  31.7480542 100.5154963
 106.5548785  32.6095373 100.1032360 106.4274579  31.1354544  99.7827321
 105.9659731  33.8203675 104.1627997 106.5931770  33.4380752 104.7765521
 105.1087650  33.6017877 104.5283689 116.3653840  44.2266650 105.7681732
 116.9093744  44.8396608 105.2736687 115.7840684  44.7846228 106.2848745
 102.7425274  35.6280104  90.0946352 103.0378715  34.7190782  90.0413405
 101.8413310  35.6067843  89.7727354 114.6511353  47.3487368  96.8996760
 114.5262492  46.5477108  96.3907706 115.3090444  47.8433561  96.4110730
 106.2719521  33.7036100  96.0773900 105.5506107  34.3172068  95.9381374
 107.0612777  34.2393865  95.9990546 116.7146261  45.1496388  98.5276310
 115.7676597  45.0301739  98.4554637 117.0629034  44.2618886  98.6102572
 109.0745834  31.0390527 102.3514552 109.5980236  31.2852824 103.1140861
 108.8558168  31.8710562 101.9317689 104.4713115  33.3094202  90.2185677
 104.1425822  32.4291580  90.0360783 104.8252486  33.2541870  91.1062066
 113.7192694  44.9449104  94.7280662 113.5717657  44.0165812  94.9088233
 114.5446188  44.9669195  94.2437738 107.5854939  33.5967171  90.5861155
 107.9251011  34.1253093  89.8639763 108.0327059  33.9347577  91.3619721
 117.3226816  45.7677663  95.8145535 118.2473364  45.5620524  95.6769986
 117.1542120  45.5194064  96.7234877 110.2798379  31.9804222 100.0364223
 109.9395200  31.1812035 100.4384903 109.5737386  32.2805933  99.4641056
 110.9314851  29.0653535  98.4891546 111.7540921  28.5914013  98.3670436
 111.1752915  29.8444018  98.9890232 109.5723086  32.0941793  88.7854447
 110.2931448  32.4723046  88.2818164 108.9488390  32.8130670  88.8889425
 113.7154209  32.7986942  89.7212780 113.9317823  33.6811580  89.4201608
 113.2348276  32.4073155  88.9918422 108.4553430  35.7572655  96.2983524
 108.3098011  36.0712958  97.1907806 107.9778634  36.3757555  95.7454423
 110.3149813  32.7475203  96.3464414 110.3011382  31.8516296  96.0096712
 111.0322241  32.7545867  96.9802700 112.1675944  33.1812543  98.3917541
 111.9093721  34.1029614  98.3901872 111.6360984  32.7842978  99.0818005
 117.1122132  46.2863330  91.1707627 117.2859010  45.7209753  90.4181479
 117.6051024  47.0864225  90.9887117 102.9299092  38.2978000  99.2371185
 102.3852560  39.0737808  99.3691460 103.8078442  38.6448804  99.0790307
 109.7186709  31.6289583  91.6151984 109.8402620  30.7006230  91.8142871
 109.4288751  31.6428269  90.7030299 112.5877899  29.3144494  94.7518704
 112.6099596  29.3783827  93.7970683 113.0045958  28.4749003  94.9459210
 122.9661524  39.0499753  92.7897926 123.4092670  38.3007079  92.3917050
 122.0888034  39.0409890  92.4071658 118.0997305  45.6030095  88.2704525
 118.7948209  46.2236788  88.4891840 118.4420455  44.7525446  88.5456903
 103.7165114  37.4247896 102.1301342 102.9746850  37.5730531 102.7165973
 103.3957858  37.6856161 101.2668092 119.9988728  43.0529800  89.7991856
 120.5240052  43.3917073  89.0741176 119.9111081  42.1176816  89.6154990
 111.6608777  46.9663874 101.9281732 111.9695903  46.7213021 102.8004432
 112.4584259  47.1710513 101.4400603 111.6829389  49.1201784  94.1587109
 111.2434379  48.6278162  94.8519966 112.4337506  48.5774751  93.9179184
 104.1621728  45.3113325  94.1611737 104.9879748  45.0117096  93.7810381
 103.8115780  44.5420947  94.6101526 109.1303261  44.6639793  96.2309411
 108.5083270  44.0010498  95.9311638 109.8008128  44.6900925  95.5483058
 102.3630333  43.2299651  95.1200671 101.5262241  42.8021825  94.9384672
 102.3353978  43.4232094  96.0571462 109.2027788  33.1421581 105.8241917
 109.2515944  34.0183704 105.4419686 109.7450303  32.5998974 105.2513560
 119.6882634  43.6862704 105.1043054 118.8978178  43.6686843 104.5647553
 119.4515989  44.2250998 105.8592090 119.8080509  40.5355170 102.4175782
 119.8578514  40.3705178 103.3591305 119.6994432  39.6682429 102.0273663
 108.6916768  43.2143716  89.7067871 108.8404888  43.8979181  89.0534544
 109.4983211  43.1948806  90.2217327 117.0984271  36.5186098 103.7335089
 117.9994134  36.3792563 103.4419087 117.1732246  36.6840553 104.6733266
 111.4327077  33.8952953 102.5788275 110.5630386  34.1886519 102.3070864
 111.6686557  34.4793398 103.2995539 121.3098706  42.9552112 102.6617804
 121.0183514  43.3182092 103.4981265 120.6970837  42.2419120 102.4831136
 122.5094388  40.5204992  95.1820374 123.3441280  40.9594796  95.3457934
 122.6453517  40.0443645  94.3628620 119.5585894  38.0784727 101.1297862
 120.0340016  38.2712373 100.3216713 118.6351460  38.1343912 100.8841245
 106.4469401  39.2408894  90.7128940 106.2015443  38.3371224  90.9109150
 106.6165315  39.2426044  89.7708418 114.1366111  30.1132570 100.0953696
 114.6548054  30.8493597  99.7700184 113.7821243  30.4196563 100.9300455
 105.7165048  34.9737251  88.2115101 105.0234293  35.0481606  87.5555137
 105.4716800  34.2097595  88.7336618 114.3878705  26.5332853  95.6154592
 114.6680459  25.8656042  96.2415019 115.1729312  26.7261948  95.1029256
 112.1912173  45.7091847  87.1779619 111.6186140  46.3282034  86.7250090
 112.7644967  46.2591208  87.7119540 118.2587563  34.9550487  99.3626167
 119.2104986  35.0548584  99.3838391 118.0891014  34.1628755  99.8724252
 116.2801943  32.0406070  99.5485568 115.6851875  32.3211083  98.8532057
 115.9951639  32.5299971 100.3202309 115.4109433  45.9928997  88.3088201
 116.3440106  45.9274558  88.5121076 115.3232646  46.8285264  87.8502733
 118.0397450  45.3094867  85.2692148 117.9611081  44.9754731  86.1627906
 118.8607117  45.8016635  85.2683621 120.7375641  38.1756606  98.4768467
 120.7051961  37.2372607  98.6628151 121.3476265  38.2540643  97.7434292
 112.5758972  37.0452659  84.5195671 113.5218077  36.9158867  84.5884089
 112.1973217  36.3067321  84.9965099 120.8870129  34.9667650  98.5226750
 120.3709178  34.1826106  98.3356679 121.7710078  34.6386366  98.6873270
 118.5480856  28.7108665  94.4822563 118.3505677  28.4023754  95.3665895
 119.1580562  29.4370304  94.6120493 126.5552191  39.2372613  97.6174504
 127.2855579  38.9757901  98.1782207 125.9459136  38.5001335  97.6576572
 124.6367488  37.3780476  98.2148955 123.9100651  37.2436441  97.6065447
 124.2214775  37.6857304  99.0205673 112.4597664  41.0970405 105.9796328
 113.3800674  41.2749004 106.1736375 112.4247247  40.1526451 105.8276027
 110.7601889  34.9702636  84.4550556 109.8533344  34.6735748  84.5313270
 111.0377870  34.6732454  83.5884843 101.6779829  36.2908999  94.9049603
 101.3582614  35.4374307  94.6123977 101.1313257  36.5057577  95.6607570
 105.4559737  39.0071440  98.6219109 105.6745747  39.9388548  98.6407143
 105.8685511  38.6479415  99.4073913 112.3763955  29.5139525  90.6094798
 111.5664683  29.1686610  90.9850044 113.0648372  29.2047069  91.1982409
 114.3054503  28.5917572  92.2319094 114.8585542  29.0113026  92.8909117
 114.5424589  27.6653320  92.2742050 110.3287602  34.5804646 108.0121858
 110.2284329  35.5299003 107.9433949 110.1109144  34.2522885 107.1397928
 109.5300674  31.8289571  84.5962535 110.3919838  32.1544469  84.8558353
 109.7151018  31.0421067  84.0835601 101.5468089  39.9111911  96.8742724
 100.8531561  39.4965863  96.3612679 102.2941080  39.9532447  96.2776143
 117.6833310  30.7018097  91.7397758 117.1031979  31.3602901  91.3575811
 117.4169243  29.8795442  91.3285176 116.1336876  30.1023155  93.9419079
 116.6336655  30.2139690  93.1333398 116.7772484  29.7984208  94.5819887
 110.1918872  38.0101785 106.8286920 109.7085954  38.8102145 107.0350809
 110.2779811  38.0209730 105.8754364 103.4604832  39.8430164  94.7508739
 103.4375520  39.9417852  93.7990622 103.7705468  40.6895315  95.0725905
 106.1192210  41.9006319  98.8655354 107.0735463  41.8690262  98.7985285
 105.9204733  41.4396943  99.6805579 106.7091592  40.4707435 101.4326151
 107.5284481  40.9651514 101.4560988 106.9828400  39.5539404 101.4043719
 116.4658188  32.8618188  90.7954107 115.5784043  33.1467838  90.5774301
 116.8812177  32.7011951  89.9481384 119.8172724  32.8864709  94.5108446
 120.5933114  33.3761161  94.7833063 119.0920858  33.3122763  94.9680315
 122.2545283  33.5992328  95.5682387 122.8489774  33.3588064  94.8575695
 122.3271867  32.8799459  96.1955923 104.4742439  47.4425939  95.8825551
 104.3396906  46.6826340  95.3163549 104.0574501  48.1666839  95.4154340
 115.6101402  42.6262862  84.8902127 116.3137252  42.8312865  85.5059782
 114.8864050  43.1939624  85.1551210 116.4399212  38.3772724  91.0104397
 116.3834413  38.8341275  90.1712029 116.9927554  37.6163408  90.8327240
 120.2504018  34.1662456  91.8354516 119.9940952  33.7659091  92.6662724
 119.6256886  34.8806249  91.7104656 124.5616356  36.9058529  94.3425808
 124.0015914  36.9751718  95.1157370 123.9559859  36.7299513  93.6225304
 107.6311564  48.3395256  96.0943994 107.5143949  49.2840688  95.9922684
 106.8104011  48.0368817  96.4829793 117.5188099  43.0645392  86.9400587
 118.3533703  42.6326590  86.7578062 117.3572442  42.8927405  87.8677481
 117.1733991  39.5677505  88.3056926 117.1182795  39.4021776  87.3645370
 116.5480046  40.2753538  88.4619116 101.9626506  34.8045569 102.1318348
 102.6085370  34.2944523 102.6205573 101.7543657  35.5414251 102.7061774
 114.4879898  41.8726417 107.6310489 115.3571058  42.0467069 107.2697124
 114.0086650  42.6920834 107.5086218 110.4830117  29.0685614  87.8842244
 110.4708786  30.0127454  88.0410515 111.3753538  28.8855759  87.5901706
 108.6566079  48.9923518  99.3099922 109.5593325  49.0247128  99.6266417
 108.4303449  48.0623969  99.3246258 110.4119681  47.7454504  95.9710001
 109.4615312  47.7456366  95.8574373 110.7152167  46.9987239  95.4546036
 114.2982236  25.6628391  92.1388181 113.5314632  25.1086877  92.2844864
 114.7092941  25.7350259  93.0002333 106.3023997  31.9513186 106.2293363
 107.1655459  31.5949991 106.4396687 105.7289408  31.6127081 106.9168767
 126.1472374  53.5815043  97.0355764 126.7850784  53.4621790  96.3319104
 126.0293217  54.5295887  97.0943716 122.9562080  53.5342471  96.9717288
 122.6180592  53.4183536  96.0837823 123.8251848  53.1333636  96.9518294
 118.8148896  55.3877947  92.9614179 118.2513761  55.2967884  92.1930467
 118.7001291  54.5677852  93.4416672 123.4381863  54.6877323 102.9303494
 123.4270504  54.2930121 102.0583997 123.6002503  53.9543395 103.5237265
 116.3613328  56.8829139  95.7998400 117.1534620  56.5419964  95.3844699
 116.6009978  56.9924114  96.7200553 124.3948455  59.0548915  88.2728644
 123.7436434  59.6402995  87.8862658 125.1892818  59.5855110  88.3323682
 118.3204082  56.1438052  88.6715778 119.0934958  55.5967039  88.5328654
 118.6729481  57.0082301  88.8830240 120.1589124  57.4714434 101.8782678
 119.8678990  58.3760065 101.7629344 120.7946109  57.5130962 102.5926747
 121.0845331  54.8491283  98.4684037 121.6808904  54.6247305  97.7541000
 121.1420303  54.1076028  99.0709485 120.6570360  52.3030718  86.3034228
 120.9095880  51.7812240  85.5417691 119.7194919  52.1396864  86.4060912
 125.7013642  51.3066497  94.1108972 126.4876732  50.8885920  93.7599389
 125.9652347  52.2112589  94.2790620 125.8723720  56.7439347  88.8097628
 125.2369553  56.8173973  89.5218533 125.5421126  57.3332946  88.1316708
 131.1022070  51.2441730  95.0141950 131.8347242  50.6740947  95.2479780
 130.3461425  50.8563330  95.4548456 120.3766648  54.2058824  88.5058603
 120.2602907  53.5303728  89.1739688 120.4868908  53.7191198  87.6890756
 122.7198189  53.6668971  92.2105293 122.3556397  53.1399592  92.9218214
 123.5765305  53.2767440  92.0371778 128.6247490  44.9563304  99.4736559
 128.2930815  45.8258715  99.2497774 128.0293103  44.6399588 100.1530589
 122.3603676  48.6958871  87.2066641 122.5278079  49.5639107  87.5737112
 122.1700845  48.8586153  86.2827930 125.1179010  57.1575850  98.8732471
 124.8179733  58.0600889  98.7648279 124.7730069  56.8908033  99.7253624
 118.5691491  53.6089647  94.9069176 117.6441987  53.4765861  95.1146868
 118.8175904  54.3883866  95.4039118 128.5176153  49.6758390  96.5529909
 127.6093031  49.6073799  96.2588670 128.4663749  50.1530335  97.3811734
 122.3392897  51.1516528  88.1913308 122.2192522  51.5973579  89.0298788
 121.6445486  51.5001846  87.6326846 115.9300302  53.2522920  95.7412965
 116.0592683  53.5057399  96.6552377 115.2497753  53.8450628  95.4217620
 120.0999789  63.9220170  91.8403439 120.0223819  64.8727995  91.9191920
 119.4961433  63.5766043  92.4978365 122.5917019  51.0948036 104.4964806
 121.8150353  51.6541956 104.4867671 123.2307582  51.5804819 105.0179676
 130.3837800  47.8774828  98.3307783 129.7412180  48.1707362  97.6847577
 129.8792728  47.7627749  99.1360979 128.0377963  51.6238002  89.0193642
 128.9495819  51.8565388  88.8441339 127.5287610  52.2075046  88.4568721
 120.8463391  53.9033489 104.0582773 121.5878076  54.4418533 103.7817597
 120.1400377  54.5299778 104.2154325 126.3218731  56.0462629 102.6554934
 126.7302087  55.6045040 101.9109567 125.5995993  55.4715257 102.9089127
 122.6749801  50.9835236 100.0288491 123.5210996  51.4074650 100.1723140
 122.6148439  50.3268861 100.7227055 126.6447546  56.6063820  96.4107223
 126.0156408  56.7709534  95.7083291 126.2573208  57.0205430  97.1818187
 130.5236778  57.5418258  93.7651587 129.8387816  57.9217159  93.2148620
 130.6080627  58.1513585  94.4983535 125.8249246  48.6439605 101.6869665
 125.5810178  49.3981665 101.1503941 126.1009177  49.0224952 102.5216912
 127.7787709  55.1878217 100.3646931 127.9904604  55.8309977  99.6881312
 127.7317457  54.3540534  99.8968861 125.3813938  47.7996038  97.2683503
 124.5198417  48.0977291  97.5600240 125.4076373  48.0166437  96.3364535
 122.1975508  56.3438228  93.6757308 122.6613853  56.6225931  92.8861931
 121.9332306  55.4421673  93.4930399 119.0899589  55.8909710  96.6137072
 119.6600946  56.3196978  95.9754556 119.6807700  55.6092294  97.3121257
 121.1344394  52.4661381  90.4846874 121.8368437  52.9182424  90.9520800
 120.8025022  51.8245199  91.1126767 119.5824755  51.0573137 104.8598083
 118.9523416  51.7389418 105.0933480 119.4760843  50.9456219 103.9151221
 114.8769728  50.7244933  95.7864007 114.0868782  50.9802462  95.3104118
 115.3680975  51.5393271  95.8916048 128.8933537  58.0650172  98.5369288
 129.7150981  57.6630360  98.2551970 128.8895940  57.9618407  99.4885404
 116.8284473  51.0889512  92.7447484 116.0315636  51.2008207  93.2630980
 116.6010065  51.4276165  91.8788374 122.6590141  57.6134216 100.6929998
 122.7234573  58.0754623 101.5288170 121.9501064  56.9831581 100.8212308
 113.1607431  50.9775424  98.2178998 113.4115469  51.8622434  98.4836574
 113.6966979  50.7980025  97.4454090 136.9839530  54.4088921  94.8854259
 136.2303239  53.8396319  94.7298264 137.1187071  54.3751585  95.8324894
 122.3738158  59.2802323  90.5608979 122.2383833  60.1253859  90.9893827
 122.9147971  59.4821601  89.7974913 118.8605498  45.3593903 107.2223334
 118.4672443  44.8060102 107.8970978 119.6771638  45.6704482 107.6129852
 115.8267556  56.7977761  91.1336904 116.3392076  57.5921011  91.2842469
 116.4790268  56.1004052  91.0670505 117.6362440  59.9143518  93.2159657
 117.8129069  60.8361482  93.0280641 118.4319274  59.6001937  93.6454037
 121.7773459  46.7751782 104.8143591 122.5183172  47.3758935 104.7348053
 122.0091382  46.0329420 104.2561633 116.9214797  51.9608149 103.0921820
 116.8068312  51.0593407 103.3928919 116.0659315  52.2071846 102.7406637
 124.0006635  59.9025890 104.6909321 123.5570489  59.1162268 104.3730225
 124.6623848  60.0905040 104.0253212 118.7593756  61.4321691  99.2169999
 119.3101181  61.3038755  98.4446993 117.9205232  61.7316580  98.8664892
 126.0987873  60.1828690 102.7190722 126.0806348  61.0037571 102.2270991
 127.0207793  60.0582765 102.9440863 122.5560927  57.6972819 103.5614231
 123.0889264  56.9361107 103.3313539 122.0275008  57.4046471 104.3038385
 125.7230622  42.8032885  99.0907872 125.3794891  43.6934527  99.0146983
 126.0909584  42.6134543  98.2277457 113.7916472  55.1266416  91.9096474
 114.6291694  55.5363424  91.6930182 113.9694740  54.1865858  91.8796668
 125.6880905  52.7941496  87.5980307 125.1727528  53.5646101  87.8368695
 125.4158213  52.1206632  88.2213369 123.2728016  47.6391197  92.6565546
 122.4169612  47.2498047  92.4771184 123.6854967  47.7183158  91.7965331
 124.8027162  45.1737540  97.0557106 124.2991958  45.1367675  96.2424911
 125.0957769  46.0830283  97.1153762 121.0470048  45.2576270  96.0623287
 121.9123045  45.0619079  95.7029177 121.1147557  45.0286622  96.9892644
 130.6615179  55.5473851  89.5333481 129.8844621  55.2085010  89.0888643
 131.3406660  55.5526474  88.8588446 125.4767208  50.6668588  89.4240089
 125.1717343  50.9814737  90.2750232 126.4297650  50.7450008  89.4667422
 123.9213640  56.8258812  91.0733043 123.3935001  56.0911571  90.7606280
 123.4201142  57.6033488  90.8273011 128.9006486  55.0207832  96.1900089
 128.2430160  55.7107093  96.2780217 129.7046885  55.4104264  96.5334075
 118.6532367  47.4878478  93.4339654 119.2276119  47.2653659  92.7012847
 119.2403350  47.5567172  94.1868255 127.7111944  53.3752205  94.2404031
 128.2243826  54.0082197  94.7425740 128.3613168  52.7753400  93.8747391
 118.9801954  49.5182939  87.4535539 118.1439267  49.8557625  87.7744814
 118.8406724  49.3831919  86.5162676 120.9555035  44.3619727  92.1614724
 120.3019447  44.0468744  91.5371338 120.9135509  43.7395467  92.8874546
 122.0666240  54.6439022  84.0768016 121.1593301  54.4128275  84.2759165
 122.5637272  53.8476641  84.2641997 124.9734319  63.3536529  86.9964702
 124.2996017  63.6568226  87.6049660 125.3600141  64.1565609  86.6470159
 124.1892775  50.8501660  96.4862371 123.2715337  51.0716607  96.3284059
 124.6052919  50.9247971  95.6274078 124.9727823  52.2493076  91.6165051
 125.7199642  52.7614473  91.3072173 125.2419413  51.9277129  92.4769445
 123.2454473  54.7451617  88.5992006 122.3365692  54.4610650  88.6964475
 123.2749557  55.1650695  87.7395313 128.4773741  58.3558206  92.3683173
 128.0236068  57.5149116  92.4248364 127.8467707  58.9919605  92.7057953
 127.4206660  49.2850192  93.5983841 126.6829417  48.7727578  93.9294083
 127.6733434  48.8450574  92.7867118 126.9206680  60.1934703  93.3032991
 127.2129654  60.7539760  92.5845357 127.4305300  60.4863264  94.0586150
 127.5218287  42.0626444  94.1925610 127.8277164  41.2023808  93.9051525
 128.2470892  42.6544064  93.9924604 113.8142644  52.4657131  92.5807208
 113.6167043  51.8726492  91.8558274 113.2589308  52.1609341  93.2983147
 121.7939367  52.3580237  94.7001801 121.8487977  51.4054074  94.6244278
 120.9830569  52.5139676  95.1843099 122.9430561  56.2860360  85.9380084
 122.5049991  55.5696219  85.4785722 123.6841002  56.5136475  85.3765176
 119.7331727  50.9757297  92.4592180 118.9199593  51.2751468  92.8657372
 120.2290721  50.5812986  93.1766662 121.8840305  60.9715054  94.3926445
 121.8416484  61.1975900  93.4634977 122.8003004  60.7378429  94.5412246
 125.3305939  51.4399122 101.2907074 125.6855327  51.6670595 102.1501540
 125.9778070  51.7717498 100.6684329 131.0603676  54.5617557  91.9956403
 130.9221574  54.7519153  91.0677592 130.7039895  55.3236940  92.4524454
 119.2245802  48.5475653  98.0753415 119.8645181  48.4064412  97.3776378
 118.3923332  48.2610166  97.6992017 131.0873055  56.6294084  97.0067674
 131.5209562  56.5369374  97.8550728 131.8004636  56.6051585  96.3687690
 120.0006106  57.8478083  94.1888407 120.7946704  57.3528403  93.9870982
 119.2897798  57.3195946  93.8256113 124.8200950  60.2296179  98.5400775
 124.8737973  60.7987115  99.3078491 123.9515732  60.3998064  98.1754812
 116.3088869  51.9921165  90.2648160 115.3786457  51.9305620  90.4818122
 116.4046341  51.4697118  89.4684801 116.2274418  48.5175978  92.8526402
 116.4881236  49.4321311  92.7435562 117.0491591  48.0500420  93.0023014
 117.6999344  49.9313735 100.0225226 118.3722397  49.7231097  99.3737875
 116.8729130  49.7335821  99.5830458 131.9488605  56.6717785  99.5400560
 132.1424495  57.5763596  99.7859835 131.8489223  56.2125204 100.3739145
 123.6024916  46.5575676 102.0390887 122.9552831  47.2565625 101.9455363
 124.3725931  46.9911820 102.4067135 127.0103714  56.8224528 105.1141440
 126.8589220  56.5935080 104.1971524 127.0008393  57.7795129 105.1272785
 123.7789050  54.3956441 100.0987707 124.7081110  54.5467600  99.9256674
 123.3580080  54.4840461  99.2436353 122.5777382  58.4207105  97.8686244
 122.4388467  58.0525889  98.7412183 121.7891978  58.9354744  97.6970202
 123.1725534  63.5216201  89.2111781 123.3477289  63.0504245  90.0257404
 122.4858322  64.1481968  89.4393042 124.1282597  57.7988708  95.2575082
 123.7932430  57.7589478  96.1532732 123.6286543  57.1333424  94.7845492
 118.1026841  53.2056338 100.7827663 117.9646639  52.4736577 101.3839202
 119.0131764  53.1165238 100.5011851 127.0641789  55.1444742  85.5312142
 126.4470959  54.4191570  85.4345195 126.5958277  55.9054102  85.1879216
 120.7309142  52.9176297 100.2711343 121.4408760  52.2769489 100.2297961
 120.6878450  53.1689192 101.1937524 128.7195920  59.8543650 103.1917922
 128.6608466  59.1702871 102.5248505 129.1215439  60.5962640 102.7398548
 119.4438076  49.9041515 102.0906982 118.9075433  49.4532253 102.7428579
 118.8554784  50.0387424 101.3477447 117.7386619  66.6705564  95.9851641
 117.9783217  67.3024088  96.6630660 116.8955816  66.3193604  96.2717000
 118.8540334  49.3630166  84.6533446 117.9769801  49.2418967  84.2895693
 119.3298088  48.5716245  84.4012335 128.7213328  57.8183234 101.4231902
 127.8340106  57.4809156 101.5458301 129.2911879  57.0866266 101.6600667
 110.3742475  54.1507326  94.7474953 111.0613514  53.8369056  94.1595969
 110.2190603  55.0548691  94.4742205 115.1777197  49.0397523  99.1759977
 115.0935385  48.4323192  98.4410387 114.3559903  49.5306541  99.1769473
 122.2514481  62.4784687  98.3893145 122.1784652  63.2839658  98.9012450
 121.8091874  62.6776653  97.5641166 122.0404261  61.7156457  91.8995967
 121.2571782  62.2578137  91.9934191 122.7397006  62.2330436  92.2990208
 125.3500911  47.5251086  94.5430172 125.8469610  46.7721048  94.2231242
 124.5787892  47.5615403  93.9773381 133.2030668  53.2291452  96.1848464
 133.1920544  54.1116167  95.8142397 132.3348047  52.8763003  95.9903001
 124.7113164  62.3771521 100.5451304 125.4241137  63.0118986 100.4727205
 124.2203193  62.4735387  99.7291306 126.4330691  56.2822773  92.1168595
 125.4986970  56.4024236  91.9473300 126.6107360  55.3795240  91.8528605
 121.9335879  49.6668469  94.2701857 121.5633667  49.1139510  94.9582762
 122.4294972  49.0626603  93.7176857 129.8203243  52.1240093  92.6518630
 130.2863695  52.9568084  92.5778932 130.2710743  51.6585074  93.3563888
 119.7625078  60.1265964 101.3656875 120.4634537  60.7602447 101.5186269
 119.2920193  60.4680696 100.6052514 127.8879474  58.4683914  89.6504782
 128.1639318  58.3540509  90.5598656 127.0183973  58.0701399  89.6116955
 127.7919905  44.4920680  96.6909531 126.8782985  44.7224907  96.8591738
 128.2213007  44.5759124  97.5423563 127.5626364  52.6810572  99.1909425
 126.9097814  52.9286479  98.5361878 127.9406744  51.8674710  98.8571902
 124.5233538  62.7170265  93.2937595 124.7055932  61.8991921  93.7565348
 125.3466524  62.9337957  92.8562485 124.8575703  61.6438450  90.5552644
 125.3863470  61.1330905  89.9422806 125.1203923  61.3280980  91.4198177
 123.6113937  53.4230383 105.6775462 122.9354574  53.3224512 106.3477837
 124.4341571  53.2669596 106.1411459 115.3592796  59.6602319  98.2987977
 115.9446233  58.9146007  98.4315881 115.1617634  59.9706276  99.1824641
 118.2131451  62.6953567  93.3150420 117.5441826  63.1799694  92.8314460
 118.0744321  62.9422787  94.2293798 109.9510451  52.2307919  97.0192420
 109.9894550  51.6971510  97.8129538 109.4450744  51.7043125  96.4003398
 122.3536720  64.7297310  99.9133078 122.9055028  64.8928932 100.6782163
 122.6942913  65.3201748  99.2413103 117.3301213  47.0772460 100.5154963
 117.3942540  47.9387291 100.1032360 117.2668333  46.4646462  99.7827321
 116.8053486  49.1495592 104.1627997 117.4325524  48.7672670 104.7765521
 115.9481404  48.9309794 104.5283689 127.2047594  59.5558568 105.7681732
 127.7487498  60.1688526 105.2736687 126.6234439  60.1138146 106.2848745
 113.5819028  50.9572022  90.0946352 113.8772469  50.0482700  90.0413405
 112.6807064  50.9359761  89.7727354 125.4905107  62.6779286  96.8996760
 125.3656247  61.8769026  96.3907706 126.1484198  63.1725479  96.4110730
 117.1113275  49.0328018  96.0773900 116.3899861  49.6463986  95.9381374
 117.9006531  49.5685783  95.9990546 127.5540015  60.4788306  98.5276310
 126.6070351  60.3593657  98.4554637 127.9022789  59.5910804  98.6102572
 119.9139589  46.3682445 102.3514552 120.4373991  46.6144741 103.1140861
 119.6951922  47.2002479 101.9317689 115.3106870  48.6386119  90.2185677
 114.9819576  47.7583498  90.0360783 115.6646241  48.5833788  91.1062066
 124.5586449  60.2741022  94.7280662 124.4111411  59.3457729  94.9088233
 125.3839942  60.2961113  94.2437738 118.4248693  48.9259089  90.5861155
 118.7644766  49.4545010  89.8639763 118.8720814  49.2639495  91.3619721
 128.1620571  61.0969581  95.8145535 129.0867118  60.8912442  95.6769986
 127.9935874  60.8485982  96.7234877 121.1192134  47.3096140 100.0364223
 120.7788954  46.5103953 100.4384903 120.4131140  47.6097851  99.4641056
 121.7708606  44.3945452  98.4891546 122.5934675  43.9205930  98.3670436
 122.0146669  45.1735936  98.9890232 120.4116840  47.4233711  88.7854447
 121.1325203  47.8014963  88.2818164 119.7882144  48.1422587  88.8889425
 124.5547963  48.1278860  89.7212780 124.7711577  49.0103497  89.4201608
 124.0742030  47.7365073  88.9918422 119.2947184  51.0864573  96.2983524
 119.1491765  51.4004876  97.1907806 118.8172388  51.7049473  95.7454423
 121.1543567  48.0767121  96.3464414 121.1405136  47.1808214  96.0096712
 121.8715995  48.0837785  96.9802700 123.0069698  48.5104461  98.3917541
 122.7487476  49.4321532  98.3901872 122.4754738  48.1134896  99.0818005
 127.9515887  61.6155248  91.1707627 128.1252764  61.0501671  90.4181479
 128.4444778  62.4156143  90.9887117 113.7692847  53.6269917  99.2371185
 113.2246315  54.4029725  99.3691460 114.6472196  53.9740722  99.0790307
 120.5580463  46.9581501  91.6151984 120.6796374  46.0298147  91.8142871
 120.2682506  46.9720187  90.7030299 123.4271654  44.6436412  94.7518704
 123.4493350  44.7075745  93.7970683 123.8439713  43.8040920  94.9459210
 133.8055278  54.3791671  92.7897926 134.2486424  53.6298996  92.3917050
 132.9281788  54.3701807  92.4071658 128.9391059  60.9322013  88.2704525
 129.6341964  61.5528705  88.4891840 129.2814209  60.0817364  88.5456903
 114.5558868  52.7539813 102.1301342 113.8140605  52.9022449 102.7165973
 114.2351613  53.0148079 101.2668092 130.8382482  58.3821718  89.7991856
 131.3633807  58.7208991  89.0741176 130.7504835  57.4468733  89.6154990
 122.5002531  62.2955792 101.9281732 122.8089658  62.0504938 102.8004432
 123.2978013  62.5002430 101.4400603 122.5223143  64.4493701  94.1587109
 122.0828133  63.9570080  94.8519966 123.2731260  63.9066669  93.9179184
 115.0015482  60.6405242  94.1611737 115.8273502  60.3409014  93.7810381
 114.6509534  59.8712865  94.6101526 119.9697015  59.9931710  96.2309411
 119.3477025  59.3302415  95.9311638 120.6401882  60.0192842  95.5483058
 113.2024087  58.5591569  95.1200671 112.3655996  58.1313743  94.9384672
 113.1747733  58.7524012  96.0571462 120.0421543  48.4713498 105.8241917
 120.0909698  49.3475621 105.4419686 120.5844057  47.9290892 105.2513560
 130.5276389  59.0154622 105.1043054 129.7371932  58.9978761 104.5647553
 130.2909743  59.5542915 105.8592090 130.6474264  55.8647088 102.4175782
 130.6972268  55.6997096 103.3591305 130.5388187  54.9974347 102.0273663
 119.5310522  58.5435634  89.7067871 119.6798643  59.2271098  89.0534544
 120.3376966  58.5240724  90.2217327 127.9378026  51.8478016 103.7335089
 128.8387889  51.7084481 103.4419087 128.0126000  52.0132471 104.6733266
 122.2720831  49.2244871 102.5788275 121.4024141  49.5178437 102.3070864
 122.5080312  49.8085316 103.2995539 132.1492460  58.2844030 102.6617804
 131.8577269  58.6474010 103.4981265 131.5364592  57.5711038 102.4831136
 133.3488143  55.8496909  95.1820374 134.1835034  56.2886713  95.3457934
 133.4847271  55.3735563  94.3628620 130.3979649  53.4076644 101.1297862
 130.8733770  53.6004291 100.3216713 129.4745214  53.4635830 100.8841245
 117.2863155  54.5700811  90.7128940 117.0409197  53.6663141  90.9109150
 117.4559070  54.5717962  89.7708418 124.9759865  45.4424488 100.0953696
 125.4941809  46.1785515  99.7700184 124.6214998  45.7488481 100.9300455
 116.5558803  50.3029169  88.2115101 115.8628048  50.3773524  87.5555137
 116.3110555  49.5389513  88.7336618 125.2272459  41.8624770  95.6154592
 125.5074213  41.1947959  96.2415019 126.0123066  42.0553866  95.1029256
 123.0305928  61.0383764  87.1779619 122.4579895  61.6573951  86.7250090
 123.6038721  61.5883126  87.7119540 129.0981318  50.2842404  99.3626167
 130.0498741  50.3840502  99.3838391 128.9284768  49.4920673  99.8724252
 127.1195697  47.3697988  99.5485568 126.5245629  47.6503000  98.8532057
 126.8345394  47.8591888 100.3202309 126.2503188  61.3220914  88.3088201
 127.1833861  61.2566476  88.5121076 126.1626400  62.1577181  87.8502733
 128.8791204  60.6386785  85.2692148 128.8004836  60.3046648  86.1627906
 129.7000871  61.1308553  85.2683621 131.5769395  53.5048524  98.4768467
 131.5445716  52.5664525  98.6628151 132.1870019  53.5832561  97.7434292
 123.4152726  52.3744577  84.5195671 124.3611831  52.2450785  84.5884089
 123.0366971  51.6359239  84.9965099 131.7263884  50.2959567  98.5226750
 131.2102933  49.5118024  98.3356679 132.6103832  49.9678284  98.6873270
 129.3874611  44.0400583  94.4822563 129.1899432  43.7315671  95.3665895
 129.9974316  44.7662222  94.6120493 135.4761242  52.7072393  98.2148955
 134.7494406  52.5728358  97.6065447 135.0608529  53.0149222  99.0205673
 123.2991419  56.4262323 105.9796328 124.2194428  56.6040922 106.1736375
 123.2641002  55.4818368 105.8276027 121.5995643  50.2994553  84.4550556
 120.6927099  50.0027666  84.5313270 121.8771624  50.0024371  83.5884843
 112.5173584  51.6200917  94.9049603 112.1976368  50.7666225  94.6123977
 111.9707012  51.8349495  95.6607570 116.2953491  54.3363358  98.6219109
 116.5139501  55.2680466  98.6407143 116.7079265  53.9771332  99.4073913
 123.2157709  44.8431443  90.6094798 122.4058437  44.4978528  90.9850044
 123.9042126  44.5338987  91.1982409 125.1448257  43.9209490  92.2319094
 125.6979296  44.3404943  92.8909117 125.3818344  42.9945238  92.2742050
 121.1681357  49.9096564 108.0121858 121.0678084  50.8590920 107.9433949
 120.9502899  49.5814802 107.1397928 120.3694428  47.1581489  84.5962535
 121.2313592  47.4836387  84.8558353 120.5544772  46.3712984  84.0835601
 112.3861844  55.2403828  96.8742724 111.6925315  54.8257781  96.3612679
 113.1334835  55.2824365  96.2776143 128.5227065  46.0310015  91.7397758
 127.9425734  46.6894819  91.3575811 128.2562997  45.2087360  91.3285176
 126.9730631  45.4315073  93.9419079 127.4730409  45.5431607  93.1333398
 127.6166239  45.1276126  94.5819887 121.0312627  53.3393702 106.8286920
 120.5479708  54.1394062 107.0350809 121.1173566  53.3501647 105.8754364
 114.2998586  55.1722082  94.7508739 114.2769274  55.2709769  93.7990622
 114.6099223  56.0187233  95.0725905 116.9585964  57.2298237  98.8655354
 117.9129218  57.1982179  98.7985285 116.7598488  56.7688861  99.6805579
 117.5485346  55.7999353 101.4326151 118.3678235  56.2943432 101.4560988
 117.8222154  54.8831321 101.4043719 127.3051943  48.1910105  90.7954107
 126.4177798  48.4759756  90.5774301 127.7205932  48.0303869  89.9481384
 130.6566479  48.2156626  94.5108446 131.4326869  48.7053079  94.7833063
 129.9314613  48.6414681  94.9680315 133.0939037  48.9284246  95.5682387
 133.6883528  48.6879982  94.8575695 133.1665621  48.2091376  96.1955923
 115.3136193  62.7717857  95.8825551 115.1790661  62.0118257  95.3163549
 114.8968255  63.4958756  95.4154340 126.4495156  57.9554780  84.8902127
 127.1531006  58.1604783  85.5059782 125.7257805  58.5231542  85.1551210
 127.2792966  53.7064641  91.0104397 127.2228168  54.1633193  90.1712029
 127.8321309  52.9455326  90.8327240 131.0897772  49.4954373  91.8354516
 130.8334706  49.0951009  92.6662724 130.4650640  50.2098167  91.7104656
 135.4010110  52.2350446  94.3425808 134.8409668  52.3043636  95.1157370
 134.7953613  52.0591431  93.6225304 118.4705319  63.6687174  96.0943994
 118.3537703  64.6132606  95.9922684 117.6497765  63.3660735  96.4829793
 128.3581853  58.3937309  86.9400587 129.1927457  57.9618508  86.7578062
 128.1966196  58.2219323  87.8677481 128.0127746  54.8969423  88.3056926
 127.9576549  54.7313694  87.3645370 127.3873801  55.6045456  88.4619116
 112.8020261  50.1337487 102.1318348 113.4479124  49.6236441 102.6205573
 112.5937412  50.8706169 102.7061774 125.3273653  57.2018334 107.6310489
 126.1964812  57.3758987 107.2697124 124.8480404  58.0212751 107.5086218
 121.3223871  44.3977532  87.8842244 121.3102541  45.3419372  88.0410515
 122.2147293  44.2147677  87.5901706 119.4959833  64.3215435  99.3099922
 120.3987080  64.3539046  99.6266417 119.2697203  63.3915886  99.3246258
 121.2513435  63.0746422  95.9710001 120.3009066  63.0748284  95.8574373
 121.5545921  62.3279157  95.4546036 125.1375991  40.9920308  92.1388181
 124.3708386  40.4378795  92.2844864 125.5486695  41.0642177  93.0002333
 117.1417752  47.2805104 106.2293363 118.0049213  46.9241909 106.4396687
 116.5683162  46.9418999 106.9168767 133.7955835  68.8634389  96.9717288
 133.4574346  68.7475453  96.0837823 134.6645603  68.4625554  96.9518294
 129.6542650  70.7169865  92.9614179 129.0907516  70.6259802  92.1930467
 129.5395046  69.8969769  93.4416672 134.2775618  70.0169240 102.9303494
 134.2664259  69.6222039 102.0583997 134.4396257  69.2835313 103.5237265
 127.2007082  72.2121057  95.7998400 127.9928374  71.8711881  95.3844699
 127.4403733  72.3216032  96.7200553 135.2342209  74.3840833  88.2728644
 134.5830189  74.9694913  87.8862658 136.0286572  74.9147028  88.3323682
 129.1597836  71.4729970  88.6715778 129.9328712  70.9258957  88.5328654
 129.5123235  72.3374219  88.8830240 130.9982879  72.8006352 101.8782678
 130.7072745  73.7051983 101.7629344 131.6339863  72.8422880 102.5926747
 131.9239086  70.1783201  98.4684037 132.5202658  69.9539223  97.7541000
 131.9814057  69.4367946  99.0709485 131.4964114  67.6322636  86.3034228
 131.7489635  67.1104157  85.5417691 130.5588673  67.4688781  86.4060912
 136.5407397  66.6358414  94.1108972 137.3270486  66.2177837  93.7599389
 136.8046101  67.5404506  94.2790620 136.7117474  72.0731265  88.8097628
 136.0763307  72.1465891  89.5218533 136.3814881  72.6624863  88.1316708
 131.2160403  69.5350742  88.5058603 131.0996661  68.8595645  89.1739688
 131.3262663  69.0483116  87.6890756 133.5591944  68.9960889  92.2105293
 133.1950151  68.4691510  92.9218214 134.4159060  68.6059358  92.0371778
 133.1997431  64.0250789  87.2066641 133.3671833  64.8931025  87.5737112
 133.0094600  64.1878070  86.2827930 135.9572764  72.4867768  98.8732471
 135.6573487  73.3892806  98.7648279 135.6123824  72.2199951  99.7253624
 129.4085245  68.9381564  94.9069176 128.4835742  68.8057779  95.1146868
 129.6569659  69.7175784  95.4039118 133.1786652  66.4808446  88.1913308
 133.0586277  66.9265497  89.0298788 132.4839240  66.8293764  87.6326846
 126.7694057  68.5814838  95.7412965 126.8986438  68.8349317  96.6552377
 126.0891508  69.1742546  95.4217620 130.9393544  79.2512088  91.8403439
 130.8617573  80.2019913  91.9191920 130.3355187  78.9057960  92.4978365
 133.4310774  66.4239953 104.4964806 132.6544108  66.9833873 104.4867671
 134.0701337  66.9096736 105.0179676 131.6857146  69.2325407 104.0582773
 132.4271830  69.7710451 103.7817597 130.9794131  69.8591695 104.2154325
 137.1612486  71.3754547 102.6554934 137.5695842  70.9336958 101.9109567
 136.4389747  70.8007175 102.9089127 133.5143556  66.3127154 100.0288491
 134.3604751  66.7366567 100.1723140 133.4542193  65.6560778 100.7227055
 137.4841300  71.9355738  96.4107223 136.8550163  72.1001452  95.7083291
 137.0966962  72.3497347  97.1818187 136.6643001  63.9731522 101.6869665
 136.4203933  64.7273583 101.1503941 136.9402931  64.3516870 102.5216912
 136.2207693  63.1287955  97.2683503 135.3592172  63.4269209  97.5600240
 136.2470127  63.3458354  96.3364535 133.0369262  71.6730146  93.6757308
 133.5007608  71.9517849  92.8861931 132.7726060  70.7713590  93.4930399
 129.9293343  71.2201627  96.6137072 130.4994700  71.6488896  95.9754556
 130.5201455  70.9384212  97.3121257 131.9738148  67.7953298  90.4846874
 132.6762191  68.2474342  90.9520800 131.6418777  67.1537117  91.1126767
 130.4218510  66.3865055 104.8598083 129.7917170  67.0681336 105.0933480
 130.3154598  66.2748136 103.9151221 125.7163482  66.0536851  95.7864007
 124.9262536  66.3094379  95.3104118 126.2074729  66.8685189  95.8916048
 127.6678227  66.4181430  92.7447484 126.8709391  66.5300124  93.2630980
 127.4403820  66.7568082  91.8788374 133.4983895  72.9426133 100.6929998
 133.5628328  73.4046541 101.5288170 132.7894819  72.3123498 100.8212308
 124.0001185  66.3067341  98.2178998 124.2509223  67.1914351  98.4836574
 124.5360733  66.1271943  97.4454090 133.2131913  74.6094241  90.5608979
 133.0777587  75.4545777  90.9893827 133.7541725  74.8113519  89.7974913
 129.6999252  60.6885821 107.2223334 129.3066198  60.1352019 107.8970978
 130.5165393  60.9996399 107.6129852 126.6661310  72.1269679  91.1336904
 127.1785831  72.9212929  91.2842469 127.3184023  71.4295969  91.0670505
 128.4756195  75.2435435  93.2159657 128.6522823  76.1653400  93.0280641
 129.2713028  74.9293854  93.6454037 132.6167213  62.1043700 104.8143591
 133.3576927  62.7050853 104.7348053 132.8485136  61.3621338 104.2561633
 127.7608551  67.2900067 103.0921820 127.6462066  66.3885324 103.3928919
 126.9053069  67.5363764 102.7406637 134.8400389  75.2317807 104.6909321
 134.3964243  74.4454186 104.3730225 135.5017603  75.4196958 104.0253212
 129.5987510  76.7613609  99.2169999 130.1494935  76.6330672  98.4446993
 128.7598986  77.0608498  98.8664892 133.3954681  73.0264737 103.5614231
 133.9283018  72.2653025 103.3313539 132.8668762  72.7338389 104.3038385
 136.5624376  58.1324803  99.0907872 136.2188646  59.0226444  99.0146983
 136.9303339  57.9426460  98.2277457 124.6310227  70.4558333  91.9096474
 125.4685449  70.8655342  91.6930182 124.8088495  69.5157775  91.8796668
 136.5274659  68.1233414  87.5980307 136.0121282  68.8938019  87.8368695
 136.2551967  67.4498550  88.2213369 134.1121770  62.9683115  92.6565546
 133.2563366  62.5789965  92.4771184 134.5248722  63.0475075  91.7965331
 135.6420917  60.5029458  97.0557106 135.1385712  60.4659593  96.2424911
 135.9351524  61.4122201  97.1153762 131.8863803  60.5868188  96.0623287
 132.7516799  60.3910996  95.7029177 131.9541311  60.3578539  96.9892644
 136.3160962  65.9960506  89.4240089 136.0111098  66.3106655  90.2750232
 137.2691404  66.0741926  89.4667422 134.7607394  72.1550729  91.0733043
 134.2328756  71.4203489  90.7606280 134.2594897  72.9325406  90.8273011
 129.4926122  62.8170396  93.4339654 130.0669874  62.5945577  92.7012847
 130.0797104  62.8859090  94.1868255 129.8195709  64.8474857  87.4535539
 128.9833021  65.1849543  87.7744814 129.6800478  64.7123836  86.5162676
 131.7948789  59.6911644  92.1614724 131.1413202  59.3760662  91.5371338
 131.7529263  59.0687385  92.8874546 132.9059994  69.9730940  84.0768016
 131.9987056  69.7420193  84.2759165 133.4031026  69.1768559  84.2641997
 135.8128073  78.6828447  86.9964702 135.1389772  78.9860143  87.6049660
 136.1993895  79.4857527  86.6470159 135.0286530  66.1793578  96.4862371
 134.1109091  66.4008525  96.3284059 135.4446673  66.2539888  95.6274078
 135.8121577  67.5784994  91.6165051 136.5593396  68.0906391  91.3072173
 136.0813167  67.2569046  92.4769445 134.0848228  70.0743534  88.5992006
 133.1759447  69.7902567  88.6964475 134.1143311  70.4942613  87.7395313
 124.6536398  67.7949049  92.5807208 124.4560798  67.2018409  91.8558274
 124.0983062  67.4901259  93.2983147 132.6333122  67.6872155  94.7001801
 132.6881731  66.7345991  94.6244278 131.8224324  67.8431594  95.1843099
 133.7824315  71.6152278  85.9380084 133.3443745  70.8988137  85.4785722
 134.5234756  71.8428393  85.3765176 130.5725482  66.3049215  92.4592180
 129.7593347  66.6043385  92.8657372 131.0684476  65.9104904  93.1766662
 132.7234059  76.3006972  94.3926445 132.6810238  76.5267818  93.4634977
 133.6396758  76.0670346  94.5412246 136.1699693  66.7691039 101.2907074
 136.5249081  66.9962512 102.1501540 136.8171825  67.1009416 100.6684329
 130.0639556  63.8767570  98.0753415 130.7038936  63.7356329  97.3776378
 129.2317087  63.5902084  97.6992017 130.8399860  73.1770001  94.1888407
 131.6340459  72.6820321  93.9870982 130.1291553  72.6487864  93.8256113
 135.6594705  75.5588096  98.5400775 135.7131727  76.1279033  99.3078491
 134.7909486  75.7289981  98.1754812 127.1482624  67.3213082  90.2648160
 126.2180212  67.2597538  90.4818122 127.2440096  66.7989035  89.4684801
 127.0668173  63.8467895  92.8526402 127.3274990  64.7613229  92.7435562
 127.8885345  63.3792338  93.0023014 128.5393098  65.2605652 100.0225226
 129.2116152  65.0523015  99.3737875 127.7122885  65.0627738  99.5830458
 134.4418670  61.8867593 102.0390887 133.7946585  62.5857543 101.9455363
 135.2119686  62.3203737 102.4067135 134.6182804  69.7248358 100.0987707
 135.5474864  69.8759518  99.9256674 134.1973834  69.8132379  99.2436353
 133.4171136  73.7499023  97.8686244 133.2782222  73.3817807  98.7412183
 132.6285732  74.2646662  97.6970202 134.0119288  78.8508119  89.2111781
 134.1871044  78.3796162  90.0257404 133.3252076  79.4773885  89.4393042
 134.9676351  73.1280625  95.2575082 134.6326184  73.0881395  96.1532732
 134.4680297  72.4625341  94.7845492 128.9420595  68.5348255 100.7827663
 128.8040393  67.8028494 101.3839202 129.8525519  68.4457156 100.5011851
 131.5702896  68.2468215 100.2711343 132.2802515  67.6061407 100.2297961
 131.5272204  68.4981110 101.1937524 130.2831830  65.2333433 102.0906982
 129.7469187  64.7824171 102.7428579 129.6948538  65.3679341 101.3477447
 128.5780374  81.9997482  95.9851641 128.8176972  82.6316006  96.6630660
 127.7349570  81.6485522  96.2717000 129.6934089  64.6922084  84.6533446
 128.8163555  64.5710885  84.2895693 130.1691842  63.9008162  84.4012335
 121.2136229  69.4799244  94.7474953 121.9007269  69.1660974  94.1595969
 121.0584358  70.3840608  94.4742205 126.0170951  64.3689440  99.1759977
 125.9329140  63.7615110  98.4410387 125.1953658  64.8598459  99.1769473
 133.0908235  77.8076604  98.3893145 133.0178407  78.6131576  98.9012450
 132.6485628  78.0068570  97.5641166 132.8798015  77.0448374  91.8995967
 132.0965537  77.5870055  91.9934191 133.5790760  77.5622354  92.2990208
 136.1894665  62.8543004  94.5430172 136.6863365  62.1012966  94.2231242
 135.4181647  62.8907321  93.9773381 135.5506919  77.7063438 100.5451304
 136.2634891  78.3410903 100.4727205 135.0596948  77.8027304  99.7291306
 137.2724446  71.6114691  92.1168595 136.3380725  71.7316154  91.9473300
 137.4501114  70.7087158  91.8528605 132.7729634  64.9960387  94.2701857
 132.4027421  64.4431427  94.9582762 133.2688726  64.3918520  93.7176857
 130.6018832  75.4557882 101.3656875 131.3028292  76.0894365 101.5186269
 130.1313947  75.7972613 100.6052514 135.3627292  78.0462182  93.2937595
 135.5449687  77.2283838  93.7565348 136.1860278  78.2629875  92.8562485
 135.6969458  76.9730368  90.5552644 136.2257224  76.4622822  89.9422806
 135.9597677  76.6572898  91.4198177 134.4507691  68.7522300 105.6775462
 133.7748328  68.6516430 106.3477837 135.2735325  68.5961514 106.1411459
 126.1986550  74.9894237  98.2987977 126.7839987  74.2437925  98.4315881
 126.0011389  75.2998194  99.1824641 129.0525206  78.0245484  93.3150420
 128.3835581  78.5091612  92.8314460 128.9138075  78.2714705  94.2293798
 120.7904205  67.5599837  97.0192420 120.8288305  67.0263428  97.8129538
 120.2844498  67.0335043  96.4003398 133.1930474  80.0589228  99.9133078
 133.7448782  80.2220849 100.6782163 133.5336668  80.6493666  99.2413103
 128.1694968  62.4064378 100.5154963 128.2336294  63.2679209 100.1032360
 128.1062088  61.7938379  99.7827321 127.6447240  64.4787510 104.1627997
 128.2719279  64.0964587 104.7765521 126.7875159  64.2601712 104.5283689
 124.4212783  66.2863939  90.0946352 124.7166224  65.3774618  90.0413405
 123.5200819  66.2651679  89.7727354 136.3298862  78.0071203  96.8996760
 136.2050001  77.2060943  96.3907706 136.9877953  78.5017397  96.4110730
 127.9507030  64.3619936  96.0773900 127.2293616  64.9755904  95.9381374
 128.7400286  64.8977701  95.9990546 130.7533343  61.6974362 102.3514552
 131.2767745  61.9436659 103.1140861 130.5345677  62.5294397 101.9317689
 126.1500624  63.9678037  90.2185677 125.8213331  63.0875416  90.0360783
 126.5039995  63.9125706  91.1062066 135.3980203  75.6032940  94.7280662
 135.2505166  74.6749647  94.9088233 136.2233697  75.6253030  94.2437738
 129.2642448  64.2551007  90.5861155 129.6038520  64.7836928  89.8639763
 129.7114568  64.5931413  91.3619721 131.9585888  62.6388057 100.0364223
 131.6182709  61.8395871 100.4384903 131.2524895  62.9389768  99.4641056
 132.6102360  59.7237370  98.4891546 133.4328430  59.2497848  98.3670436
 132.8540424  60.5027854  98.9890232 131.2510595  62.7525628  88.7854447
 131.9718957  63.1306881  88.2818164 130.6275899  63.4714505  88.8889425
 135.3941718  63.4570777  89.7212780 135.6105332  64.3395415  89.4201608
 134.9135785  63.0656991  88.9918422 130.1340939  66.4156491  96.2983524
 129.9885520  66.7296794  97.1907806 129.6566143  67.0341391  95.7454423
 131.9937322  63.4059039  96.3464414 131.9798891  62.5100132  96.0096712
 132.7109750  63.4129702  96.9802700 133.8463453  63.8396379  98.3917541
 133.5881230  64.7613449  98.3901872 133.3148493  63.4426813  99.0818005
 124.6086601  68.9561835  99.2371185 124.0640069  69.7321643  99.3691460
 125.4865951  69.3032639  99.0790307 131.3974218  62.2873419  91.6151984
 131.5190129  61.3590065  91.8142871 131.1076260  62.3012105  90.7030299
 134.2665408  59.9728329  94.7518704 134.2887105  60.0367662  93.7970683
 134.6833467  59.1332838  94.9459210 125.3952623  68.0831731 102.1301342
 124.6534359  68.2314367 102.7165973 125.0745367  68.3439997 101.2668092
 133.3396286  77.6247709 101.9281732 133.6483412  77.3796856 102.8004432
 134.1371768  77.8294348 101.4400603 133.3616898  79.7785619  94.1587109
 132.9221888  79.2861998  94.8519966 134.1125015  79.2358587  93.9179184
 125.8409237  75.9697160  94.1611737 126.6667257  75.6700932  93.7810381
 125.4903289  75.2004782  94.6101526 130.8090770  75.3223628  96.2309411
 130.1870779  74.6594333  95.9311638 131.4795637  75.3484760  95.5483058
 124.0417842  73.8883486  95.1200671 123.2049750  73.4605661  94.9384672
 124.0141487  74.0815930  96.0571462 130.8815297  63.8005416 105.8241917
 130.9303453  64.6767539 105.4419686 131.4237812  63.2582809 105.2513560
 130.3704277  73.8727551  89.7067871 130.5192397  74.5563016  89.0534544
 131.1770720  73.8532642  90.2217327 133.1114586  64.5536789 102.5788275
 132.2417895  64.8470355 102.3070864 133.3474066  65.1377234 103.2995539
 128.1256910  69.8992729  90.7128940 127.8802952  68.9955059  90.9109150
 128.2952824  69.9009880  89.7708418 135.8153620  60.7716405 100.0953696
 136.3335563  61.5077432  99.7700184 135.4608752  61.0780399 100.9300455
 127.3952557  65.6321087  88.2115101 126.7021802  65.7065442  87.5555137
 127.1504309  64.8681430  88.7336618 136.0666214  57.1916688  95.6154592
 136.3467968  56.5239877  96.2415019 136.8516821  57.3845784  95.1029256
 133.8699682  76.3675682  87.1779619 133.2973649  76.9865869  86.7250090
 134.4432476  76.9175044  87.7119540 134.2546481  67.7036495  84.5195671
 135.2005585  67.5742703  84.5884089 133.8760726  66.9651157  84.9965099
 134.1385173  71.7554241 105.9796328 135.0588183  71.9332840 106.1736375
 134.1034756  70.8110286 105.8276027 132.4389398  65.6286471  84.4550556
 131.5320853  65.3319584  84.5313270 132.7165379  65.3316289  83.5884843
 123.3567338  66.9492834  94.9049603 123.0370123  66.0958143  94.6123977
 122.8100766  67.1641413  95.6607570 127.1347246  69.6655275  98.6219109
 127.3533256  70.5972383  98.6407143 127.5473020  69.3063250  99.4073913
 134.0551464  60.1723361  90.6094798 133.2452192  59.8270446  90.9850044
 134.7435881  59.8630904  91.1982409 135.9842012  59.2501408  92.2319094
 136.5373051  59.6696861  92.8909117 136.2212098  58.3237156  92.2742050
 132.0075111  65.2388481 108.0121858 131.9071838  66.1882838 107.9433949
 131.7896653  64.9106720 107.1397928 131.2088183  62.4873406  84.5962535
 132.0707347  62.8128305  84.8558353 131.3938527  61.7004902  84.0835601
 123.2255598  70.5695746  96.8742724 122.5319070  70.1549699  96.3612679
 123.9728589  70.6116282  96.2776143 131.8706381  68.6685620 106.8286920
 131.3873463  69.4685980 107.0350809 131.9567320  68.6793565 105.8754364
 125.1392341  70.5014000  94.7508739 125.1163029  70.6001687  93.7990622
 125.4492977  71.3479151  95.0725905 127.7979719  72.5590155  98.8655354
 128.7522972  72.5274097  98.7985285 127.5992242  72.0980778  99.6805579
 128.3879101  71.1291271 101.4326151 129.2071990  71.6235349 101.4560988
 128.6615909  70.2123239 101.4043719 126.1529947  78.1009774  95.8825551
 126.0184415  77.3410175  95.3163549 125.7362010  78.8250674  95.4154340
 129.3099073  78.9979091  96.0943994 129.1931458  79.9424524  95.9922684
 128.4891520  78.6952653  96.4829793 123.6414015  65.4629405 102.1318348
 124.2872879  64.9528359 102.6205573 123.4331166  66.1998086 102.7061774
 136.1667407  72.5310252 107.6310489 137.0358567  72.7050904 107.2697124
 135.6874159  73.3504669 107.5086218 132.1617626  59.7269449  87.8842244
 132.1496295  60.6711289  88.0410515 133.0541047  59.5439595  87.5901706
 130.3353587  79.6507353  99.3099922 131.2380834  79.6830963  99.6266417
 130.1090958  78.7207804  99.3246258 132.0907190  78.4038340  95.9710001
 131.1402821  78.4040201  95.8574373 132.3939676  77.6571074  95.4546036
 135.9769745  56.3212226  92.1388181 135.2102141  55.7670713  92.2844864
 136.3880450  56.3934095  93.0002333 127.9811506  62.6097022 106.2293363
 128.8442968  62.2533827 106.4396687 127.4076917  62.2710917 106.9168767
 136.5557237  81.3828769  95.7864007 135.7656291  81.6386297  95.3104118
 137.0468484  82.1977106  95.8916048 134.8394940  81.6359259  98.2178998
 135.0902978  82.5206269  98.4836574 135.3754488  81.4563861  97.4454090
 135.4703981  85.7850251  91.9096474 136.3079203  86.1947259  91.6930182
 135.6482249  84.8449693  91.8796668 135.4930153  83.1240966  92.5807208
 135.2954552  82.5310327  91.8558274 134.9376817  82.8193176  93.2983147
 132.0529984  84.8091161  94.7474953 132.7401023  84.4952891  94.1595969
 131.8978112  85.7132526  94.4742205 136.8564706  79.6981358  99.1759977
 136.7722894  79.0907028  98.4410387 136.0347412  80.1890376  99.1769473
 131.6297960  82.8891755  97.0192420 131.6682059  82.3555345  97.8129538
 131.1238253  82.3626960  96.4003398 135.2606537  81.6155857  90.0946352
 135.5559978  80.7066535  90.0413405 134.3594573  81.5943596  89.7727354
 136.9894379  79.2969955  90.2185677 136.6607085  78.4167334  90.0360783
 137.3433750  79.2417623  91.1062066 135.4480356  84.2853753  99.2371185
 134.9033824  85.0613561  99.3691460 136.3259705  84.6324557  99.0790307
 136.2346377  83.4123649 102.1301342 135.4928114  83.5606284 102.7165973
 135.9139122  83.6731914 101.2668092 136.6802991  91.2989078  94.1611737
 137.5061011  90.9992849  93.7810381 136.3297043  90.5296700  94.6101526
 134.8811596  89.2175404  95.1200671 134.0443505  88.7897578  94.9384672
 134.8535242  89.4107847  96.0571462 134.1961093  82.2784752  94.9049603
 133.8763877  81.4250060  94.6123977 133.6494521  82.4933330  95.6607570
 134.0649353  85.8987664  96.8742724 133.3712824  85.4841616  96.3612679
 134.8122344  85.9408200  96.2776143 135.9786095  85.8305917  94.7508739
 135.9556783  85.9293605  93.7990622 136.2886732  86.6771068  95.0725905
 136.9923702  93.4301692  95.8825551 136.8578170  92.6702093  95.3163549
 136.5755764  94.1542592  95.4154340 134.4807770  80.7921322 102.1318348
 135.1266633  80.2820276 102.6205573 134.2724921  81.5290004 102.7061774
  98.4212282  10.2698457  78.5648746  98.3436311  11.2206283  78.6437226
  97.8173925   9.9244330  79.2223672  97.0806248   7.7799979  85.9415306
  97.6313673   7.6517042  85.1692300  96.2417724   8.0794868  85.5910199
 103.2946811   9.7014816  73.7210008 102.6208510  10.0046513  74.3294966
 103.6812633  10.5043897  73.3715465 101.4938026   9.8694489  75.9357088
 101.6689782   9.3982532  76.7502710 100.8070814  10.4960255  76.1638348
  96.0599111  13.0183851  82.7096948  96.2995710  13.6502376  83.3875966
  95.2168308  12.6671892  82.9962307 100.5726973   8.8262974  85.1138452
 100.4997145   9.6317945  85.6257756 100.1304366   9.0254940  84.2886473
 100.3616753   8.0634744  78.6241273  99.5784275   8.6056424  78.7179498
 101.0609498   8.5808724  79.0235514 103.0325657   8.7249808  87.2696610
 103.7453629   9.3597273  87.1972512 102.5415685   8.8213674  86.4536612
  93.6805288   6.0080606  85.0233284  94.2658725   5.2624294  85.1561188
  93.4830127   6.3184563  85.9069948  96.5343943   9.0431854  80.0395726
  95.8654319   9.5277981  79.5559766  96.3956813   9.2901074  80.9539105
 100.6749212  11.0775597  86.6378385 101.2267520  11.2407219  87.4027470
 101.0155406  11.6680035  85.9658409 100.8215023   8.6434079  88.6527039
 101.1302150   8.3983226  89.5249739 101.6190505   8.8480717  88.1645909
 100.8435635  10.7971989  80.8832416 100.4040626  10.3048367  81.5765272
 101.5943752  10.2544956  80.6424491  93.3227974   6.9883529  80.8857044
  94.1485994   6.6887301  80.5055687  92.9722026   6.2191152  81.3346832
  91.5236579   4.9069856  81.8445977  90.6868488   4.4792030  81.6629978
  91.4960225   5.1002299  82.7816768  93.6348685   9.1196144  82.6070858
  93.5003153   8.3596545  82.0408856  93.2180748   9.8437044  82.1399647
  96.7917811  10.0165461  82.8189301  96.6750195  10.9610893  82.7167991
  95.9710257   9.7139022  83.2075100  97.8172325  10.6693723  86.0345229
  98.7199572  10.7017333  86.3511724  97.5909695   9.7394174  86.0491565
  99.5725927   9.4224709  82.6955308  98.6221558   9.4226571  82.5819680
  99.8758413   8.6757444  82.1791342 115.3078621  15.2585248  83.7601070
 115.9457031  15.1391995  83.0564410 115.1899464  16.2066092  83.8189022
 112.1168327  15.2112676  83.6962595 111.7786839  15.0953740  82.8083130
 112.9858095  14.8103841  83.6763601 107.9755143  17.0648152  79.6859486
 107.4120008  16.9738089  78.9175774 107.8607538  16.2448057  80.1661978
 112.5988110  16.3647527  89.6548800 112.5876751  15.9700326  88.7829304
 112.7608750  15.6313600  90.2482572 105.5219575  18.5599344  82.5243706
 106.3140867  18.2190168  82.1090006 105.7616225  18.6694319  83.4445860
 113.5554701  20.7319120  74.9973951 112.9042681  21.3173200  74.6107964
 114.3499064  21.2625315  75.0568988 107.4810329  17.8208257  75.3961085
 108.2541205  17.2737244  75.2573961 107.8335728  18.6852506  75.6075546
 109.3195371  19.1484639  88.6027984 109.0285237  20.0530270  88.4874651
 109.9552356  19.1901167  89.3172054 110.2451578  16.5261488  85.1929344
 110.8415150  16.3017510  84.4786307 110.3026550  15.7846233  85.7954792
 109.8176606  13.9800923  73.0279535 110.0702127  13.4582444  72.2662998
 108.8801166  13.8167069  73.1306219 115.0329967  18.4209552  75.5342935
 114.3975800  18.4944178  76.2463840 114.7027373  19.0103151  74.8562014
 109.5372895  15.8829029  75.2303910 109.4209153  15.2073932  75.8984994
 109.6475155  15.3961403  74.4136063 111.8804436  15.3439176  78.9350599
 111.5162643  14.8169797  79.6463521 112.7371552  14.9537645  78.7617085
 114.2785256  18.8346055  85.5977778 113.9785979  19.7371094  85.4893585
 113.9336316  18.5678238  86.4498931 107.7297738  15.2859852  81.6314482
 106.8048234  15.1536066  81.8392174 107.9782151  16.0654071  82.1284425
 111.4999144  12.8286733  74.9158614 111.3798769  13.2743784  75.7544095
 110.8051732  13.1772051  74.3572153 105.0906549  14.9293125  82.4658272
 105.2198930  15.1827604  83.3797683 104.4104000  15.5220833  82.1462927
 109.2606036  25.5990375  78.5648746 109.1830066  26.5498200  78.6437226
 108.6567680  25.2536248  79.2223672 111.7523266  12.7718241  91.2210113
 110.9756600  13.3312161  91.2112977 112.3913829  13.2575024  91.7424983
 110.0069638  15.5803694  90.7828080 110.7484323  16.1188738  90.5062903
 109.3006624  16.2069983  90.9399631 115.4824978  17.7232834  89.3800241
 115.8908334  17.2815245  88.6354873 114.7602239  17.1485462  89.6334434
 111.8356048  12.6605441  86.7533798 112.6817243  13.0844855  86.8968447
 111.7754686  12.0039065  87.4472361 115.8053792  18.2834025  83.1352530
 115.1762655  18.4479739  82.4328598 115.4179455  18.6975635  83.9063494
 119.6843024  19.2188463  80.4896894 118.9994062  19.5987364  79.9393927
 119.7686874  19.8283790  81.2228842 116.9393956  16.8648422  87.0892237
 117.1510851  17.5080182  86.4126618 116.8923704  16.0310738  86.6214167
 111.3581754  18.0208433  80.4002615 111.8220100  18.2996136  79.6107238
 111.0938552  17.1191878  80.2175706 108.2505835  17.5679915  83.3382378
 108.8207192  17.9967183  82.6999863 108.8413947  17.2862499  84.0366564
 110.2950640  14.1431586  77.2092180 110.9974684  14.5952629  77.6766107
 109.9631269  13.5015404  77.8372073 108.7431002  12.7343342  91.5843390
 108.1129662  13.4159623  91.8178786 108.6367090  12.6226424  90.6396528
 104.0375974  12.4015138  82.5109314 103.2475028  12.6572667  82.0349424
 104.5287222  13.2163476  82.6161354 118.0539784  19.7420377  85.2614595
 118.8757228  19.3400565  84.9797276 118.0502187  19.6388611  86.2130710
 105.9890720  12.7659717  79.4692791 105.1921883  12.8778412  79.9876286
 105.7616312  13.1046370  78.6033681 111.8196387  19.2904421  87.4175305
 111.8840820  19.7524828  88.2533477 111.1107311  18.6601786  87.5457615
 102.3213677  12.6545629  84.9424305 102.5721716  13.5392639  85.2081881
 102.8573226  12.4750230  84.1699396 111.5344405  20.9572528  77.2854285
 111.3990080  21.8024064  77.7139133 112.0754217  21.1591806  76.5220219
 104.9873802  18.4747966  77.8582211 105.4998323  19.2691216  78.0087775
 105.6396515  17.7774257  77.7915812 106.7968687  21.5913722  79.9404964
 106.9735315  22.5131687  79.7525948 107.5925521  21.2772142  80.3699344
 106.0821044  13.6378354  89.8167127 105.9674559  12.7363612  90.1174226
 105.2265561  13.8842051  89.4651943 113.1612881  21.5796095  91.4154628
 112.7176736  20.7932473  91.0975532 113.8230095  21.7675245  90.7498518
 107.9200003  23.1091896  85.9415306 108.4707428  22.9808960  85.1692300
 107.0811478  23.4086785  85.5910199 115.2594119  21.8598895  89.4436029
 115.2412595  22.6807776  88.9516298 116.1814039  21.7352970  89.6686170
 111.7167174  19.3743024  90.2859537 112.2495510  18.6131312  90.0558845
 111.1881255  19.0816676  91.0283692 102.9522719  16.8036620  78.6341781
 103.7897941  17.2133629  78.4175489 103.1300987  15.8636063  78.6041975
 114.8487151  14.4711701  74.3225614 114.3333775  15.2416306  74.5614001
 114.5764460  13.7976837  74.9458675 119.8221425  17.2244056  76.2578788
 119.0450868  16.8855215  75.8133950 120.5012906  17.2296679  75.5833753
 113.0819886  18.5029017  77.7978349 112.5541248  17.7681776  77.4851587
 112.5807389  19.2803693  77.5518318 118.0612732  16.6978037  82.9145395
 117.4036407  17.3877298  83.0025524 118.8653132  17.0874469  83.2579382
 116.8718191  15.0522410  80.9649337 117.3850073  15.6852402  81.4671047
 117.5219415  14.4523605  80.5992697 108.1408201  11.1953144  74.1780846
 107.3045513  11.5327830  74.4990121 108.0012971  11.0602124  73.2407983
 111.2272486  16.3209227  70.8013322 110.3199548  16.0898480  71.0004471
 111.7243518  15.5246846  70.9887304 114.1340565  25.0306734  73.7210008
 113.4602264  25.3338431  74.3294966 114.5206387  25.8335814  73.3715465
 113.3499022  12.5271865  83.2107678 112.4321583  12.7486812  83.0529366
 113.7659166  12.6018176  82.3519385 114.1334070  13.9263281  78.3410358
 114.8805889  14.4384678  78.0317480 114.4025659  13.6047334  79.2014752
 112.4060720  16.4221822  75.3237312 111.4971939  16.1380854  75.4209782
 112.4355804  16.8420900  74.4640619 117.6379987  20.0328411  79.0928480
 117.1842314  19.1919321  79.1493670 117.0073954  20.6689810  79.4303260
 116.0812927  21.8704908  80.0278298 116.3735901  22.4309965  79.3090664
 116.5911547  22.1633469  80.7831457 102.9748890  14.1427336  79.3052515
 102.7773290  13.5496696  78.5803581 102.4195554  13.8379546  80.0228453
 110.9545614  14.0350442  81.4247108 111.0094224  13.0824279  81.3489584
 110.1436816  14.1909881  81.9088406 112.1036808  17.9630565  72.6625391
 111.6656238  17.2466424  72.2031028 112.8447249  18.1906680  72.1010482
 108.8937974  12.6527502  79.1837487 108.0805839  12.9521673  79.5902679
 109.3896968  12.2583191  79.9011969 111.0446552  22.6485259  81.1171751
 111.0022731  22.8746105  80.1880283 111.9609251  22.4148634  81.2657552
 114.4912186  13.1169326  88.0152380 114.8461573  13.3440800  88.8746846
 115.1384317  13.4487703  87.3929636 120.2209923  16.2387762  78.7201709
 120.0827821  16.4289358  77.7922899 119.8646141  17.0007145  79.1769761
 120.2479302  18.3064289  83.7312981 120.6815809  18.2139578  84.5796035
 120.9610883  18.2821790  83.0932997 109.1612353  19.5248288  80.9133714
 109.9552951  19.0298608  80.7116289 108.4504045  18.9966151  80.5501420
 113.9807197  21.9066383  85.2646082 114.0344219  22.4757320  86.0323797
 113.1121978  22.0768269  84.9000119 105.4695116  13.6691370  76.9893467
 104.5392704  13.6075825  77.2063429 105.5652588  13.1467322  76.1930108
 105.3880665  10.1946183  79.5771708 105.6487482  11.1091516  79.4680869
 106.2097837   9.7270625  79.7268321 106.8605590  11.6083940  86.7470533
 107.5328644  11.4001302  86.0983182 106.0335377  11.4106026  86.3075765
 121.1094852  18.3487990  86.2645866 121.3030742  19.2533801  86.5105141
 121.0095470  17.8895409  87.0984451 116.1709960  18.4994733  91.8386747
 116.0195467  18.2705284  90.9216831 116.1614640  19.4565334  91.8518092
 112.9395297  16.0726646  86.8233013 113.8687357  16.2237805  86.6501981
 112.5186327  16.1610666  85.9681660 111.7383629  20.0977310  84.5931551
 111.5994714  19.7296094  85.4657489 110.9498225  20.6124949  84.4215509
 112.3331781  25.1986406  75.9357088 112.5083536  24.7274450  76.7502710
 111.6464569  25.8252173  76.1638348 113.2888844  19.4758913  81.9820389
 112.9538676  19.4359683  82.8778039 112.7892789  18.8103629  81.5090799
 107.2633088  14.8826543  87.5072970 107.1252886  14.1506781  88.1084509
 108.1738011  14.7935443  87.2257158 116.2248035  16.8214947  72.2557448
 115.6077206  16.0961775  72.1590501 115.7564524  17.5824307  71.9124523
 109.8915388  14.5946502  86.9956650 110.6015007  13.9539694  86.9543268
 109.8484696  14.8459397  87.9182830 117.8802167  21.5313855  89.9163229
 117.8214713  20.8473075  89.2493812 118.2821685  22.2732845  89.4643855
 108.6044322  11.5811720  88.8152289 108.0681679  11.1302458  89.4673885
 108.0161031  11.7157629  88.0722753 106.8992866  28.3475769  82.7096948
 107.1389464  28.9794293  83.3875966 106.0562062  27.9963809  82.9962307
 108.0146581  11.0400371  71.3778753 107.1376048  10.9189172  71.0140999
 108.4904334  10.2486450  71.1257641 117.8819574  19.4953439  88.1477209
 116.9946353  19.1579361  88.2703607 118.4518125  18.7636470  88.3845974
  99.5348721  15.8277531  81.4720260 100.2219761  15.5139261  80.8841275
  99.3796850  16.7318896  81.1987511 104.3383444  10.7167728  85.9005284
 104.2541632  10.1093397  85.1655694 103.5166150  11.2076746  85.9014780
 111.4120728  24.1554892  85.1138452 111.3390899  24.9609863  85.6257756
 110.9698121  24.3546857  84.2886473 111.2010507  23.3926662  78.6241273
 110.4178029  23.9348342  78.7179498 111.9003252  23.9100641  79.0235514
 113.8719411  24.0541726  87.2696610 114.5847383  24.6889190  87.1972512
 113.3809440  24.1505592  86.4536612 115.5936938  17.9592978  78.8413902
 114.6593217  18.0794441  78.6718606 115.7713607  17.0565445  78.5773912
 108.9231325  21.8036169  88.0902181 109.6240784  22.4372652  88.2431575
 108.4526440  22.1450901  87.3297820 117.0485721  20.1454119  76.3750088
 117.3245564  20.0310713  77.2843962 116.1790219  19.7471604  76.3362261
 116.7232611  14.3580777  85.9154732 116.0704061  14.6056684  85.2607184
 117.1012991  13.5444915  85.5817209 113.6839785  24.3940470  80.0182902
 113.8662179  23.5762126  80.4810654 114.5072771  24.6108162  79.5807792
 114.0181950  23.3208655  77.2797950 114.5469716  22.8101109  76.6668112
 114.2810170  23.0051185  78.1443483 112.7720184  15.1000588  92.4020769
 112.0960821  14.9994717  93.0723144 113.5947818  14.9439801  92.8656766
 104.5199043  21.3372524  85.0233284 105.1052480  20.5916212  85.1561188
 104.3223881  21.6476481  85.9069948 107.3737698  24.3723772  80.0395726
 106.7048073  24.8569899  79.5559766 107.2350568  24.6192992  80.9539105
  99.1116698  13.9078124  83.7437727  99.1500797  13.3741715  84.5374845
  98.6056990  13.3813330  83.1248704 111.5142967  26.4067515  86.6378385
 112.0661275  26.5699137  87.4027470 111.8549160  26.9971953  85.9658409
 105.9659732  10.8265797  90.8873304 106.5931771  10.4442875  91.5010828
 105.1087651  10.6079999  91.2528996 116.3653841  21.2328773  92.4927039
 116.9093745  21.8458731  91.9981994 115.7840686  21.7908351  93.0094052
 102.7425275  12.6342227  76.8191658 103.0378716  11.7252905  76.7658712
 101.8413311  12.6129966  76.4972661 114.6511354  24.3549491  83.6242067
 114.5262493  23.5539230  83.1153012 115.3090445  24.8495684  83.1356037
 106.2719522  10.7098223  82.8019207 105.5506108  11.3234191  82.6626680
 107.0612778  11.2455988  82.7235853 116.7146262  22.1558511  85.2521617
 115.7676598  22.0363862  85.1799944 117.0629035  21.2681009  85.3347878
 104.4713117  10.3156324  76.9430984 104.1425823   9.4353703  76.7606089
 104.8252487  10.2603993  77.8307373 113.7192696  21.9511227  81.4525969
 113.5717658  21.0227934  81.6333539 114.5446189  21.9731318  80.9683044
 107.5854940  10.6029294  77.3106461 107.9251012  11.1315215  76.5885070
 108.0327060  10.9409700  78.0865028 117.3226817  22.7739786  82.5390842
 118.2473365  22.5682647  82.4015293 117.1542121  22.5256187  83.4480183
 108.4553431  12.7634778  83.0228831 108.3098012  13.0775081  83.9153112
 107.9778635  13.3819678  82.4699730 117.1122134  23.2925453  77.8952933
 117.2859011  22.7271876  77.1426786 117.6051025  24.0926348  77.7132423
 102.9299093  15.3040122  85.9616492 102.3852561  16.0799930  86.0936766
 103.8078443  15.6510927  85.8035614 118.0997306  22.6092217  74.9949832
 118.7948211  23.2298910  75.2137146 118.4420456  21.7587569  75.2702209
 103.7165115  14.4310018  88.8546649 102.9746851  14.5792654  89.4411279
 103.3957860  14.6918284  87.9913398 119.9988729  20.0591923  76.5237162
 120.5240053  20.3979196  75.7986482 119.9111082  19.1238938  76.3400297
 111.6608778  23.9725997  88.6527039 111.9695904  23.7275143  89.5249739
 112.4584260  24.1772635  88.1645909 111.6829390  26.1263906  80.8832416
 111.2434380  25.6340285  81.5765272 112.4337507  25.5836874  80.6424491
 104.1621729  22.3175447  80.8857044 104.9879749  22.0179219  80.5055687
 103.8115781  21.5483070  81.3346832 109.1303262  21.6701915  82.9554717
 108.5083271  21.0072620  82.6556945 109.8008129  21.6963047  82.2728365
 102.3630334  20.2361774  81.8445977 101.5262242  19.8083948  81.6629978
 102.3353979  20.4294217  82.7816768 119.6882635  20.6924827  91.8288360
 118.8978179  20.6748965  91.2892860 119.4515990  21.2313120  92.5837397
 119.8080510  17.5417293  89.1421089 119.8578515  17.3767300  90.0836612
 119.6994434  16.6744552  88.7518970 108.6916769  20.2205839  76.4313178
 108.8404889  20.9041303  75.7779850 109.4983212  20.2010929  76.9462633
 121.3098707  19.9614235  89.3863110 121.0183515  20.3244215  90.2226571
 120.6970838  19.2481243  89.2076442 122.5094389  17.5267114  81.9065681
 123.3441281  17.9656918  82.0703241 122.6453518  17.0505768  81.0873926
 119.5585895  15.0846849  87.8543168 120.0340017  15.2774495  87.0462020
 118.6351461  15.1406035  87.6086552 106.4469402  16.2471016  77.4374247
 106.2015444  15.3433346  77.6354457 106.6165317  16.2488167  76.4953725
 105.7165050  11.9799374  74.9360408 105.0234294  12.0543729  74.2800444
 105.4716801  11.2159718  75.4581925 112.1912175  22.7153969  73.9024925
 111.6186142  23.3344156  73.4495397 112.7644968  23.2653331  74.4364847
 115.4109434  22.9991119  75.0333507 116.3440107  22.9336681  75.2366383
 115.3232647  23.8347386  74.5748040 118.0397451  22.3156990  71.9937455
 117.9611083  21.9816853  72.8873213 118.8607118  22.8078758  71.9928927
 112.5758973  14.0514782  71.2440978 113.5218078  13.9220990  71.3129396
 112.1973218  13.3129444  71.7210406 112.4597666  18.1032528  92.7041635
 113.3800675  18.2811127  92.8981681 112.4247249  17.1588573  92.5521334
 110.7601890  11.9764758  71.1795863 109.8533346  11.6797871  71.2558576
 111.0377871  11.6794576  70.3130149 101.6779831  13.2971122  81.6294909
 101.3582615  12.4436430  81.3369283 101.1313259  13.5119700  82.3852877
 105.4559738  16.0133563  85.3464416 105.6745748  16.9450671  85.3652450
 105.8685512  15.6541537  86.1319220 110.3287603  11.5866768  94.7367165
 110.2284330  12.5361125  94.6679256 110.1109145  11.2585007  93.8643235
 101.5468091  16.9174033  83.5988031 100.8531562  16.5027986  83.0857985
 102.2941082  16.9594570  83.0021450 110.1918873  15.0163907  93.5532226
 109.7085955  15.8164267  93.7596115 110.2779813  15.0271852  92.5999670
 103.4604833  16.8492287  81.4754046 103.4375521  16.9479974  80.5235929
 103.7705470  17.6957438  81.7971212 106.1192211  18.9068442  85.5900660
 107.0735465  18.8752384  85.5230592 105.9204735  18.4459066  86.4050886
 106.7091593  17.4769558  88.1571458 107.5284482  17.9713637  88.1806295
 106.9828401  16.5601526  88.1289025 104.4742440  24.4488061  82.6070858
 104.3396908  23.6888462  82.0408856 104.0574502  25.1728961  82.1399647
 115.6101403  19.6324985  71.6147433 116.3137253  19.8374988  72.2305089
 114.8864052  20.2001747  71.8796517 116.4399213  15.3834846  77.7349704
 116.3834414  15.8403398  76.8957336 116.9927556  14.6225531  77.5572546
 107.6311566  25.3457379  82.8189301 107.5143950  26.2902811  82.7167991
 106.8104012  25.0430940  83.2075100 117.5188100  20.0707514  73.6645893
 118.3533704  19.6388713  73.4823368 117.3572443  19.8989528  74.5922788
 117.1733992  16.5739628  75.0302233 117.1182796  16.4083899  74.0890677
 116.5480048  17.2815660  75.1864422 101.9626507  11.8107692  88.8563655
 102.6085371  11.3006646  89.3450880 101.7543658  12.5476374  89.4307080
 114.4879900  18.8788539  94.3555795 115.3571059  19.0529192  93.9942430
 114.0086651  19.6982956  94.2331525 108.6566080  25.9985640  86.0345229
 109.5593326  26.0309251  86.3511724 108.4303450  25.0686091  86.0491565
 110.4119682  24.7516627  82.6955308 109.4615313  24.7518489  82.5819680
 110.7152168  24.0049362  82.1791342 126.1472375  30.5877165  83.7601070
 126.7850785  30.4683913  83.0564410 126.0293218  31.5358009  83.8189022
 122.9562082  30.5404593  83.6962595 122.6180593  30.4245658  82.8083130
 123.8251850  30.1395759  83.6763601 118.8148897  32.3940070  79.6859486
 118.2513762  32.3030007  78.9175774 118.7001292  31.5739974  80.1661978
 123.4381865  31.6939445  89.6548800 123.4270505  31.2992243  88.7829304
 123.6002504  30.9605518  90.2482572 116.3613329  33.8891261  82.5243706
 117.1534621  33.5482086  82.1090006 116.6009979  33.9986237  83.4445860
 124.3948456  36.0611038  74.9973951 123.7436436  36.6465118  74.6107964
 125.1892819  36.5917232  75.0568988 118.3204083  33.1500175  75.3961085
 119.0934959  32.6029162  75.2573961 118.6729482  34.0144424  75.6075546
 120.1589126  34.4776557  88.6027984 119.8678992  35.3822188  88.4874651
 120.7946110  34.5193085  89.3172054 121.0845333  31.8553405  85.1929344
 121.6808905  31.6309428  84.4786307 121.1420304  31.1138151  85.7954792
 120.6570361  29.3092841  73.0279535 120.9095882  28.7874362  72.2662998
 119.7194920  29.1458986  73.1306219 125.7013644  28.3128619  80.8354278
 126.4876733  27.8948042  80.4844695 125.9652348  29.2174711  81.0035927
 125.8723721  33.7501469  75.5342935 125.2369554  33.8236096  76.2463840
 125.5421128  34.3395068  74.8562014 131.1022071  28.2503852  81.7387257
 131.8347243  27.6803069  81.9725086 130.3461427  27.8625453  82.1793762
 120.3766650  31.2120947  75.2303910 120.2602908  30.5365850  75.8984994
 120.4868910  30.7253321  74.4136063 122.7198191  30.6731094  78.9350599
 122.3556398  30.1461715  79.6463521 123.5765307  30.2829563  78.7617085
 128.6247491  21.9625426  86.1981865 128.2930816  22.8320837  85.9743080
 128.0293105  21.6461710  86.8775896 122.3603678  25.7020994  73.9311948
 122.5278080  26.5701230  74.2982419 122.1700847  25.8648275  73.0073237
 125.1179011  34.1637972  85.5977778 124.8179734  35.0663011  85.4893585
 124.7730070  33.8970156  86.4498931 118.5691492  30.6151769  81.6314482
 117.6441989  30.4827983  81.8392174 118.8175905  31.3945989  82.1284425
 128.5176155  26.6820513  83.2775215 127.6093032  26.6135921  82.9833976
 128.4663750  27.1592458  84.1057041 122.3392898  28.1578651  74.9158614
 122.2192524  28.6035702  75.7544095 121.6445487  28.5063969  74.3572153
 115.9300303  30.2585043  82.4658272 116.0592684  30.5119522  83.3797683
 115.2497755  30.8512751  82.1462927 120.0999791  40.9282293  78.5648746
 120.0223820  41.8790118  78.6437226 119.4961434  40.5828165  79.2223672
 122.5917020  28.1010158  91.2210113 121.8150354  28.6604078  91.2112977
 123.2307583  28.5866941  91.7424983 130.3837801  24.8836951  85.0553089
 129.7412181  25.1769484  84.4092884 129.8792729  24.7689871  85.8606286
 128.0377965  28.6300124  75.7438949 128.9495821  28.8627511  75.5686646
 127.5287612  29.2137168  75.1814027 120.8463393  30.9095612  90.7828080
 121.5878077  31.4480656  90.5062903 120.1400378  31.5361900  90.9399631
 126.3218732  33.0524752  89.3800241 126.7302088  32.6107163  88.6354873
 125.5995994  32.4777380  89.6334434 122.6749802  27.9897359  86.7533798
 123.5210998  28.4136772  86.8968447 122.6148440  27.3330983  87.4472361
 126.6447547  33.6125943  83.1352530 126.0156409  33.7771657  82.4328598
 126.2573209  34.0267552  83.9063494 130.5236779  34.5480381  80.4896894
 129.8387817  34.9279282  79.9393927 130.6080628  35.1575707  81.2228842
 125.8249248  25.6501727  88.4114972 125.5810180  26.4043788  87.8749247
 126.1009178  26.0287075  89.2462219 127.7787710  32.1940340  87.0892237
 127.9904606  32.8372099  86.4126618 127.7317459  31.3602656  86.6214167
 125.3813939  24.8058160  83.9928809 124.5198418  25.1039414  84.2845547
 125.4076374  25.0228559  83.0609842 122.1975509  33.3500351  80.4002615
 122.6613854  33.6288054  79.6107238 121.9332307  32.4483795  80.2175706
 119.0899590  32.8971832  83.3382378 119.6600947  33.3259101  82.6999863
 119.6807702  32.6154417  84.0366564 121.1344395  29.4723503  77.2092180
 121.8368438  29.9244547  77.6766107 120.8025023  28.8307322  77.8372073
 119.5824756  28.0635260  91.5843390 118.9523417  28.7451541  91.8178786
 119.4760844  27.9518341  90.6396528 114.8769729  27.7307056  82.5109314
 114.0868783  27.9864584  82.0349424 115.3680976  28.5455394  82.6161354
 128.8933538  35.0712295  85.2614595 129.7150982  34.6692482  84.9797276
 128.8895941  34.9680529  86.2130710 116.8284474  28.0951635  79.4692791
 116.0315637  28.2070329  79.9876286 116.6010066  28.4338287  78.6033681
 122.6590142  34.6196338  87.4175305 122.7234574  35.0816746  88.2533477
 121.9501066  33.9893703  87.5457615 113.1607432  27.9837546  84.9424305
 113.4115470  28.8684556  85.2081881 113.6966980  27.8042148  84.1699396
 136.9839531  31.4151043  81.6099566 136.2303240  30.8458442  81.4543571
 137.1187073  31.3813708  82.5570201 122.3738159  36.2864446  77.2854285
 122.2383834  37.1315982  77.7139133 122.9147972  36.4883723  76.5220219
 118.8605499  22.3656026  93.9468641 118.4672445  21.8122224  94.6216285
 119.6771639  22.6766604  94.3375158 115.8267557  33.8039884  77.8582211
 116.3392077  34.5983134  78.0087775 116.4790270  33.1066174  77.7915812
 117.6362442  36.9205640  79.9404964 117.8129070  37.8423605  79.7525948
 118.4319275  36.6064059  80.3699344 121.7773460  23.7813905  91.5388897
 122.5183173  24.3821058  91.4593360 122.0091383  23.0391543  90.9806940
 116.9214798  28.9670272  89.8167127 116.8068313  28.0655529  90.1174226
 116.0659316  29.2133969  89.4651943 124.0006636  36.9088012  91.4154628
 123.5570490  36.1224391  91.0975532 124.6623849  37.0967163  90.7498518
 118.7593757  38.4383814  85.9415306 119.3101182  38.3100877  85.1692300
 117.9205233  38.7378703  85.5910199 126.0987874  37.1890812  89.4436029
 126.0806349  38.0099693  88.9516298 127.0207794  37.0644887  89.6686170
 122.5560928  34.7034942  90.2859537 123.0889265  33.9423230  90.0558845
 122.0275009  34.4108594  91.0283692 125.7230623  19.8095008  85.8153179
 125.3794892  20.6996649  85.7392290 126.0909586  19.6196665  84.9522764
 113.7916474  32.1328538  78.6341781 114.6291696  32.5425546  78.4175489
 113.9694741  31.1927980  78.6041975 125.6880906  29.8003619  74.3225614
 125.1727529  30.5708223  74.5614001 125.4158214  29.1268755  74.9458675
 123.2728017  24.6453320  79.3810852 122.4169613  24.2560170  79.2016491
 123.6854969  24.7245280  78.5210638 124.8027163  22.1799663  83.7802412
 124.2991959  22.1429798  82.9670217 125.0957770  23.0892406  83.8399069
 121.0470049  22.2638393  82.7868594 121.9123046  22.0681201  82.4274483
 121.1147558  22.0348744  83.7137951 130.6615180  32.5535973  76.2578788
 129.8844623  32.2147133  75.8133950 131.3406661  32.5588597  75.5833753
 125.4767209  27.6730711  76.1485395 125.1717345  27.9876860  76.9995538
 126.4297651  27.7512131  76.1912728 123.9213641  33.8320934  77.7978349
 123.3935002  33.0973694  77.4851587 123.4201144  34.6095611  77.5518318
 128.9006487  32.0269955  82.9145395 128.2430161  32.7169216  83.0025524
 129.7046886  32.4166387  83.2579382 118.6532368  24.4940600  80.1584961
 119.2276120  24.2715782  79.4258154 119.2403351  24.5629295  80.9113562
 127.7111946  30.3814327  80.9649337 128.2243827  31.0144319  81.4671047
 128.3613169  29.7815523  80.5992697 118.9801956  26.5245062  74.1780846
 118.1439268  26.8619748  74.4990121 118.8406725  26.3894041  73.2407983
 120.9555036  21.3681849  78.8860030 120.3019448  21.0530867  78.2616645
 120.9135510  20.7457590  79.6119853 122.0666241  31.6501144  70.8013322
 121.1593303  31.4190398  71.0004471 122.5637273  30.8538764  70.9887304
 124.9734320  40.3598652  73.7210008 124.2996019  40.6630348  74.3294966
 125.3600142  41.1627732  73.3715465 124.1892776  27.8563783  83.2107678
 123.2715338  28.0778730  83.0529366 124.6052920  27.9310093  82.3519385
 124.9727824  29.2555199  78.3410358 125.7199643  29.7676596  78.0317480
 125.2419414  28.9339251  79.2014752 123.2454474  31.7513739  75.3237312
 122.3365694  31.4672772  75.4209782 123.2749558  32.1712818  74.4640619
 128.4773742  35.3620329  79.0928480 128.0236069  34.5211239  79.1493670
 127.8467709  35.9981727  79.4303260 127.4206661  26.2912315  80.3229147
 126.6829418  25.7789701  80.6539390 127.6733435  25.8512696  79.5112424
 126.9206681  37.1996826  80.0278298 127.2129655  37.7601883  79.3090664
 127.4305302  37.4925387  80.7831457 127.5218289  19.0688567  80.9170917
 127.8277166  18.2085930  80.6296832 128.2470894  19.6606187  80.7169911
 113.8142645  29.4719253  79.3052515 113.6167045  28.8788614  78.5803581
 113.2589309  29.1671464  80.0228453 121.7939368  29.3642360  81.4247108
 121.8487978  28.4116196  81.3489584 120.9830570  29.5201799  81.9088406
 122.9430562  33.2922483  72.6625391 122.5049992  32.5758342  72.2031028
 123.6841003  33.5198598  72.1010482 119.7331728  27.9819420  79.1837487
 118.9199594  28.2813590  79.5902679 120.2290723  27.5875108  79.9011969
 121.8840306  37.9777177  81.1171751 121.8416485  38.2038023  80.1880283
 122.8003005  37.7440551  81.2657552 125.3305940  28.4461244  88.0152380
 125.6855328  28.6732717  88.8746846 125.9778071  28.7779621  87.3929636
 131.0603677  31.5679680  78.7201709 130.9221576  31.7581276  77.7922899
 130.7039896  32.3299063  79.1769761 119.2245803  25.5537775  84.7998721
 119.8645182  25.4126534  84.1021685 118.3923334  25.2672289  84.4237323
 131.0873057  33.6356207  83.7312981 131.5209563  33.5431496  84.5796035
 131.8004637  33.6113708  83.0932997 120.0006107  34.8540206  80.9133714
 120.7946706  34.3590526  80.7116289 119.2897799  34.3258069  80.5501420
 124.8200952  37.2358301  85.2646082 124.8737974  37.8049237  86.0323797
 123.9515733  37.4060186  84.9000119 116.3088870  28.9983287  76.9893467
 115.3786459  28.9367743  77.2063429 116.4046342  28.4759240  76.1930108
 116.2274420  25.5238100  79.5771708 116.4881237  26.4383433  79.4680869
 117.0491592  25.0562543  79.7268321 117.6999345  26.9375857  86.7470533
 118.3722398  26.7293219  86.0983182 116.8729131  26.7397943  86.3075765
 131.9488606  33.6779908  86.2645866 132.1424496  34.5825718  86.5105141
 131.8489224  33.2187327  87.0984451 123.6024917  23.5637798  88.7636194
 122.9552832  24.2627748  88.6700670 124.3725932  23.9973942  89.1312442
 127.0103715  33.8286650  91.8386747 126.8589221  33.5997202  90.9216831
 127.0008394  34.7857252  91.8518092 123.7789051  31.4018563  86.8233013
 124.7081111  31.5529723  86.6501981 123.3580081  31.4902584  85.9681660
 122.5777383  35.4269228  84.5931551 122.4388469  35.0588012  85.4657489
 121.7891979  35.9416867  84.4215509 123.1725535  40.5278324  75.9357088
 123.3477291  40.0566367  76.7502710 122.4858323  41.1544090  76.1638348
 124.1282598  34.8050830  81.9820389 123.7932431  34.7651600  82.8778039
 123.6286544  34.1395546  81.5090799 118.1026842  30.2118460  87.5072970
 117.9646640  29.4798699  88.1084509 119.0131766  30.1227360  87.2257158
 127.0641790  32.1506865  72.2557448 126.4470960  31.4253693  72.1590501
 126.5958278  32.9116225  71.9124523 120.7309143  29.9238420  86.9956650
 121.4408761  29.2831612  86.9543268 120.6878451  30.1751315  87.9182830
 128.7195921  36.8605773  89.9163229 128.6608468  36.1764993  89.2493812
 129.1215440  37.6024763  89.4643855 119.4438077  26.9103638  88.8152289
 118.9075434  26.4594376  89.4673885 118.8554785  27.0449546  88.0722753
 117.7386620  43.6767687  82.7096948 117.9783219  44.3086211  83.3875966
 116.8955817  43.3255727  82.9962307 118.8540336  26.3692289  71.3778753
 117.9769802  26.2481090  71.0140999 119.3298089  25.5778367  71.1257641
 128.7213329  34.8245357  88.1477209 127.8340108  34.4871279  88.2703607
 129.2911880  34.0928388  88.3845974 110.3742476  31.1569449  81.4720260
 111.0613516  30.8431179  80.8841275 110.2190605  32.0610813  81.1987511
 115.1777198  26.0459645  85.9005284 115.0935387  25.4385315  85.1655694
 114.3559904  26.5368664  85.9014780 122.2514482  39.4846809  85.1138452
 122.1784654  40.2901781  85.6257756 121.8091875  39.6838775  84.2886473
 122.0404262  38.7218579  78.6241273 121.2571784  39.2640259  78.7179498
 122.7397007  39.2392559  79.0235514 125.3500912  24.5313209  81.2675479
 125.8469611  23.7783171  80.9476549 124.5787893  24.5677525  80.7018688
 133.2030669  30.2353574  82.9093770 133.1920546  31.1178290  82.5387703
 132.3348049  29.8825125  82.7148307 124.7113166  39.3833643  87.2696610
 125.4241138  40.0181108  87.1972512 124.2203194  39.4797509  86.4536612
 126.4330693  33.2884896  78.8413902 125.4986971  33.4086358  78.6718606
 126.6107361  32.3857363  78.5773912 121.9335881  26.6730592  80.9947163
 121.5633668  26.1201632  81.6828069 122.4294973  26.0688725  80.4422163
 129.8203244  29.1302215  79.3763936 130.2863696  29.9630207  79.3024239
 130.2710744  28.6647197  80.0809195 119.7625079  37.1328087  88.0902181
 120.4634539  37.7664570  88.2431575 119.2920194  37.4742818  87.3297820
 127.8879475  35.4746037  76.3750088 128.1639319  35.3602631  77.2843962
 127.0183974  35.0763521  76.3362261 127.7919907  21.4982802  83.4154838
 126.8782986  21.7287029  83.5837044 128.2213008  21.5821246  84.2668870
 127.5626365  29.6872694  85.9154732 126.9097815  29.9348602  85.2607184
 127.9406745  28.8736832  85.5817209 124.5233539  39.7232387  80.0182902
 124.7055934  38.9054043  80.4810654 125.3466525  39.9400080  79.5807792
 124.8575705  38.6500573  77.2797950 125.3863471  38.1393027  76.6668112
 125.1203924  38.3343103  78.1443483 123.6113938  30.4292505  92.4020769
 122.9354575  30.3286635  93.0723144 124.4341572  30.2731719  92.8656766
 115.3592797  36.6664442  85.0233284 115.9446234  35.9208130  85.1561188
 115.1617636  36.9768399  85.9069948 118.2131452  39.7015689  80.0395726
 117.5441828  40.1861817  79.5559766 118.0744322  39.9484910  80.9539105
 109.9510452  29.2370042  83.7437727 109.9894552  28.7033633  84.5374845
 109.4450745  28.7105248  83.1248704 122.3536721  41.7359433  86.6378385
 122.9055029  41.8991054  87.4027470 122.6942915  42.3263871  85.9658409
 117.3301214  24.0834583  87.2400269 117.3942541  24.9449413  86.8277667
 117.2668335  23.4708584  86.5072628 116.8053487  26.1557715  90.8873304
 117.4325526  25.7734792  91.5010828 115.9481406  25.9371917  91.2528996
 127.2047595  36.5620690  92.4927039 127.7487499  37.1750649  91.9981994
 126.6234440  37.1200269  93.0094052 113.5819030  27.9634144  76.8191658
 113.8772471  27.0544823  76.7658712 112.6807065  27.9421884  76.4972661
 125.4905108  39.6841408  83.6242067 125.3656248  38.8831148  83.1153012
 126.1484199  40.1787602  83.1356037 117.1113277  26.0390141  82.8019207
 116.3899862  26.6526108  82.6626680 117.9006532  26.5747906  82.7235853
 127.5540017  37.4850428  85.2521617 126.6070352  37.3655780  85.1799944
 127.9022790  36.5972926  85.3347878 119.9139590  23.3744567  89.0759859
 120.4373992  23.6206864  89.8386168 119.6951923  24.2064602  88.6562996
 115.3106871  25.6448242  76.9430984 114.9819577  24.7645621  76.7606089
 115.6646242  25.5895911  77.8307373 124.5586450  37.2803145  81.4525969
 124.4111412  36.3519852  81.6333539 125.3839944  37.3023235  80.9683044
 118.4248694  25.9321212  77.3106461 118.7644767  26.4607133  76.5885070
 118.8720815  26.2701618  78.0865028 128.1620572  38.1031703  82.5390842
 129.0867119  37.8974565  82.4015293 127.9935875  37.8548104  83.4480183
 121.1192135  24.3158262  86.7609529 120.7788956  23.5166075  87.1630209
 120.4131141  24.6159973  86.1886362 121.7708607  21.4007575  85.2136852
 122.5934676  20.9268053  85.0915743 122.0146670  22.1798059  85.7135539
 120.4116841  24.4295833  75.5099754 121.1325204  24.8077086  75.0063471
 119.7882146  25.1484710  75.6134732 124.5547964  25.1340982  76.4458086
 124.7711579  26.0165620  76.1446914 124.0742031  24.7427196  75.7163728
 119.2947186  28.0926695  83.0228831 119.1491766  28.4066999  83.9153112
 118.8172389  28.7111596  82.4699730 121.1543569  25.0829243  83.0709720
 121.1405137  24.1870337  82.7342018 121.8715997  25.0899907  83.7048007
 123.0069699  25.5166584  85.1162848 122.7487477  26.4383654  85.1147178
 122.4754740  25.1197018  85.8063312 127.9515888  38.6217371  77.8952933
 128.1252766  38.0563793  77.1426786 128.4444779  39.4218266  77.7132423
 113.7692848  30.6332040  85.9616492 113.2246316  31.4091848  86.0936766
 114.6472198  30.9802844  85.8035614 120.5580465  23.9643624  78.3397291
 120.6796376  23.0360270  78.5388178 120.2682507  23.9782310  77.4275606
 123.4271655  21.6498534  81.4764010 123.4493352  21.7137867  80.5215990
 123.8439714  20.8103043  81.6704517 133.8055279  31.3853794  79.5143233
 134.2486425  30.6361119  79.1162356 132.9281790  31.3763930  79.1316965
 128.9391061  37.9384135  74.9949832 129.6341965  38.5590828  75.2137146
 129.2814211  37.0879486  75.2702209 114.5558870  29.7601936  88.8546649
 113.8140606  29.9084571  89.4411279 114.2351614  30.0210202  87.9913398
 130.8382484  35.3883841  76.5237162 131.3633808  35.7271113  75.7986482
 130.7504836  34.4530856  76.3400297 122.5002532  39.3017914  88.6527039
 122.8089659  39.0567061  89.5249739 123.2978014  39.5064553  88.1645909
 122.5223144  41.4555824  80.8832416 122.0828135  40.9632203  81.5765272
 123.2731261  40.9128792  80.6424491 115.0015483  37.6467365  80.8857044
 115.8273503  37.3471137  80.5055687 114.6509535  36.8774987  81.3346832
 119.9697017  36.9993833  82.9554717 119.3477026  36.3364538  82.6556945
 120.6401883  37.0254965  82.2728365 113.2024088  35.5653691  81.8445977
 112.3655997  35.1375866  81.6629978 113.1747734  35.7586135  82.7816768
 120.0421544  25.4775621  92.5487223 120.0909700  26.3537744  92.1664993
 120.5844058  24.9353014  91.9758866 130.5276390  36.0216744  91.8288360
 129.7371933  36.0040883  91.2892860 130.2909744  36.5605038  92.5837397
 130.6474265  32.8709211  89.1421089 130.6972270  32.7059218  90.0836612
 130.5388188  32.0036470  88.7518970 119.5310523  35.5497756  76.4313178
 119.6798644  36.2333221  75.7779850 120.3376967  35.5302846  76.9462633
 127.9378027  28.8540139  90.4580396 128.8387890  28.7146604  90.1664393
 128.0126002  29.0194594  91.3978573 122.2720833  26.2306993  89.3033582
 121.4024142  26.5240560  89.0316170 122.5080313  26.8147438  90.0240846
 132.1492462  35.2906152  89.3863110 131.8577270  35.6536133  90.2226571
 131.5364593  34.5773160  89.2076442 133.3488144  32.8559032  81.9065681
 134.1835035  33.2948836  82.0703241 133.4847273  32.3797685  81.0873926
 130.3979650  30.4138767  87.8543168 130.8733771  30.6066413  87.0462020
 129.4745215  30.4697953  87.6086552 117.2863156  31.5762934  77.4374247
 117.0409198  30.6725264  77.6354457 117.4559071  31.5780084  76.4953725
 124.9759866  22.4486610  86.8199002 125.4941810  23.1847637  86.4945491
 124.6214999  22.7550604  87.6545761 116.5558804  27.3091292  74.9360408
 115.8628049  27.3835647  74.2800444 116.3110556  26.5451635  75.4581925
 125.2272461  18.8686893  82.3399899 125.5074214  18.2010082  82.9660325
 126.0123067  19.0615989  81.8274563 123.0305929  38.0445887  73.9024925
 122.4579896  38.6636074  73.4495397 123.6038723  38.5945249  74.4364847
 129.0981319  27.2904527  86.0871474 130.0498742  27.3902625  86.1083698
 128.9284769  26.4982795  86.5969558 127.1195698  24.3760110  86.2730875
 126.5245630  24.6565123  85.5777364 126.8345395  24.8654011  87.0447616
 126.2503189  38.3283037  75.0333507 127.1833862  38.2628599  75.2366383
 126.1626402  39.1639304  74.5748040 128.8791205  37.6448907  71.9937455
 128.8004837  37.3108771  72.8873213 129.7000872  38.1370675  71.9928927
 131.5769397  30.5110647  85.2013774 131.5445717  29.5726647  85.3873457
 132.1870020  30.5894683  84.4679599 123.4152728  29.3806700  71.2440978
 124.3611832  29.2512908  71.3129396 123.0366972  28.6421361  71.7210406
 131.7263885  27.3021690  85.2472057 131.2102934  26.5180147  85.0601986
 132.6103834  26.9740407  85.4118576 129.3874612  21.0462706  81.2067869
 129.1899433  20.7377794  82.0911201 129.9974318  21.7724345  81.3365799
 135.4761244  29.7134516  84.9394262 134.7494407  29.5790481  84.3310753
 135.0608531  30.0211345  85.7450980 123.2991420  33.4324446  92.7041635
 124.2194430  33.6103045  92.8981681 123.2641003  32.4880491  92.5521334
 121.5995645  27.3056676  71.1795863 120.6927100  27.0089789  71.2558576
 121.8771626  27.0086494  70.3130149 112.5173585  28.6263039  81.6294909
 112.1976369  27.7728348  81.3369283 111.9707013  28.8411618  82.3852877
 116.2953493  31.3425480  85.3464416 116.5139502  32.2742588  85.3652450
 116.7079266  30.9833455  86.1319220 123.2157710  21.8493566  77.3340104
 122.4058439  21.5040651  77.7095350 123.9042127  21.5401109  77.9227716
 125.1448259  20.9271613  78.9564401 125.6979297  21.3467066  79.6154424
 125.3818345  20.0007361  78.9987357 121.1681358  26.9158686  94.7367165
 121.0678085  27.8653043  94.6679256 120.9502900  26.5876925  93.8643235
 120.3694429  24.1643611  71.3207842 121.2313593  24.4898510  71.5803659
 120.5544773  23.3775107  70.8080908 112.3861845  32.2465951  83.5988031
 111.6925316  31.8319904  83.0857985 113.1334836  32.2886487  83.0021450
 128.5227066  23.0372138  78.4643065 127.9425735  23.6956942  78.0821117
 128.2562998  22.2149482  78.0530483 126.9730632  22.4377195  80.6664385
 127.4730411  22.5493730  79.8578704 127.6166240  22.1338248  81.3065194
 121.0312628  30.3455825  93.5532226 120.5479710  31.1456185  93.7596115
 121.1173567  30.3563770  92.5999670 114.2998588  32.1784205  81.4754046
 114.2769276  32.2771892  80.5235929 114.6099224  33.0249355  81.7971212
 116.9585965  34.2360360  85.5900660 117.9129219  34.2044302  85.5230592
 116.7598489  33.7750983  86.4050886 117.5485348  32.8061476  88.1571458
 118.3678237  33.3005554  88.1806295 117.8222155  31.8893444  88.1289025
 127.3051944  25.1972228  77.5199413 126.4177799  25.4821879  77.3019608
 127.7205933  25.0365991  76.6726690 130.6566480  25.2218749  81.2353753
 131.4326870  25.7115201  81.5078369 129.9314614  25.6476803  81.6925622
 133.0939039  25.9346368  82.2927693 133.6883529  25.6942104  81.5821001
 133.1665622  25.2153499  82.9201230 115.3136194  39.7779979  82.6070858
 115.1790662  39.0180380  82.0408856 114.8968257  40.5020879  82.1399647
 126.4495157  34.9616903  71.6147433 127.1531007  35.1666905  72.2305089
 125.7257806  35.5293665  71.8796517 127.2792968  30.7126764  77.7349704
 127.2228169  31.1695315  76.8957336 127.8321310  29.9517449  77.5572546
 131.0897773  26.5016496  78.5599823 130.8334708  26.1013132  79.3908031
 130.4650641  27.2160290  78.4349962 135.4010111  29.2412569  81.0671114
 134.8409669  29.3105758  81.8402676 134.7953615  29.0653554  80.3470611
 118.4705320  40.6749296  82.8189301 118.3537704  41.6194729  82.7167991
 117.6497766  40.3722858  83.2075100 128.3581855  35.3999432  73.6645893
 129.1927459  34.9680630  73.4823368 128.1966198  35.2281446  74.5922788
 128.0127747  31.9031545  75.0302233 127.9576551  31.7375817  74.0890677
 127.3873802  32.6107578  75.1864422 112.8020262  27.1399610  88.8563655
 113.4479125  26.6298564  89.3450880 112.5937413  27.8768291  89.4307080
 125.3273654  34.2080457  94.3555795 126.1964814  34.3821109  93.9942430
 124.8480406  35.0274874  94.2331525 121.3223872  21.4039654  74.6087551
 121.3102542  22.3481494  74.7655822 122.2147294  21.2209800  74.3147012
 119.4959834  41.3277558  86.0345229 120.3987081  41.3601168  86.3511724
 119.2697204  40.3978009  86.0491565 121.2513436  40.0808545  82.6955308
 120.3009067  40.0810406  82.5819680 121.5545922  39.3341279  82.1791342
 125.1375992  17.9982431  78.8633488 124.3708388  17.4440918  79.0090170
 125.5486697  18.0704300  79.7247640 117.1417753  24.2867227  92.9538669
 118.0049214  23.9304032  93.1641994 116.5683163  23.9481121  93.6414073
 133.7955836  45.8696511  83.6962595 133.4574348  45.7537576  82.8083130
 134.6645604  45.4687676  83.6763601 129.6542652  47.7231988  79.6859486
 129.0907517  47.6321924  78.9175774 129.5395047  46.9031892  80.1661978
 134.2775619  47.0231363  89.6548800 134.2664260  46.6284161  88.7829304
 134.4396259  46.2897435  90.2482572 127.2007084  49.2183179  82.5243706
 127.9928376  48.8774004  82.1090006 127.4403734  49.3278154  83.4445860
 135.2342210  51.3902955  74.9973951 134.5830190  51.9757036  74.6107964
 136.0286573  51.9209150  75.0568988 129.1597838  48.4792092  75.3961085
 129.9328714  47.9321079  75.2573961 129.5123236  49.3436342  75.6075546
 130.9982880  49.8068475  88.6027984 130.7072746  50.7114105  88.4874651
 131.6339865  49.8485002  89.3172054 131.9239087  47.1845323  85.1929344
 132.5202659  46.9601346  84.4786307 131.9814059  46.4430069  85.7954792
 131.4964115  44.6384759  73.0279535 131.7489636  44.1166280  72.2662998
 130.5588675  44.4750904  73.1306219 136.5407398  43.6420537  80.8354278
 137.3270487  43.2239960  80.4844695 136.8046103  44.5466629  81.0035927
 136.7117476  49.0793387  75.5342935 136.0763309  49.1528014  76.2463840
 136.3814882  49.6686986  74.8562014 131.2160404  46.5412864  75.2303910
 131.0996662  45.8657768  75.8984994 131.3262664  46.0545238  74.4136063
 133.5591945  46.0023012  78.9350599 133.1950152  45.4753633  79.6463521
 134.4159061  45.6121481  78.7617085 133.1997432  41.0312911  73.9311948
 133.3671834  41.8993148  74.2982419 133.0094601  41.1940193  73.0073237
 135.9572765  49.4929890  85.5977778 135.6573488  50.3954929  85.4893585
 135.6123825  49.2262073  86.4498931 129.4085247  45.9443687  81.6314482
 128.4835743  45.8119901  81.8392174 129.6569660  46.7237906  82.1284425
 133.1786653  43.4870569  74.9158614 133.0586278  43.9327620  75.7544095
 132.4839241  43.8355886  74.3572153 126.7694058  45.5876961  82.4658272
 126.8986439  45.8411439  83.3797683 126.0891509  46.1804669  82.1462927
 130.9393545  56.2574211  78.5648746 130.8617575  57.2082036  78.6437226
 130.3355189  55.9120083  79.2223672 133.4310775  43.4302076  91.2210113
 132.6544109  43.9895996  91.2112977 134.0701338  43.9158859  91.7424983
 131.6857147  46.2387529  90.7828080 132.4271832  46.7772573  90.5062903
 130.9794133  46.8653818  90.9399631 137.1612487  48.3816670  89.3800241
 137.5695843  47.9399080  88.6354873 136.4389748  47.8069297  89.6334434
 133.5143557  43.3189277  86.7533798 134.3604752  43.7428690  86.8968447
 133.4542194  42.6622901  87.4472361 137.4841301  48.9417860  83.1352530
 136.8550164  49.1063575  82.4328598 137.0966964  49.3559470  83.9063494
 136.6643002  40.9793645  88.4114972 136.4203934  41.7335705  87.8749247
 136.9402933  41.3578993  89.2462219 136.2207694  40.1350078  83.9928809
 135.3592173  40.4331331  84.2845547 136.2470129  40.3520477  83.0609842
 133.0369263  48.6792268  80.4002615 133.5007609  48.9579971  79.6107238
 132.7726061  47.7775713  80.2175706 129.9293344  48.2263750  83.3382378
 130.4994701  48.6551018  82.6999863 130.5201456  47.9446335  84.0366564
 131.9738149  44.8015421  77.2092180 132.6762193  45.2536465  77.6766107
 131.6418778  44.1599240  77.8372073 130.4218511  43.3927177  91.5843390
 129.7917171  44.0743458  91.8178786 130.3154599  43.2810259  90.6396528
 125.7163483  43.0598974  82.5109314 124.9262537  43.3156502  82.0349424
 126.2074731  43.8747311  82.6161354 127.6678229  43.4243553  79.4692791
 126.8709392  43.5362247  79.9876286 127.4403821  43.7630205  78.6033681
 133.4983896  49.9488256  87.4175305 133.5628329  50.4108663  88.2533477
 132.7894820  49.3185621  87.5457615 124.0001186  43.3129464  84.9424305
 124.2509225  44.1976474  85.2081881 124.5360735  43.1334065  84.1699396
 133.2131914  51.6156363  77.2854285 133.0777589  52.4607899  77.7139133
 133.7541726  51.8175641  76.5220219 129.6999254  37.6947943  93.9468641
 129.3066199  37.1414142  94.6216285 130.5165394  38.0058522  94.3375158
 126.6661311  49.1331802  77.8582211 127.1785832  49.9275052  78.0087775
 127.3184024  48.4358092  77.7915812 128.4756196  52.2497558  79.9404964
 128.6522824  53.1715522  79.7525948 129.2713030  51.9355977  80.3699344
 132.6167215  39.1105822  91.5388897 133.3576928  39.7112976  91.4593360
 132.8485137  38.3683460  90.9806940 127.7608553  44.2962190  89.8167127
 127.6462068  43.3947447  90.1174226 126.9053070  44.5425886  89.4651943
 134.8400390  52.2379930  91.4154628 134.3964245  51.4516309  91.0975532
 135.5017604  52.4259080  90.7498518 129.5987512  53.7675732  85.9415306
 130.1494937  53.6392795  85.1692300 128.7598987  54.0670621  85.5910199
 133.3954683  50.0326859  90.2859537 133.9283019  49.2715148  90.0558845
 132.8668764  49.7400511  91.0283692 136.5624378  35.1386925  85.8153179
 136.2188647  36.0288567  85.7392290 136.9303340  34.9488583  84.9522764
 124.6310228  47.4620456  78.6341781 125.4685450  47.8717464  78.4175489
 124.8088496  46.5219898  78.6041975 136.5274660  45.1295536  74.3225614
 136.0121284  45.9000141  74.5614001 136.2551969  44.4560673  74.9458675
 134.1121771  39.9745237  79.3810852 133.2563368  39.5852088  79.2016491
 134.5248723  40.0537198  78.5210638 135.6420918  37.5091581  83.7802412
 135.1385714  37.4721716  82.9670217 135.9351525  38.4184323  83.8399069
 131.8863804  37.5930310  82.7868594 132.7516801  37.3973119  82.4274483
 131.9541313  37.3640662  83.7137951 136.3160963  43.0022629  76.1485395
 136.0111099  43.3168778  76.9995538 137.2691406  43.0804048  76.1912728
 134.7607395  49.1612852  77.7978349 134.2328757  48.4265611  77.4851587
 134.2594898  49.9387528  77.5518318 129.4926123  39.8232518  80.1584961
 130.0669875  39.6007700  79.4258154 130.0797105  39.8921213  80.9113562
 129.8195710  41.8536979  74.1780846 128.9833022  42.1911666  74.4990121
 129.6800480  41.7185959  73.2407983 131.7948791  36.6973767  78.8860030
 131.1413203  36.3822784  78.2616645 131.7529265  36.0749508  79.6119853
 132.9059995  46.9793062  70.8013322 131.9987057  46.7482316  71.0004471
 133.4031027  46.1830681  70.9887304 135.8128074  55.6890569  73.7210008
 135.1389773  55.9922266  74.3294966 136.1993896  56.4919650  73.3715465
 135.0286531  43.1855701  83.2107678 134.1109092  43.4070648  83.0529366
 135.4446675  43.2602011  82.3519385 135.8121579  44.5847116  78.3410358
 136.5593398  45.0968513  78.0317480 136.0813168  44.2631169  79.2014752
 134.0848229  47.0805657  75.3237312 133.1759448  46.7964690  75.4209782
 134.1143313  47.5004736  74.4640619 124.6536399  44.8011171  79.3052515
 124.4560799  44.2080532  78.5803581 124.0983063  44.4963381  80.0228453
 132.6333123  44.6934278  81.4247108 132.6881733  43.7408114  81.3489584
 131.8224325  44.8493717  81.9088406 133.7824317  48.6214401  72.6625391
 133.3443747  47.9050260  72.2031028 134.5234758  48.8490515  72.1010482
 130.5725483  43.3111337  79.1837487 129.7593348  43.6105508  79.5902679
 131.0684477  42.9167026  79.9011969 132.7234061  53.3069094  81.1171751
 132.6810240  53.5329941  80.1880283 133.6396760  53.0732469  81.2657552
 136.1699695  43.7753162  88.0152380 136.5249082  44.0024635  88.8746846
 136.8171826  44.1071539  87.3929636 130.0639558  40.8829693  84.7998721
 130.7038937  40.7418452  84.1021685 129.2317088  40.5964206  84.4237323
 130.8399862  50.1832123  80.9133714 131.6340460  49.6882443  80.7116289
 130.1291554  49.6549986  80.5501420 135.6594706  52.5650219  85.2646082
 135.7131728  53.1341155  86.0323797 134.7909487  52.7352104  84.9000119
 127.1482625  44.3275205  76.9893467 126.2180213  44.2659661  77.2063429
 127.2440097  43.8051158  76.1930108 127.0668174  40.8530018  79.5771708
 127.3274991  41.7675351  79.4680869 127.8885346  40.3854460  79.7268321
 128.5393099  42.2667775  86.7470533 129.2116153  42.0585137  86.0983182
 127.7122886  42.0689861  86.3075765 134.4418671  38.8929716  88.7636194
 133.7946586  39.5919666  88.6700670 135.2119687  39.3265860  89.1312442
 134.6182806  46.7310481  86.8233013 135.5474866  46.8821640  86.6501981
 134.1973836  46.8194502  85.9681660 133.4171138  50.7561145  84.5931551
 133.2782223  50.3879930  85.4657489 132.6285734  51.2708785  84.4215509
 134.0119289  55.8570242  75.9357088 134.1871045  55.3858285  76.7502710
 133.3252078  56.4836008  76.1638348 134.9676353  50.1342748  81.9820389
 134.6326185  50.0943518  82.8778039 134.4680298  49.4687464  81.5090799
 128.9420597  45.5410378  87.5072970 128.8040395  44.8090617  88.1084509
 129.8525520  45.4519278  87.2257158 131.5702897  45.2530337  86.9956650
 132.2802516  44.6123530  86.9543268 131.5272205  45.5043232  87.9182830
 130.2831831  42.2395555  88.8152289 129.7469188  41.7886294  89.4673885
 129.6948540  42.3741464  88.0722753 128.5780375  59.0059605  82.7096948
 128.8176973  59.6378129  83.3875966 127.7349571  58.6547645  82.9962307
 129.6934090  41.6984207  71.3778753 128.8163557  41.5773007  71.0140999
 130.1691843  40.9070285  71.1257641 121.2136230  46.4861366  81.4720260
 121.9007270  46.1723096  80.8841275 121.0584359  47.3902731  81.1987511
 126.0170953  41.3751563  85.9005284 125.9329141  40.7677232  85.1655694
 125.1953659  41.8660581  85.9014780 133.0908237  54.8138727  85.1138452
 133.0178408  55.6193698  85.6257756 132.6485630  55.0130693  84.2886473
 132.8798016  54.0510497  78.6241273 132.0965538  54.5932177  78.7179498
 133.5790761  54.5684477  79.0235514 136.1894666  39.8605126  81.2675479
 136.6863366  39.1075089  80.9476549 135.4181648  39.8969443  80.7018688
 135.5506920  54.7125561  87.2696610 136.2634892  55.3473026  87.1972512
 135.0596949  54.8089427  86.4536612 137.2724447  48.6176814  78.8413902
 136.3380726  48.7378276  78.6718606 137.4501116  47.7149280  78.5773912
 132.7729635  42.0022509  80.9947163 132.4027423  41.4493550  81.6828069
 133.2688728  41.3980643  80.4422163 130.6018834  52.4620004  88.0902181
 131.3028293  53.0956487  88.2431575 130.1313949  52.8034736  87.3297820
 135.3627294  55.0524305  80.0182902 135.5449688  54.2345961  80.4810654
 136.1860280  55.2691997  79.5807792 135.6969459  53.9792490  77.2797950
 136.2257225  53.4684945  76.6668112 135.9597679  53.6635020  78.1443483
 134.4507693  45.7584423  92.4020769 133.7748330  45.6578552  93.0723144
 135.2735327  45.6023637  92.8656766 126.1986552  51.9956359  85.0233284
 126.7839989  51.2500047  85.1561188 126.0011390  52.3060316  85.9069948
 129.0525207  55.0307607  80.0395726 128.3835582  55.5153735  79.5559766
 128.9138077  55.2776827  80.9539105 120.7904206  44.5661960  83.7437727
 120.8288306  44.0325550  84.5374845 120.2844499  44.0397165  83.1248704
 133.1930476  57.0651350  86.6378385 133.7448784  57.2282972  87.4027470
 133.5336669  57.6555788  85.9658409 128.1694969  39.4126500  87.2400269
 128.2336295  40.2741331  86.8277667 128.1062089  38.8000502  86.5072628
 127.6447241  41.4849633  90.8873304 128.2719280  41.1026710  91.5010828
 126.7875160  41.2663835  91.2528996 124.4212784  43.2926062  76.8191658
 124.7166225  42.3836740  76.7658712 123.5200820  43.2713801  76.4972661
 136.3298863  55.0133326  83.6242067 136.2050002  54.2123066  83.1153012
 136.9877954  55.5079519  83.1356037 127.9507031  41.3682058  82.8019207
 127.2293617  41.9818026  82.6626680 128.7400287  41.9039823  82.7235853
 130.7533345  38.7036485  89.0759859 131.2767746  38.9498781  89.8386168
 130.5345678  39.5356520  88.6562996 126.1500626  40.9740160  76.9430984
 125.8213332  40.0937538  76.7606089 126.5039996  40.9187828  77.8307373
 135.3980205  52.6095062  81.4525969 135.2505167  51.6811770  81.6333539
 136.2233698  52.6315153  80.9683044 129.2642449  41.2613129  77.3106461
 129.6038521  41.7899051  76.5885070 129.7114569  41.5993535  78.0865028
 131.9585890  39.6450180  86.7609529 131.6182710  38.8457993  87.1630209
 131.2524896  39.9451891  86.1886362 132.6102361  36.7299492  85.2136852
 133.4328431  36.2559971  85.0915743 132.8540425  37.5089976  85.7135539
 131.2510596  39.7587751  75.5099754 131.9718958  40.1369004  75.0063471
 130.6275900  40.4776628  75.6134732 135.3941719  40.4632900  76.4458086
 135.6105333  41.3457538  76.1446914 134.9135786  40.0719113  75.7163728
 130.1340940  43.4218613  83.0228831 129.9885521  43.7358916  83.9153112
 129.6566144  44.0403513  82.4699730 131.9937323  40.4121161  83.0709720
 131.9798892  39.5162254  82.7342018 132.7109751  40.4191825  83.7048007
 133.8463454  40.8458501  85.1162848 133.5881232  41.7675572  85.1147178
 133.3148494  40.4488936  85.8063312 124.6086602  45.9623957  85.9616492
 124.0640070  46.7383765  86.0936766 125.4865952  46.3094762  85.8035614
 131.3974219  39.2935541  78.3397291 131.5190130  38.3652188  78.5388178
 131.1076261  39.3074227  77.4275606 134.2665409  36.9790452  81.4764010
 134.2887106  37.0429785  80.5215990 134.6833468  36.1394960  81.6704517
 125.3952624  45.0893854  88.8546649 124.6534360  45.2376489  89.4411279
 125.0745369  45.3502119  87.9913398 133.3396287  54.6309832  88.6527039
 133.6483413  54.3858979  89.5249739 134.1371769  54.8356470  88.1645909
 133.3616899  56.7847742  80.8832416 132.9221889  56.2924120  81.5765272
 134.1125016  56.2420709  80.6424491 125.8409238  52.9759282  80.8857044
 126.6667258  52.6763054  80.5055687 125.4903290  52.2066905  81.3346832
 130.8090771  52.3285751  82.9554717 130.1870780  51.6656456  82.6556945
 131.4795638  52.3546883  82.2728365 124.0417843  50.8945609  81.8445977
 123.2049751  50.4667783  81.6629978 124.0141488  51.0878052  82.7816768
 130.8815299  40.8067539  92.5487223 130.9303454  41.6829662  92.1664993
 131.4237813  40.2644932  91.9758866 130.3704278  50.8789674  76.4313178
 130.5192398  51.5625138  75.7779850 131.1770721  50.8594764  76.9462633
 133.1114587  41.5598911  89.3033582 132.2417896  41.8532477  89.0316170
 133.3474067  42.1439356  90.0240846 128.1256911  46.9054852  77.4374247
 127.8802953  46.0017182  77.6354457 128.2952826  46.9072002  76.4953725
 135.8153621  37.7778528  86.8199002 136.3335565  38.5139555  86.4945491
 135.4608754  38.0842521  87.6545761 127.3952559  42.6383209  74.9360408
 126.7021803  42.7127564  74.2800444 127.1504310  41.8743553  75.4581925
 136.0666215  34.1978811  82.3399899 136.3467969  33.5302000  82.9660325
 136.8516822  34.3907906  81.8274563 133.8699684  53.3737804  73.9024925
 133.2973651  53.9927992  73.4495397 134.4432477  53.9237166  74.4364847
 134.2546482  44.7098617  71.2440978 135.2005587  44.5804825  71.3129396
 133.8760727  43.9713279  71.7210406 134.1385175  48.7616363  92.7041635
 135.0588184  48.9394962  92.8981681 134.1034758  47.8172409  92.5521334
 132.4389399  42.6348594  71.1795863 131.5320855  42.3381706  71.2558576
 132.7165380  42.3378412  70.3130149 123.3567340  43.9554957  81.6294909
 123.0370124  43.1020265  81.3369283 122.8100768  44.1703535  82.3852877
 127.1347247  46.6717398  85.3464416 127.3533257  47.6034506  85.3652450
 127.5473021  46.3125372  86.1319220 134.0551465  37.1785483  77.3340104
 133.2452193  36.8332568  77.7095350 134.7435882  36.8693027  77.9227716
 135.9842013  36.2563530  78.9564401 136.5373052  36.6758984  79.6154424
 136.2212100  35.3299278  78.9987357 132.0075112  42.2450604  94.7367165
 131.9071839  43.1944961  94.6679256 131.7896654  41.9168843  93.8643235
 131.2088184  39.4935529  71.3207842 132.0707348  39.8190427  71.5803659
 131.3938528  38.7067025  70.8080908 123.2255600  47.5757869  83.5988031
 122.5319071  47.1611821  83.0857985 123.9728591  47.6178405  83.0021450
 131.8706382  45.6747743  93.5532226 131.3873464  46.4748103  93.7596115
 131.9567322  45.6855688  92.5999670 125.1392342  47.5076122  81.4754046
 125.1163030  47.6063810  80.5235929 125.4492979  48.3541273  81.7971212
 127.7979720  49.5652277  85.5900660 128.7522974  49.5336220  85.5230592
 127.5992244  49.1042901  86.4050886 128.3879102  48.1353393  88.1571458
 129.2071991  48.6297472  88.1806295 128.6615910  47.2185362  88.1289025
 126.1529949  55.1071897  82.6070858 126.0184417  54.3472298  82.0408856
 125.7362011  55.8312797  82.1399647 129.3099075  56.0041214  82.8189301
 129.1931459  56.9486646  82.7167991 128.4891521  55.7014775  83.2075100
 123.6414016  42.4691527  88.8563655 124.2872880  41.9590481  89.3450880
 123.4331167  43.2060209  89.4307080 136.1667409  49.5372375  94.3555795
 137.0358568  49.7113027  93.9942430 135.6874160  50.3566792  94.2331525
 132.1617627  36.7331572  74.6087551 132.1496297  37.6773412  74.7655822
 133.0541049  36.5501717  74.3147012 130.3353589  56.6569476  86.0345229
 131.2380835  56.6893086  86.3511724 130.1090959  55.7269927  86.0491565
 132.0907191  55.4100462  82.6955308 131.1402822  55.4102324  82.5819680
 132.3939677  54.6633197  82.1791342 135.9769746  33.3274349  78.8633488
 135.2102142  32.7732835  79.0090170 136.3880451  33.3996217  79.7247640
 127.9811507  39.6159144  92.9538669 128.8442969  39.2595949  93.1641994
 127.4076918  39.2773039  93.6414073 136.5557238  58.3890891  82.5109314
 135.7656292  58.6448420  82.0349424 137.0468485  59.2039229  82.6161354
 134.8394941  58.6421382  84.9424305 135.0902979  59.5268392  85.2081881
 135.3754489  58.4625983  84.1699396 135.4703983  62.7912373  78.6341781
 136.3079205  63.2009382  78.4175489 135.6482250  61.8511816  78.6041975
 135.4930154  60.1303089  79.3052515 135.2954554  59.5372450  78.5803581
 134.9376818  59.8255299  80.0228453 132.0529985  61.8153284  81.4720260
 132.7401025  61.5015014  80.8841275 131.8978114  62.7194649  81.1987511
 136.8564707  56.7043481  85.9005284 136.7722896  56.0969150  85.1655694
 136.0347413  57.1952499  85.9014780 131.6297961  59.8953877  83.7437727
 131.6682060  59.3617468  84.5374845 131.1238254  59.3689083  83.1248704
 135.2606539  58.6217980  76.8191658 135.5559980  57.7128658  76.7658712
 134.3594574  58.6005719  76.4972661 136.9894380  56.3032077  76.9430984
 136.6607086  55.4229456  76.7606089 137.3433751  56.2479746  77.8307373
 135.4480357  61.2915875  85.9616492 134.9033825  62.0675683  86.0936766
 136.3259707  61.6386680  85.8035614 136.2346379  60.4185771  88.8546649
 135.4928115  60.5668407  89.4411279 135.9139123  60.6794037  87.9913398
 136.6802992  68.3051200  80.8857044 137.5061012  68.0054972  80.5055687
 136.3297044  67.5358823  81.3346832 134.8811597  66.2237527  81.8445977
 134.0443506  65.7959701  81.6629978 134.8535243  66.4169970  82.7816768
 134.1961094  59.2846875  81.6294909 133.8763878  58.4312183  81.3369283
 133.6494522  59.4995453  82.3852877 134.0649354  62.9049786  83.5988031
 133.3712825  62.4903739  83.0857985 134.8122345  62.9470323  83.0021450
 135.9786097  62.8368040  81.4754046 135.9556785  62.9355727  80.5235929
 136.2886733  63.6833191  81.7971212 136.9923703  70.4363815  82.6070858
 136.8578171  69.6764215  82.0408856 136.5755765  71.1604714  82.1399647
 134.4807771  57.7983445  88.8563655 135.1266634  57.2882399  89.3450880
 134.2724922  58.5352127  89.4307080 120.0999792  17.9344415  65.2894052
 120.0223822  18.8852241  65.3682533 119.4961435  17.5890288  65.9468979
 118.7593758  15.4445936  72.6660613 119.3101183  15.3163000  71.8937607
 117.9205234  15.7440826  72.3155505 124.9734321  17.3660774  60.4455315
 124.2996020  17.6692471  61.0540273 125.3600143  18.1689855  60.0960772
 123.1725536  17.5340447  62.6602394 123.3477292  17.0628490  63.4748017
 122.4858324  18.1606213  62.8883655 117.7386622  20.6829809  69.4342254
 117.9783220  21.3148334  70.1121273 116.8955818  20.3317849  69.7207614
 122.2514483  16.4908932  71.8383758 122.1784655  17.2963903  72.3503063
 121.8091877  16.6900898  71.0131780 122.0404263  15.7280702  65.3486580
 121.2571785  16.2702382  65.4424804 122.7397008  16.2454682  65.7480821
 124.7113167  16.3895766  73.9941917 125.4241139  17.0243231  73.9217818
 124.2203196  16.4859632  73.1781919 115.3592799  13.6726564  71.7478591
 115.9446235  12.9270252  71.8806495 115.1617637  13.9830521  72.6315254
 118.2131454  16.7077812  66.7641033 117.5441829  17.1923939  66.2805073
 118.0744323  16.9547032  67.6784411 122.3536722  18.7421555  73.3623691
 122.9055030  18.9053177  74.1272776 122.6942916  19.3325993  72.6903716
 122.5002534  16.3080037  75.3772346 122.8089660  16.0629184  76.2495045
 123.2978016  16.5126675  74.8891216 122.5223146  18.4617947  67.6077722
 122.0828136  17.9694325  68.3010579 123.2731263  17.9190914  67.3669797
 115.0015485  14.6529487  67.6102350 115.8273505  14.3533259  67.2300994
 114.6509537  13.8837110  68.0592139 113.2024090  12.5715814  68.5691284
 112.3655998  12.1437988  68.3875285 113.1747735  12.7648257  69.5062075
 115.3136196  16.7842102  69.3316165 115.1790663  16.0242503  68.7654163
 114.8968258  17.5083002  68.8644954 118.4705321  17.6811419  69.5434607
 118.3537706  18.6256851  69.4413298 117.6497768  17.3784980  69.9320407
 119.4959836  18.3339681  72.7590536 120.3987082  18.3663291  73.0757031
 119.2697206  17.4040132  72.7736872 121.2513438  17.0870667  69.4200614
 120.3009069  17.0872529  69.3064987 121.5545924  16.3403402  68.9036649
 133.7955837  22.8758634  70.4207901 133.4574349  22.7599698  69.5328436
 134.6645605  22.4749799  70.4008908 129.6542653  24.7294110  66.4104792
 129.0907518  24.6384047  65.6421080 129.5395048  23.9094015  66.8907285
 134.2775620  24.0293485  76.3794107 134.2664261  23.6346284  75.5074611
 134.4396260  23.2959558  76.9727878 127.2007085  26.2245302  69.2489013
 127.9928377  25.8836126  68.8335312 127.4403735  26.3340277  70.1691166
 135.2342212  28.3965078  61.7219257 134.5830191  28.9819158  61.3353271
 136.0286575  28.9271273  61.7814295 129.1597839  25.4854215  62.1206392
 129.9328715  24.9383202  61.9819267 129.5123238  26.3498464  62.3320853
 130.9982881  26.8130597  75.3273291 130.7072747  27.7176228  75.2119957
 131.6339866  26.8547125  76.0417361 131.9239088  24.1907446  71.9174651
 132.5202661  23.9663468  71.2031614 131.9814060  23.4492191  72.5200098
 131.4964117  21.6446881  59.7524842 131.7489637  21.1228402  58.9908305
 130.5588676  21.4813027  59.8551525 136.7117477  26.0855510  62.2588242
 136.0763310  26.1590136  62.9709146 136.3814883  26.6749109  61.5807321
 131.2160405  23.5474987  61.9549217 131.0996664  22.8719890  62.6230301
 131.3262665  23.0607361  61.1381370 133.5591946  23.0085134  65.6595906
 133.1950154  22.4815755  66.3708827 134.4159062  22.6183603  65.4862391
 135.9572767  26.4992013  72.3223085 135.6573490  27.4017052  72.2138892
 135.6123826  26.2324196  73.1744238 129.4085248  22.9505810  68.3559789
 128.4835744  22.8182024  68.5637481 129.6569661  23.7300029  68.8529731
 133.1786654  20.4932691  61.6403921 133.0586279  20.9389742  62.4789401
 132.4839243  20.8418009  61.0817459 126.7694059  22.5939083  69.1903578
 126.8986440  22.8473562  70.1042990 126.0891510  23.1866791  68.8708233
 130.9393546  33.2636333  65.2894052 130.8617576  34.2144158  65.3682533
 130.3355190  32.9182206  65.9468979 133.4310776  20.4364199  77.9455419
 132.6544110  20.9958119  77.9358284 134.0701339  20.9220982  78.4670289
 131.6857148  23.2449652  77.5073386 132.4271833  23.7834696  77.2308210
 130.9794134  23.8715941  77.6644938 137.1612488  25.3878792  76.1045548
 137.5695844  24.9461203  75.3600180 136.4389750  24.8131420  76.3579741
 133.5143558  20.3251399  73.4779105 134.3604753  20.7490813  73.6213754
 133.4542196  19.6685023  74.1717668 137.4841303  25.9479983  69.8597837
 136.8550165  26.1125697  69.1573904 137.0966965  26.3621593  70.6308801
 133.0369265  25.6854391  67.1247922 133.5007610  25.9642094  66.3352544
 132.7726063  24.7837836  66.9421012 129.9293346  25.2325873  70.0627685
 130.4994703  25.6613141  69.4245169 130.5201457  24.9508457  70.7611871
 131.9738151  21.8077543  63.9337487 132.6762194  22.2598587  64.4011413
 131.6418779  21.1661362  64.5617380 130.4218512  20.3989300  78.3088696
 129.7917173  21.0805581  78.5424093 130.3154600  20.2872382  77.3641835
 125.7163485  20.0661096  69.2354620 124.9262539  20.3218625  68.7594731
 126.2074732  20.8809434  69.3406661 127.6678230  20.4305675  66.1938097
 126.8709393  20.5424370  66.7121593 127.4403822  20.7692328  65.3278988
 133.4983898  26.9550379  74.1420612 133.5628330  27.4170786  74.9778784
 132.7894821  26.3247743  74.2702922 124.0001188  20.3191587  71.6669611
 124.2509226  21.2038596  71.9327187 124.5360736  20.1396188  70.8944703
 133.2131915  28.6218486  64.0099592 133.0777590  29.4670022  64.4384440
 133.7541728  28.8237764  63.2465526 126.6661313  26.1393924  64.5827517
 127.1785833  26.9337174  64.7333082 127.3184025  25.4420215  64.5161119
 128.4756197  29.2559680  66.6650270 128.6522826  30.1777645  66.4771254
 129.2713031  28.9418100  67.0944650 127.7608554  21.3024312  76.5412434
 127.6462069  20.4009570  76.8419532 126.9053072  21.5488009  76.1897250
 134.8400392  29.2442053  78.1399934 134.3964246  28.4578431  77.8220839
 135.5017605  29.4321203  77.4743825 129.5987513  30.7737854  72.6660613
 130.1494938  30.6454918  71.8937607 128.7598989  31.0732743  72.3155505
 133.3954684  27.0388982  77.0104844 133.9283021  26.2777270  76.7804152
 132.8668765  26.7462634  77.7528998 124.6310229  24.4682578  65.3587088
 125.4685451  24.8779587  65.1420795 124.8088497  23.5282021  65.3287282
 136.5274662  22.1357659  61.0470921 136.0121285  22.9062264  61.2859308
 136.2551970  21.4622795  61.6703982 134.7607397  26.1674974  64.5223656
 134.2328758  25.4327734  64.2096893 134.2594899  26.9449651  64.2763624
 129.8195711  18.8599102  60.9026153 128.9833024  19.1973788  61.2235427
 129.6800481  18.7248082  59.9653290 132.9059997  23.9855185  57.5258629
 131.9987058  23.7544438  57.7249778 133.4031029  23.1892804  57.7132610
 135.8128076  32.6952692  60.4455315 135.1389774  32.9984389  61.0540273
 136.1993898  33.4981772  60.0960772 135.0286532  20.1917823  69.9352984
 134.1109094  20.4132770  69.7774672 135.4446676  20.2664134  69.0764692
 135.8121580  21.5909239  65.0655665 136.5593399  22.1030636  64.7562787
 136.0813170  21.2693292  65.9260058 134.0848230  24.0867780  62.0482619
 133.1759449  23.8026812  62.1455089 134.1143314  24.5066858  61.1885926
 124.6536401  21.8073294  66.0297821 124.4560800  21.2142654  65.3048888
 124.0983065  21.5025504  66.7473760 132.6333124  21.6996400  68.1492414
 132.6881734  20.7470237  68.0734891 131.8224326  21.8555839  68.6333713
 133.7824318  25.6276523  59.3870698 133.3443748  24.9112382  58.9276335
 134.5234759  25.8552638  58.8255789 130.5725484  20.3173460  65.9082793
 129.7593350  20.6167630  66.3147985 131.0684478  19.9229149  66.6257275
 132.7234062  30.3131217  67.8417058 132.6810241  30.5392063  66.9125590
 133.6396761  30.0794591  67.9902859 136.1699696  20.7815284  74.7397687
 136.5249084  21.0086758  75.5992153 136.8171827  21.1133661  74.1174942
 130.8399863  27.1894246  67.6379021 131.6340461  26.6944566  67.4361596
 130.1291555  26.6612109  67.2746726 135.6594707  29.5712341  71.9891388
 135.7131730  30.1403278  72.7569104 134.7909489  29.7414226  71.6245425
 127.1482626  21.3337328  63.7138773 126.2180214  21.2721783  63.9308735
 127.2440098  20.8113280  62.9175415 127.0668175  17.8592140  66.3017015
 127.3274993  18.7737474  66.1926175 127.8885348  17.3916583  66.4513628
 128.5393101  19.2729898  73.4715839 129.2116154  19.0647260  72.8228488
 127.7122887  19.0751984  73.0321072 134.6182807  23.7372603  73.5478320
 135.5474867  23.8883763  73.3747287 134.1973837  23.8256624  72.6926967
 133.4171139  27.7623268  71.3176858 133.2782224  27.3942052  72.1902796
 132.6285735  28.2770907  71.1460815 134.0119291  32.8632364  62.6602394
 134.1871046  32.3920408  63.4748017 133.3252079  33.4898131  62.8883655
 134.9676354  27.1404871  68.7065695 134.6326187  27.1005641  69.6023345
 134.4680300  26.4749586  68.2336106 128.9420598  22.5472501  74.2318277
 128.8040396  21.8152739  74.8329816 129.8525521  22.4581401  73.9502464
 131.5702899  22.2592460  73.7201956 132.2802517  21.6185652  73.6788575
 131.5272207  22.5105355  74.6428137 130.2831833  19.2457678  75.5397596
 129.7469190  18.7948416  76.1919192 129.6948541  19.3803587  74.7968060
 128.5780376  36.0121727  69.4342254 128.8176974  36.6440251  70.1121273
 127.7349573  35.6609767  69.7207614 129.6934091  18.7046329  58.1024059
 128.8163558  18.5835130  57.7386306 130.1691845  17.9132408  57.8502948
 121.2136232  23.4923489  68.1965567 121.9007271  23.1785219  67.6086582
 121.0584360  24.3964854  67.9232818 126.0170954  18.3813686  72.6250590
 125.9329142  17.7739355  71.8901000 125.1953660  18.8722704  72.6260087
 133.0908238  31.8200850  71.8383758 133.0178409  32.6255821  72.3503063
 132.6485631  32.0192815  71.0131780 132.8798018  31.0572620  65.3486580
 132.0965539  31.5994300  65.4424804 133.5790763  31.5746599  65.7480821
 135.5506921  31.7187684  73.9941917 136.2634894  32.3535148  73.9217818
 135.0596950  31.8151550  73.1781919 137.2724448  25.6238936  65.5659209
 136.3380727  25.7440399  65.3963913 137.4501117  24.7211403  65.3019219
 130.6018835  29.4682127  74.8147488 131.3028294  30.1018610  74.9676882
 130.1313950  29.8096859  74.0543127 135.3627295  32.0586428  66.7428208
 135.5449689  31.2408084  67.2055961 136.1860281  32.2754120  66.3053098
 135.6969460  30.9854613  64.0043257 136.2257227  30.4747067  63.3913419
 135.9597680  30.6697143  64.8688790 134.4507694  22.7646546  79.1266075
 133.7748331  22.6640675  79.7968450 135.2735328  22.6085759  79.5902072
 126.1986553  29.0018482  71.7478591 126.7839990  28.2562170  71.8806495
 126.0011391  29.3122439  72.6315254 129.0525208  32.0369729  66.7641033
 128.3835583  32.5215857  66.2805073 128.9138078  32.2838950  67.6784411
 120.7904208  21.5724082  70.4683034 120.8288307  21.0387673  71.2620152
 120.2844501  21.0459288  69.8494011 133.1930477  34.0713473  73.3623691
 133.7448785  34.2345095  74.1272776 133.5336670  34.6617911  72.6903716
 127.6447243  18.4911755  77.6118610 128.2719281  18.1088833  78.2256135
 126.7875161  18.2725957  77.9774303 124.4212785  20.2988184  63.5436965
 124.7166226  19.3898863  63.4904019 123.5200821  20.2775924  63.2217967
 136.3298864  32.0195449  70.3487373 136.2050004  31.2185188  69.8398319
 136.9877955  32.5141642  69.8601343 127.9507032  18.3744181  69.5264514
 127.2293618  18.9880149  69.3871987 128.7400288  18.9101946  69.4481160
 126.1500627  17.9802282  63.6676290 125.8213333  17.0999661  63.4851396
 126.5039998  17.9249951  64.5552679 135.3980206  29.6157185  68.1771276
 135.2505168  28.6873892  68.3578846 136.2233699  29.6377276  67.6928351
 129.2642450  18.2675252  64.0351768 129.6038523  18.7961173  63.3130376
 129.7114571  18.6055658  64.8110334 130.1340941  20.4280736  69.7474138
 129.9885522  20.7421039  70.6398419 129.6566145  21.0465636  69.1945036
 124.6086604  22.9686080  72.6861799 124.0640072  23.7445888  72.8182073
 125.4865954  23.3156885  72.5280920 125.3952626  22.0955976  75.5791956
 124.6534362  22.2438612  76.1656586 125.0745370  22.3564242  74.7158705
 133.3396288  31.6371955  75.3772346 133.6483415  31.3921101  76.2495045
 134.1371770  31.8418593  74.8891216 133.3616900  33.7909864  67.6077722
 132.9221890  33.2986243  68.3010579 134.1125017  33.2482832  67.3669797
 125.8409239  29.9821405  67.6102350 126.6667259  29.6825177  67.2300994
 125.4903291  29.2129028  68.0592139 130.8090772  29.3347873  69.6800024
 130.1870782  28.6718578  69.3802252 131.4795639  29.3609005  68.9973672
 124.0417844  27.9007732  68.5691284 123.2049753  27.4729906  68.3875285
 124.0141490  28.0940175  69.5062075 130.3704279  27.8851797  63.1558484
 130.5192400  28.5687261  62.5025157 131.1770723  27.8656887  63.6707940
 128.1256912  23.9116974  64.1619553 127.8802954  23.0079304  64.3599763
 128.2952827  23.9134125  63.2199031 127.3952560  19.6445332  61.6605715
 126.7021805  19.7189687  61.0045751 127.1504312  18.8805676  62.1827232
 133.8699685  30.3799927  60.6270232 133.2973652  30.9990114  60.1740704
 134.4432478  30.9299289  61.1610154 134.2546483  21.7160740  57.9686284
 135.2005588  21.5866948  58.0374702 133.8760728  20.9775402  58.4455712
 134.1385176  25.7678486  79.4286941 135.0588185  25.9457085  79.6226988
 134.1034759  24.8234531  79.2766641 132.4389400  19.6410716  57.9041170
 131.5320856  19.3443829  57.9803883 132.7165381  19.3440534  57.0375456
 123.3567341  20.9617080  68.3540216 123.0370125  20.1082388  68.0614590
 122.8100769  21.1765658  69.1098183 127.1347248  23.6779521  72.0709722
 127.3533258  24.6096628  72.0897756 127.5473022  23.3187495  72.8564526
 132.0075114  19.2512726  81.4612471 131.9071841  20.2007083  81.3924562
 131.7896656  18.9230965  80.5888541 123.2255601  24.5819991  70.3233338
 122.5319072  24.1673944  69.8103292 123.9728592  24.6240528  69.7266756
 131.8706384  22.6809865  80.2777533 131.3873465  23.4810225  80.4841422
 131.9567323  22.6917810  79.3244977 125.1392343  24.5138245  68.1999352
 125.1163031  24.6125932  67.2481236 125.4492980  25.3603396  68.5216519
 127.7979721  26.5714400  72.3145967 128.7522975  26.5398342  72.2475898
 127.5992245  26.1105024  73.1296193 128.3879103  25.1415516  74.8816764
 129.2071992  25.6359595  74.9051602 128.6615911  24.2247484  74.8534332
 126.1529950  32.1134019  69.3316165 126.0184418  31.3534420  68.7654163
 125.7362012  32.8374919  68.8644954 129.3099076  33.0103336  69.5434607
 129.1931460  33.9548769  69.4413298 128.4891522  32.7076898  69.9320407
 123.6414018  19.4753650  75.5808962 124.2872881  18.9652604  76.0696187
 123.4331169  20.2122332  76.1552387 136.1667410  26.5434497  81.0801102
 137.0358569  26.7175150  80.7187737 135.6874161  27.3628914  80.9576831
 130.3353590  33.6631598  72.7590536 131.2380837  33.6955209  73.0757031
 130.1090960  32.7332049  72.7736872 132.0907192  32.4162585  69.4200614
 131.1402823  32.4164447  69.3064987 132.3939678  31.6695319  68.9036649
 136.5557239  35.3953014  69.2354620 135.7656293  35.6510542  68.7594731
 137.0468486  36.2101352  69.3406661 134.8394942  35.6483504  71.6669611
 135.0902980  36.5330514  71.9327187 135.3754490  35.4688106  70.8944703
 135.4703984  39.7974496  65.3587088 136.3079206  40.2071504  65.1420795
 135.6482252  38.8573938  65.3287282 135.4930155  37.1365211  66.0297821
 135.2954555  36.5434572  65.3048888 134.9376819  36.8317422  66.7473760
 132.0529986  38.8215407  68.1965567 132.7401026  38.5077137  67.6086582
 131.8978115  39.7256771  67.9232818 136.8564708  33.7105603  72.6250590
 136.7722897  33.1031273  71.8901000 136.0347415  34.2014621  72.6260087
 131.6297962  36.9016000  70.4683034 131.6682062  36.3679591  71.2620152
 131.1238255  36.3751205  69.8494011 135.2606540  35.6280102  63.5436965
 135.5559981  34.7190781  63.4904019 134.3594576  35.6067842  63.2217967
 136.9894381  33.3094200  63.6676290 136.6607088  32.4291579  63.4851396
 137.3433752  33.2541868  64.5552679 135.4480358  38.2977998  72.6861799
 134.9033826  39.0737806  72.8182073 136.3259708  38.6448802  72.5280920
 136.2346380  37.4247894  75.5791956 135.4928116  37.5730529  76.1656586
 135.9139124  37.6856160  74.7158705 136.6802994  45.3113323  67.6102350
 137.5061014  45.0117095  67.2300994 136.3297046  44.5420945  68.0592139
 134.8811599  43.2299649  68.5691284 134.0443507  42.8021824  68.3875285
 134.8535244  43.4232093  69.5062075 134.1961095  36.2908997  68.3540216
 133.8763880  35.4374306  68.0614590 133.6494523  36.5057575  69.1098183
 134.0649355  39.9111909  70.3233338 133.3712827  39.4965862  69.8103292
 134.8122346  39.9532445  69.7266756 135.9786098  39.8430163  68.1999352
 135.9556786  39.9417850  67.2481236 136.2886734  40.6895313  68.5216519
 136.9923704  47.4425937  69.3316165 136.8578172  46.6826338  68.7654163
 136.5755767  48.1666837  68.8644954 134.4807772  34.8045568  75.5808962
 135.1266636  34.2944522  76.0696187 134.2724923  35.5414249  76.1552387
 136.6802995  22.3175445  54.3347657 137.5061015  22.0179217  53.9546300
 136.3297047  21.5483068  54.7837446 134.8811600  20.2361772  55.2936590
 134.0443508  19.8083946  55.1120592 134.8535245  20.4294215  56.2307382
 136.9923706  24.4488060  56.0561471 136.8578174  23.6888461  55.4899469
 136.5755768  25.1728960  55.5890260  37.6798414  74.3840836 141.3747414
  37.0286394  74.9694917 140.9881428  38.4742777  74.9147031 141.4342452
  43.9465138  70.8765772 142.6352251  43.1694580  70.5376932 142.1907413
  44.6256619  70.8818395 141.9607216  35.3516199  69.9730943 137.1786786
  34.4443261  69.7420197 137.3777935  35.8487231  69.1768562 137.3660768
  38.2584278  78.6828450 140.0983472  37.5845976  78.9860147 140.7068430
  38.6450100  79.4857531 139.7488929  36.2280520  71.6152282 139.0398855
  35.7899950  70.8988141 138.5804492  36.9690961  71.8428396 138.4783946
  36.4575493  78.8508123 142.3130551  36.6327248  78.3796166 143.1276174
  35.7708281  79.4773889 142.5411812  40.3491748  70.4736663 138.6330912
  39.7320918  69.7483491 138.5363965  39.8808236  71.2346024 138.2897986
  41.1729433  73.7975835 142.7523552  41.4489277  73.6832430 143.6617426
  40.3033932  73.3993320 142.7135725  38.1425662  76.9730371 143.6571414
  38.6713429  76.4622826 143.0441576  38.4053882  76.6572901 144.5216947
  41.2365846  76.9447169 144.2726397  41.4102723  76.3793592 143.5200250
  41.7294737  77.7448064 144.0905887  42.2241018  76.2613934 141.3723295
  42.9191923  76.8820626 141.5910610  42.5664169  75.4109285 141.6475673
  44.1232441  73.7113639 142.9010626  44.6483766  74.0500912 142.1759946
  44.0354794  72.7760655 142.7173761  36.3155887  76.3675685 140.2798389
  35.7429854  76.9865873 139.8268861  36.8888680  76.9175047 140.8138311
  39.5353147  76.6512836 141.4106971  40.4683820  76.5858397 141.6139847
  39.4476359  77.4869102 140.9521504  42.1641163  75.9678706 138.3710919
  42.0854795  75.6338570 139.2646677  42.9850830  76.4600474 138.3702391
  36.7002685  67.7036498 137.6214441  37.6461790  67.5742706 137.6902859
  36.3216930  66.9651160 138.0983870  39.7345115  73.2846701 137.9920897
  40.4380965  73.4896704 138.6078553  39.0107764  73.8523463 138.2569981
  41.6431812  73.7229231 140.0419357  42.4777416  73.2910429 139.8596832
  41.4816155  73.5511244 140.9696252  41.2977705  70.2261344 141.4075696
  41.2426508  70.0605615 140.4664141  40.6723760  70.9337377 141.5637886
  50.2716088  84.2398882 150.1374534  50.9094498  84.1205629 149.4337874
  50.1536930  85.1879726 150.1962486  47.0805794  84.1926310 150.0736059
  46.7424305  84.0767374 149.1856593  47.9495562  83.7917475 150.0537065
  42.9392610  86.0461786 146.0632950  42.3757475  85.9551723 145.2949237
  42.8245005  85.2261691 146.5435442  48.5192168  89.7132754 141.3747414
  47.8680148  90.2986834 140.9881428  49.3136531  90.2438949 141.4342452
  42.4447795  86.8021891 141.7734549  43.2178671  86.2550878 141.6347425
  42.7973194  87.6666140 141.9849010  45.2089045  85.5075122 151.5702808
  45.8052617  85.2831144 150.8559771  45.2664016  84.7659867 152.1728256
  44.7814073  82.9614557 139.4052999  45.0339594  82.4396078 138.6436462
  43.8438632  82.7980703 139.5079682  49.8257356  81.9650335 147.2127742
  50.6120445  81.5469759 146.8618159  50.0896060  82.8696428 147.3809390
  49.9967433  87.4023186 141.9116399  49.3613266  87.4757812 142.6237303
  49.6664840  87.9916785 141.2335478  55.2265783  81.9025569 148.1160720
  55.9590955  81.3324786 148.3498550  54.4705139  81.5147169 148.5567226
  44.5010362  84.8642663 141.6077374  44.3846620  84.1887566 142.2758458
  44.6112622  84.3775037 140.7909527  46.8441903  84.3252810 145.3124063
  46.4800110  83.7983431 146.0236984  47.7009019  83.9351279 145.1390548
  46.4847390  79.3542710 140.3085411  46.6521792  80.2222946 140.6755882
  46.2944559  79.5169992 139.3846701  42.6935205  84.2673486 148.0087946
  41.7685701  84.1349700 148.2165638  42.9419618  85.0467705 148.5057889
  52.6419867  80.3342229 149.6548679  51.7336744  80.2657637 149.3607440
  52.5907463  80.8114174 150.4830505  46.4636611  81.8100367 141.2932078
  46.3436236  82.2557418 142.1317559  45.7689199  82.1585685 140.7345616
  44.2243503  94.5804009 144.9422209  44.1467533  95.5311834 145.0210690
  43.6205146  94.2349882 145.5997136  54.5081513  78.5358667 151.4326553
  53.8655893  78.8291201 150.7866348  54.0036442  78.4211588 152.2379750
  52.1621677  82.2821841 142.1212412  53.0739533  82.5149227 141.9460110
  51.6531324  82.8658885 141.5587491  46.3219221  87.0022067 146.7776079
  46.7857567  87.2809770 145.9880701  46.0576019  86.1005512 146.5949170
  43.2143302  86.5493549 149.7155842  43.7844659  86.9780817 149.0773327
  43.8051414  86.2676133 150.4140028  45.2588107  83.1245219 143.5865644
  45.9612150  83.5766263 144.0539570  44.9268736  82.4829038 144.2145537
  40.9528186  81.7473351 145.8466254  40.1559350  81.8592046 146.3649750
  40.7253779  82.0860004 144.9807145  46.4981872  89.9386162 143.6627749
  46.3627547  90.7837698 144.0912597  47.0391684  90.1405440 142.8993683
  39.9511269  87.4561600 144.2355674  40.4635790  88.2504850 144.3861239
  40.6033982  86.7587891 144.1689276  37.9160186  85.7850254 145.0115245
  38.7535408  86.1947263 144.7948953  38.0938454  84.8449697 144.9815439
  49.8124618  83.4525335 140.6999078  49.2971241  84.2229940 140.9387465
  49.5401926  82.7790471 141.3232139  47.3971729  78.2975036 145.7584316
  46.5413325  77.9081886 145.5789955  47.8098681  78.3766997 144.8984102
  54.7858892  86.2057690 142.6352251  54.0088335  85.8668849 142.1907413
  55.4650373  86.2110313 141.9607216  49.6010921  81.3252427 142.5258859
  49.2961057  81.6398576 143.3769002  50.5541363  81.4033847 142.5686192
  48.0457353  87.4842651 144.1751813  47.5178715  86.7495410 143.8625050
  47.5444856  88.2617327 143.9291781  42.7776081  78.1462317 146.5358424
  43.3519833  77.9237498 145.8031617  43.3647063  78.2151011 147.2887026
  51.8355658  84.0336044 147.3422801  52.3487540  84.6666036 147.8444511
  52.4856882  83.4337239 146.9766161  43.1045668  80.1766778 140.5554310
  42.2682980  80.5141464 140.8763584  42.9650437  80.0415758 139.6181447
  45.0798748  75.0203566 145.2633494  44.4263161  74.7052583 144.6390109
  45.0379223  74.3979306 145.9893317  46.1909953  85.3022861 137.1786786
  45.2837015  85.0712114 137.3777935  46.6880985  84.5060480 137.3660768
  49.0978032  94.0120368 140.0983472  48.4239731  94.3152065 140.7068430
  49.4843854  94.8149448 139.7488929  48.3136489  81.5085499 149.5881142
  47.3959050  81.7300446 149.4302830  48.7296632  81.5831810 148.7292849
  49.0971537  82.9076915 144.7183822  49.8443355  83.4198312 144.4090944
  49.3663126  82.5860968 145.5788215  47.3698187  85.4035456 141.7010776
  46.4609406  85.1194488 141.7983246  47.3993270  85.8234534 140.8414083
  52.6017454  89.0142045 145.4701944  52.1479781  88.1732955 145.5267134
  51.9711421  89.6503444 145.8076724  51.5450374  79.9434031 146.7002611
  50.8073130  79.4311417 147.0312854  51.7977147  79.5034413 145.8885888
  51.0450393  90.8518542 146.4051762  51.3373368  91.4123599 145.6864127
  51.5549014  91.1447103 147.1604921  51.6462001  72.7210283 147.2944380
  51.9520878  71.8607647 147.0070295  52.3714606  73.3127903 147.0943374
  37.9386357  83.1240970 145.6825978  37.7410757  82.5310330 144.9577045
  37.3833021  82.8193180 146.4001917  45.9183081  83.0164076 147.8020571
  45.9731691  82.0637913 147.7263048  45.1074283  83.1723515 148.2861870
  47.0674274  86.9444199 139.0398855  46.6293704  86.2280058 138.5804492
  47.8084715  87.1720314 138.4783946  43.8575441  81.6341136 145.5610950
  43.0443306  81.9335307 145.9676142  44.3534435  81.2396825 146.2785433
  46.0084019  91.6298893 147.4945215  45.9660197  91.8559739 146.5653747
  46.9246717  91.3962268 147.6431016  55.1847389  85.2201396 145.0975173
  55.0465288  85.4102992 144.1696362  54.8283608  85.9820779 145.5543224
  44.1249819  88.5061922 147.2907178  44.9190418  88.0112242 147.0889753
  43.4141512  87.9779785 146.9274883  40.4332583  82.6505004 143.3666930
  39.5030171  82.5889459 143.5836892  40.5290055  82.1280956 142.5703572
  40.3518132  79.1759817 145.9545172  40.6124949  80.0905150 145.8454332
  41.1735304  78.7084259 146.1041785  47.2969247  94.1800040 142.3130551
  47.4721003  93.7088084 143.1276174  46.6102035  94.8065807 142.5411812
  48.2526310  88.4572547 148.3593853  47.9176143  88.4173317 149.2551502
  47.7530256  87.7917263 147.8864263  51.1885502  85.8028581 138.6330912
  50.5714673  85.0775409 138.5363965  50.7201991  86.5637941 138.2897986
  42.9784048  80.0214005 137.7552216  42.1013514  79.9002806 137.3914463
  43.4541801  79.2300084 137.5031105  46.1647974  92.3740296 145.0014737
  45.3815496  92.9161976 145.0952962  46.8640719  92.8914275 145.4008978
  49.4744624  78.1834925 147.6448942  49.9713324  77.4304887 147.3250013
  48.7031606  78.2199242 147.0792152  50.5574405  86.9406612 145.2187366
  49.6230684  87.0608075 145.0492070  50.7351073  86.0379079 144.9547376
  46.0579593  80.3252308 147.3720627  45.6877380  79.7723348 148.0601533
  46.5538685  79.7210442 146.8195627  53.9446956  82.7823932 145.7537400
  54.4107408  83.6151923 145.6797703  54.3954457  82.3168913 146.4582658
  52.0123187  89.1267753 142.7523552  52.2883031  89.0124347 143.6617426
  51.1427686  88.7285238 142.7135725  48.6477251  93.3754104 146.3956366
  48.8299646  92.5575760 146.8584118  49.4710237  93.5921796 145.9581256
  48.9819417  92.3022289 143.6571414  49.5107183  91.7914743 143.0441576
  49.2447636  91.9864819 144.5216947  37.7062742  81.6155861 143.1965122
  38.0016183  80.7066539 143.1432176  36.8050778  81.5943600 142.8746125
  39.4350583  79.2969958 143.3204447  39.1063290  78.4167337 143.1379553
  39.7889954  79.2417627 144.2080837  48.6830162  90.9324861 147.8299433
  48.5355125  90.0041568 148.0107003  49.5083656  90.9544952 147.3456508
  42.5492407  79.5842928 143.6879925  42.8888479  80.1128849 142.9658533
  42.9964527  79.9223334 144.4638492  44.5360554  78.0817550 141.8873218
  45.2568916  78.4598802 141.3836935  43.9125858  78.8006426 141.9908196
  48.6791677  78.7862699 142.8231550  48.8955291  79.6687336 142.5220378
  48.1985744  78.3948912 142.0937192  52.0759600  92.2739087 144.2726397
  52.2496478  91.7085510 143.5200250  52.5688492  93.0739982 144.0905887
  44.6824177  77.6165340 144.7170754  44.8040088  76.6881986 144.9161642
  44.3926219  77.6304026 143.8049070  57.9298992  85.0375510 145.8916697
  58.3730138  84.2882835 145.4935820  57.0525502  85.0285646 145.5090429
  53.0634773  91.5905851 141.3723295  53.7585677  92.2112544 141.5910610
  53.4057923  90.7401203 141.6475673  54.9626196  89.0405557 142.9010626
  55.4877520  89.3792830 142.1759946  54.8748549  88.1052572 142.7173761
  43.6554236  89.2019473 142.8086642  43.8042356  89.8854937 142.1553314
  44.4620679  89.1824563 143.3236097  41.4106869  85.2284650 143.8147710
  41.1652911  84.3246980 144.0127921  41.5802783  85.2301801 142.8727188
  40.6802516  80.9613008 141.3133872  39.9871761  81.0357363 140.6573908
  40.4354268  80.1973352 141.8355389  47.1549641  91.6967603 140.2798389
  46.5823608  92.3157790 139.8268861  47.7282435  92.2466965 140.8138311
  50.3746901  91.9804753 141.4106971  51.3077574  91.9150315 141.6139847
  50.2870114  92.8161020 140.9521504  53.0034918  91.2970624 138.3710919
  52.9248549  90.9630487 139.2646677  53.8244585  91.7892392 138.3702391
  47.5396440  83.0328416 137.6214441  48.4855545  82.9034624 137.6902859
  47.1610685  82.2943078 138.0983870  53.5118324  74.6984422 147.5841333
  53.3143145  74.3899510 148.4684665  54.1218030  75.4246061 147.7139263
  45.7239357  80.9578392 137.5569327  44.8170812  80.6611505 137.6332040
  46.0015338  80.6608210 136.6903613  47.3401423  75.5015282 143.7113568
  46.5302151  75.1562367 144.0868814  48.0285840  75.1922826 144.3001179
  49.2691971  74.5793329 145.3337865  49.8223010  74.9988782 145.9927888
  49.5062057  73.6529077 145.3760821  44.4938142  77.8165328 137.6981306
  45.3557306  78.1420226 137.9577123  44.6788486  77.0296823 137.1854372
  52.6470778  76.6893854 144.8416529  52.0669447  77.3478658 144.4594581
  52.3806711  75.8671199 144.4303946  51.0974344  76.0898912 147.0437849
  51.5974123  76.2015446 146.2352168  51.7409952  75.7859965 147.6838658
  51.4295656  78.8493944 143.8972877  50.5421511  79.1343595 143.6793072
  51.8449645  78.6887708 143.0500154  54.7810192  78.8740465 147.6127216
  55.5570582  79.3636918 147.8851833  54.0558326  79.2998520 148.0699086
  57.2182751  79.5868085 148.6701157  57.8127242  79.3463821 147.9594465
  57.2909335  78.8675215 149.2974693  50.5738870  88.6138619 137.9920897
  51.2774720  88.8188622 138.6078553  49.8501518  89.1815381 138.2569981
  51.4036680  84.3648480 144.1123167  51.3471881  84.8217032 143.2730800
  51.9565022  83.6039165 143.9346010  55.2141486  80.1538212 144.9373287
  54.9578420  79.7534848 145.7681494  54.5894354  80.8682006 144.8123426
  59.5253824  82.8934285 147.4444578  58.9653382  82.9627475 148.2176140
  58.9197327  82.7175270 146.7244074  52.4825567  89.0521148 140.0419357
  53.3171171  88.6202347 139.8596832  52.3209910  88.8803162 140.9696252
  52.1371459  85.5553262 141.4075696  52.0820263  85.3897533 140.4664141
  51.5117514  86.2629294 141.5637886  45.4467585  75.0561371 140.9861015
  45.4346254  76.0003210 141.1429286  46.3391006  74.8731516 140.6920476
  49.2619704  71.6504147 145.2406952  48.4952100  71.0962634 145.3863634
  49.6730409  71.7226016 146.1021103  55.6207828  98.2906475 139.4052999
  55.8733348  97.7687996 138.6436462  54.6832387  98.1272620 139.5079682
  57.3241144  94.6834628 140.3085411  57.4915547  95.5514864 140.6755882
  57.1338313  94.8461909 139.3846701  53.9439422  95.5058695 140.5554310
  53.1076735  95.8433382 140.8763584  53.8044192  95.3707675 139.6181447
  55.9192503  90.3495483 145.2633494  55.2656915  90.0344501 144.6390109
  55.8772977  89.7271224 145.9893317  57.0303708 100.6314778 137.1786786
  56.1230769 100.4004032 137.3777935  57.5274740  99.8352398 137.3660768
  51.2726337  97.9796921 143.3666930  50.3423925  97.9181377 143.5836892
  51.3683809  97.4572874 142.5703572  53.8177803  95.3505923 137.7552216
  52.9407269  95.2294724 137.3914463  54.2935556  94.5592001 137.5031105
  48.5456496  96.9447778 143.1965122  48.8409937  96.0358457 143.1432176
  47.6444532  96.9235518 142.8746125  50.2744338  94.6261876 143.3204447
  49.9457044  93.7459255 143.1379553  50.6283709  94.5709545 144.2080837
  55.3754308  93.4109467 141.8873218  56.0962671  93.7890720 141.3836935
  54.7519612  94.1298344 141.9908196  55.5217931  92.9457258 144.7170754
  55.6433843  92.0173904 144.9161642  55.2319974  92.9595944 143.8049070
  51.5196271  96.2904926 141.3133872  50.8265516  96.3649281 140.6573908
  51.2748023  95.5265269 141.8355389  58.3790194  98.3620334 137.6214441
  59.3249299  98.2326542 137.6902859  58.0004439  97.6234995 138.0983870
  56.5633111  96.2870310 137.5569327  55.6564567  95.9903423 137.6332040
  56.8409092  95.9900128 136.6903613  58.1795177  90.8307200 143.7113568
  57.3695905  90.4854285 144.0868814  58.8679594  90.5214743 144.3001179
  55.3331896  93.1457245 137.6981306  56.1951060  93.4712143 137.9577123
  55.5182240  92.3588741 137.1854372  56.2861339  90.3853288 140.9861015
  56.2740009  91.3295128 141.1429286  57.1784761  90.2023434 140.6920476
  60.1013459  86.9796065 145.2406952  59.3345854  86.4254552 145.3863634
  60.5124164  87.0517934 146.1021103  37.6798415  51.3902959 128.0992721
  37.0286395  51.9757039 127.7126735  38.4742778  51.9209154 128.1587759
  43.9465139  47.8827895 129.3597558  43.1694582  47.5439054 128.9152720
  44.6256620  47.8880518 128.6852523  35.3516200  46.9793066 123.9032093
  34.4443262  46.7482319 124.1023242  35.8487232  46.1830685 124.0906074
  38.2584279  55.6890573 126.8228779  37.5845978  55.9922270 127.4313737
  38.6450101  56.4919653 126.4734236  36.2280521  48.6214404 125.7644161
  35.7899951  47.9050263 125.3049799  36.9690962  48.8490519 125.2029253
  36.4575494  55.8570245 129.0375858  36.6327250  55.3858288 129.8521481
  35.7708282  56.4836012 129.2657119  40.3491749  47.4798786 125.3576219
  39.7320920  46.7545614 125.2609272  39.8808237  48.2408146 125.0143293
  41.1729434  50.8037958 129.4768859  41.4489278  50.6894552 130.3862733
  40.3033933  50.4055443 129.4381032  38.1425664  53.9792494 130.3816721
  38.6713430  53.4684948 129.7686883  38.4053883  53.6635024 131.2462254
  41.2365847  53.9509292 130.9971704  41.4102725  53.3855714 130.2445556
  41.7294738  54.7510187 130.8151194  42.2241020  53.2676056 128.0968602
  42.9191924  53.8882749 128.3155917  42.5664170  52.4171408 128.3720980
  44.1232443  50.7175762 129.6255933  44.6483767  51.0563035 128.9005253
  44.0354795  49.7822777 129.4419067  36.3155888  53.3737808 127.0043696
  35.7429855  53.9927995 126.5514167  36.8888682  53.9237170 127.5383617
  39.5353148  53.6574958 128.1352278  40.4683821  53.5920520 128.3385153
  39.4476361  54.4931225 127.6766810  42.1641165  52.9740829 125.0956225
  42.0854796  52.6400692 125.9891983  42.9850831  53.4662596 125.0947698
  36.7002687  44.7098621 124.3459748  37.6461791  44.5804829 124.4148166
  36.3216932  43.9713283 124.8229176  39.7345116  50.2908824 124.7166204
  40.4380966  50.4958826 125.3323859  39.0107765  50.8585586 124.9815287
  41.6431814  50.7291353 126.7664664  42.4777418  50.2972552 126.5842139
  41.4816157  50.5573367 127.6941558  41.2977706  47.2323466 128.1321003
  41.2426510  47.0667738 127.1909447  40.6723761  47.9399499 128.2883193
  50.2716089  61.2461004 136.8619841  50.9094499  61.1267752 136.1583181
  50.1536932  62.1941848 136.9207793  47.0805795  61.1988432 136.7981365
  46.7424307  61.0829497 135.9101900  47.9495563  60.7979597 136.7782371
  42.9392611  63.0523909 132.7878256  42.3757476  62.9613846 132.0194544
  42.8245006  62.2323813 133.2680749  40.4857043  64.5475100 135.6262477
  41.2778335  64.2065925 135.2108776  40.7253693  64.6570075 136.5464630
  48.5192170  66.7194876 128.0992721  47.8680149  67.3048957 127.7126735
  49.3136532  67.2501071 128.1587759  42.4447797  63.8084014 128.4979855
  43.2178673  63.2613001 128.3592731  42.7973196  64.6728263 128.7094317
  45.2089046  62.5137244 138.2948114  45.8052618  62.2893267 137.5805077
  45.2664018  61.7721990 138.8973562  44.7814074  59.9676680 126.1298305
  45.0339595  59.4458201 125.3681768  43.8438634  59.8042825 126.2324989
  49.8257357  58.9712458 133.9373049  50.6120447  58.5531881 133.5863466
  50.0896062  59.8758550 134.1054697  49.9967435  64.4085308 128.6361705
  49.3613268  64.4819935 129.3482610  49.6664841  64.9978907 127.9580785
  55.2265784  58.9087691 134.8406027  55.9590956  58.3386908 135.0743857
  54.4705140  58.5209292 135.2812533  44.5010363  61.8704786 128.3322680
  44.3846621  61.1949689 129.0003765  44.6112623  61.3837160 127.5154833
  46.8441904  61.3314933 132.0369370  46.4800111  60.8045554 132.7482291
  47.7009020  60.9413402 131.8635855  46.4847391  56.3604832 127.0330718
  46.6521793  57.2285069 127.4001189  46.2944560  56.5232114 126.1092007
  49.2422724  64.8221811 138.6996548  48.9423447  65.7246850 138.5912356
  48.8973784  64.5553995 139.5517701  42.6935206  61.2735608 134.7333253
  41.7685702  61.1411822 134.9410945  42.9419619  62.0529827 135.2303195
  52.6419868  57.3404352 136.3793986  51.7336745  57.2719760 136.0852747
  52.5907464  57.8176297 137.2075811  46.4636612  58.8162490 128.0177385
  46.3436237  59.2619541 128.8562865  45.7689200  59.1647808 127.4590923
  40.0544017  60.9168882 135.5677042  40.1836398  61.1703361 136.4816454
  39.3741468  61.5096590 135.2481697  44.2243504  71.5866132 131.6667516
  44.1467534  72.5373957 131.7455997  43.6205148  71.2412004 132.3242442
  54.5081515  55.5420790 138.1571860  53.8655895  55.8353323 137.5111654
  54.0036443  55.4273710 138.9625056  52.1621678  59.2883963 128.8457719
  53.0739534  59.5211350 128.6705416  51.6531325  59.8721007 128.2832798
  50.7691260  64.2709782 136.2371300  50.1400123  64.4355496 135.5347368
  50.3816923  64.6851391 137.0082264  54.6480492  65.2064219 133.5915664
  53.9631531  65.5863121 133.0412697  54.7324342  65.8159546 134.3247612
  51.9031424  62.8524178 140.1911008  52.1148319  63.4955938 139.5145389
  51.8561172  62.0186495 139.7232938  46.3219222  64.0084190 133.5021385
  46.7857568  64.2871893 132.7126008  46.0576020  63.1067634 133.3194476
  43.2143303  63.5555671 136.4401149  43.7844660  63.9842940 135.8018633
  43.8051415  63.2738256 137.1385334  45.2588108  60.1307342 130.3110951
  45.9612152  60.5828386 130.7784877  44.9268737  59.4891161 130.9390844
  53.0177252  65.7296134 138.3633365  53.8394696  65.3276321 138.0816047
  53.0139655  65.6264368 139.3149481  40.9528188  58.7535474 132.5711561
  40.1559351  58.8654168 133.0895057  40.7253780  59.0922126 131.7052451
  46.7833855  65.2780177 140.5194076  46.8478288  65.7400584 141.3552247
  46.0744779  64.6477542 140.6476385  61.1083245  62.0734882 134.7118336
  60.3546953  61.5042280 134.5562341  61.2430786  62.0397547 135.6588971
  46.4981873  66.9448285 130.3873056  46.3627548  67.7899820 130.8157904
  47.0391686  67.1467562 129.6238990  39.9511270  64.4623723 130.9600981
  40.4635791  65.2566973 131.1106546  40.6033983  63.7650013 130.8934582
  41.7606155  67.5789479 133.0423734  41.9372783  68.5007444 132.8544718
  42.5562989  67.2647898 133.4718114  42.8837471  69.0967653 139.0434076
  43.4344896  68.9684716 138.2711070  42.0448946  69.3962542 138.6928969
  50.2231587  67.8474651 142.5454799  50.2050063  68.6683532 142.0535068
  51.1451508  67.7228726 142.7704940  37.9160187  62.7912377 131.7360551
  38.7535409  63.2009385 131.5194259  38.0938455  61.8511819 131.7060745
  49.8124619  60.4587458 127.4244384  49.2971243  61.2292062 127.6632772
  49.5401928  59.7852594 128.0477446  47.3971730  55.3037158 132.4829623
  46.5413327  54.9144009 132.3035261  47.8098682  55.3829119 131.6229408
  54.7858893  63.2119812 129.3597558  54.0088336  62.8730972 128.9152720
  55.4650374  63.2172436 128.6852523  49.6010922  58.3314550 129.2504166
  49.2961058  58.6460699 130.1014309  50.5541365  58.4095970 129.2931499
  48.0457354  64.4904773 130.8997120  47.5178716  63.7557533 130.5870357
  47.5444857  65.2679449 130.6537088  53.0250200  62.6853794 136.0164166
  52.3673875  63.3753055 136.1044294  53.8290600  63.0750226 136.3598152
  42.7776082  55.1524439 133.2603731  43.3519834  54.9299621 132.5276924
  43.3647064  55.2213134 134.0132332  51.8355659  61.0398166 134.0668108
  52.3487541  61.6728158 134.5689817  52.4856883  60.4399362 133.7011468
  43.1045669  57.1828900 127.2799616  42.2682981  57.5203587 127.6008891
  42.9650439  57.0477880 126.3426753  45.0798750  52.0265688 131.9878801
  44.4263162  51.7114705 131.3635415  45.0379224  51.4041429 132.7138623
  46.1909955  62.3084983 123.9032093  45.2837016  62.0774237 124.1023242
  46.6880986  61.5122603 124.0906074  49.0978033  71.0182491 126.8228779
  48.4239732  71.3214187 127.4313737  49.4843855  71.8211571 126.4734236
  48.3136490  58.5147622 136.3126448  47.3959051  58.7362569 136.1548136
  48.7296634  58.5893932 135.4538155  49.0971538  59.9139038 131.4429128
  49.8443357  60.4260435 131.1336250  49.3663127  59.5923090 132.3033522
  47.3698188  62.4097578 128.4256083  46.4609407  62.1256611 128.5228552
  47.3993272  62.8296657 127.5659390  52.6017455  66.0204168 132.1947250
  52.1479782  65.1795078 132.2512441  51.9711422  66.6565566 132.5322030
  51.5450375  56.9496154 133.4247918  50.8073132  56.4373540 133.7558160
  51.7977148  56.5096535 132.6131195  51.0450395  67.8580664 133.1297068
  51.3373369  68.4185722 132.4109434  51.5549015  68.1509225 133.8850227
  51.6462002  49.7272406 134.0189687  51.9520879  48.8669769 133.7315602
  52.3714607  50.3190026 133.8188681  37.9386358  60.1303092 132.4071285
  37.7410758  59.5372453 131.6822351  37.3833022  59.8255303 133.1247224
  45.9183082  60.0226199 134.5265878  45.9731692  59.0700035 134.4508355
  45.1074284  60.1785638 135.0107176  47.0674276  63.9506322 125.7644161
  46.6293706  63.2342181 125.3049799  47.8084717  64.1782437 125.2029253
  43.8575442  58.6403259 132.2856257  43.0443307  58.9397429 132.6921449
  44.3534436  58.2458947 133.0030739  46.0084020  68.6361016 134.2190522
  45.9660199  68.8621862 133.2899054  46.9246719  68.4024390 134.3676323
  55.1847391  62.2263519 131.8220480  55.0465289  62.4165115 130.8941669
  54.8283609  62.9882902 132.2788531  55.2116770  64.2940046 136.8331751
  55.6453277  64.2015335 137.6814805  55.9248351  64.2697546 136.1951767
  44.1249821  65.5124045 134.0152484  44.9190419  65.0174365 133.8135059
  43.4141513  64.9841908 133.6520190  48.9444665  67.8942140 138.3664852
  48.9981687  68.4633076 139.1342568  48.0759446  68.0644025 138.0018889
  40.4332584  59.6567126 130.0912237  39.5030172  59.5951582 130.3082199
  40.5290056  59.1343079 129.2948878  40.3518133  56.1821939 132.6790479
  40.6124950  57.0967272 132.5699639  41.1735305  55.7146382 132.8287091
  56.0732320  64.3363747 139.3664637  56.2668210  65.2409557 139.6123912
  55.9732938  63.8771166 140.2003222  47.9032765  62.0602402 139.9251784
  48.8324825  62.2113562 139.7520751  47.4823795  62.1486423 139.0700430
  46.7021097  66.0853067 137.6950321  46.5632182  65.7171851 138.5676260
  45.9135693  66.6000706 137.5234279  47.2969249  71.1862163 129.0375858
  47.4721004  70.7150206 129.8521481  46.6102037  71.8127929 129.2657119
  48.2526312  65.4634669 135.0839159  47.9176144  65.4235439 135.9796809
  47.7530257  64.7979385 134.6109569  51.1885503  62.8090704 125.3576219
  50.5714674  62.0837532 125.2609272  50.7201992  63.5700064 125.0143293
  52.8439635  67.5189612 143.0181999  52.7852181  66.8348832 142.3512582
  53.2459153  68.2608602 142.5662625  41.8630334  74.3351526 135.8115718
  42.1026932  74.9670050 136.4894737  41.0199530  73.9839566 136.0981077
  42.9784049  57.0276128 124.4797523  42.1013516  56.9064929 124.1159770
  43.4541802  56.2362206 124.2276412  52.8457042  65.4829196 141.2495979
  51.9583821  65.1455118 141.3722378  53.4155593  64.7512227 141.4864744
  34.4986189  61.8153288 134.5739030  35.1857229  61.5015018 133.9860046
  34.3434318  62.7194652 134.3006282  46.3758196  70.1430648 138.2157222
  46.3028367  70.9485620 138.7276527  45.9335589  70.3422614 137.3905243
  46.1647975  69.3802418 131.7260044  45.3815497  69.9224098 131.8198268
  46.8640720  69.8976398 132.1254285  49.4744625  55.1897048 134.3694249
  49.9713325  54.4367010 134.0495319  48.7031607  55.2261364 133.8037458
  57.3274383  60.8937413 136.0112541  57.3164259  61.7762129 135.6406474
  56.4591762  60.5408964 135.8167078  48.8356879  70.0417482 140.3715381
  49.5484851  70.6764947 140.2991282  48.3446908  70.1381348 139.5555383
  50.5574406  63.9468735 131.9432672  49.6230685  64.0670197 131.7737377
  50.7351075  63.0441202 131.6792682  46.0579594  57.3314431 134.0965934
  45.6877382  56.7785471 134.7846839  46.5538687  56.7272564 133.5440934
  53.9446957  59.7886054 132.4782707  54.4107410  60.6214046 132.4043009
  54.3954458  59.3231036 133.1827965  43.8868793  67.7911926 141.1920952
  44.5878252  68.4248409 141.3450346  43.4163908  68.1326657 140.4316591
  52.0123189  66.1329875 129.4768859  52.2883032  66.0186470 130.3862733
  51.1427687  65.7347360 129.4381032  51.6870079  60.3456533 139.0173502
  51.0341529  60.5932441 138.3625955  52.0650459  59.5320671 138.6835979
  48.6477253  70.3816226 133.1201672  48.8299647  69.5637882 133.5829425
  49.4710239  70.5983919 132.6826562  48.9819418  69.3084411 130.3816721
  49.5107185  68.7976866 129.7686883  49.2447638  68.9926942 131.2462254
  39.4836511  67.3248281 138.1252054  40.0689948  66.5791969 138.2579958
  39.2861349  67.6352237 139.0088718  42.3375166  70.3599528 133.1414497
  41.6685541  70.8445656 132.6578537  42.1988036  70.6068749 134.0557875
  46.4780435  72.3943272 139.7397155  47.0298743  72.5574893 140.5046240
  46.8186628  72.9847709 139.0677180  37.7062743  58.6217983 129.9210429
  38.0016184  57.7128662 129.8677482  36.8050779  58.6005723 129.5991431
  49.6148822  70.3425247 136.7260837  49.4899961  69.5414987 136.2171783
  50.2727913  70.8371441 136.2374807  51.6783730  68.1434267 138.3540387
  50.7314066  68.0239618 138.2818714  52.0266503  67.2556765 138.4366649
  39.4350585  56.3032081 130.0449754  39.1063291  55.4229460 129.8624860
  39.7889955  56.2479749 130.9326143  48.6830164  67.9386983 134.5544739
  48.5355126  67.0103691 134.7352310  49.5083657  67.9607074 134.0701815
  42.5492408  56.5905051 130.4125232  42.8888480  57.1190972 129.6903840
  42.9964528  56.9285457 131.1883798  52.2864285  68.7615542 135.6409612
  53.2110833  68.5558404 135.5034063  52.1179589  68.5131943 136.5498954
  44.5360555  55.0879672 128.6118524  45.2568917  55.4660925 128.1082241
  43.9125859  55.8068549 128.7153502  48.6791678  55.7924821 129.5476857
  48.8955292  56.6749459 129.2465685  48.1985745  55.4011035 128.8182499
  52.0759602  69.2801210 130.9971704  52.2496479  68.7147632 130.2445556
  52.5688493  70.0802105 130.8151194  44.6824178  54.6227463 131.4416061
  44.8040089  53.6944109 131.6406949  44.3926220  54.6366149 130.5294376
  57.9298993  62.0437633 132.6162003  58.3730139  61.2944958 132.2181127
  57.0525503  62.0347769 132.2335735  53.0634774  68.5967974 128.0968602
  53.7585679  69.2174667 128.3155917  53.4057924  67.7463325 128.3720980
  54.9626197  66.0467680 129.6255933  55.4877521  66.3854952 128.9005253
  54.8748550  65.1114695 129.4419067  46.6246246  69.9601753 141.7545809
  46.9333372  69.7150900 142.6268509  47.4221728  70.1648392 141.2664680
  46.6466858  72.1139663 133.9851186  46.2071848  71.6216042 134.6784043
  47.3974975  71.5712631 133.7443261  39.1259197  68.3051204 133.9875814
  39.9517217  68.0054976 133.6074458  38.7753249  67.5358826 134.4365603
  44.0940730  67.6577672 136.0573488  43.4720739  66.9948377 135.7575715
  44.7645597  67.6838804 135.3747135  37.3267802  66.2237530 134.9464748
  36.4899710  65.7959705 134.7648749  37.2991447  66.4169974 135.8835539
  54.6520103  66.6800583 144.9307131  53.8615647  66.6624722 144.3911630
  54.4153458  67.2188877 145.6856167  54.7717978  63.5293050 142.2439859
  54.8215983  63.3643057 143.1855382  54.6631902  62.6620309 141.8537740
  43.6554237  66.2081595 129.5331948  43.8042357  66.8917060 128.8798621
  44.4620680  66.1886685 130.0481404  56.2736175  65.9489991 142.4881881
  55.9820983  66.3119972 143.3245342  55.6608306  65.2356999 142.3095213
  57.4731857  63.5142871 135.0084451  58.3078749  63.9532675 135.1722011
  57.6090986  63.0381524 134.1892697  54.5223363  61.0722606 140.9561939
  54.9977485  61.2650252 140.1480790  53.5988929  61.1281792 140.7105322
  41.4106870  62.2346773 130.5393017  41.1652912  61.3309103 130.7373227
  41.5802785  62.2363923 129.5972495  40.6802518  57.9675131 128.0379179
  39.9871762  58.0419485 127.3819214  40.4354269  57.2035474 128.5600695
  47.1549643  68.7029726 127.0043696  46.5823610  69.3219913 126.5514167
  47.7282436  69.2529087 127.5383617  53.2225032  57.9488366 139.1890244
  54.1742455  58.0486463 139.2102468  53.0528483  57.1566634 139.6988329
  50.3746902  68.9866876 128.1352278  51.3077576  68.9212438 128.3385153
  50.2870115  69.8223143 127.6766810  53.0034919  68.3032746 125.0956225
  52.9248551  67.9692610 125.9891983  53.8244586  68.7954514 125.0947698
  55.7013110  61.1694486 138.3032544  55.6689430  60.2310486 138.4892228
  56.3113734  61.2478522 137.5698369  47.5396441  60.0390539 124.3459748
  48.4855546  59.9096747 124.4148166  47.1610686  59.3005200 124.8229176
  55.8507599  57.9605529 138.3490827  55.3346647  57.1763986 138.1620756
  56.7347547  57.6324246 138.5137347  53.5118326  51.7046545 134.3086640
  53.3143147  51.3961633 135.1929972  54.1218031  52.4308183 134.4384570
  61.5189660  62.2310492 137.4438581  62.2493049  61.9695780 138.0046284
  60.9096606  61.4939214 137.4840649  59.6004957  60.3718355 138.0413032
  58.8738121  60.2374320 137.4329524  59.1852244  60.6795184 138.8469750
  45.7239358  57.9640515 124.2814633  44.8170814  57.6673628 124.3577347
  46.0015339  57.6670333 123.4148920  47.3401424  52.5077405 130.4358875
  46.5302152  52.1624490 130.8114121  48.0285841  52.1984948 131.0246486
  49.2691972  51.5855451 132.0583171  49.8223011  52.0050905 132.7173194
  49.5062059  50.6591200 132.1006127  44.4938143  54.8227450 124.4226612
  45.3557307  55.1482348 124.6822430  44.6788487  54.0358946 123.9099678
  52.6470779  53.6955977 131.5661835  52.0669448  54.3540781 131.1839888
  52.3806712  52.8733321 131.1549253  51.0974346  53.0961034 133.7683156
  51.5974124  53.2077569 132.9597475  51.7409954  52.7922087 134.4083964
  38.4242301  62.8368044 134.5772816  38.4012989  62.9355731 133.6254699
  38.7342938  63.6833194 134.8989982  51.4295657  55.8556067 130.6218184
  50.5421512  56.1405718 130.4038378  51.8449646  55.6949830 129.7745461
  54.7810193  55.8802588 134.3372523  55.5570584  56.3699040 134.6097140
  54.0558328  56.3060642 134.7944392  57.2182752  56.5930207 135.3946464
  57.8127243  56.3525943 134.6839772  57.2909336  55.8737338 136.0220000
  39.4379908  70.4363818 135.7089628  39.3034376  69.6764219 135.1427626
  39.0211970  71.1604718 135.2418417  50.5738871  65.6200742 124.7166204
  51.2774721  65.8250744 125.3323859  49.8501520  66.1877504 124.9815287
  51.4036681  61.3710603 130.8368474  51.3471882  61.8279154 129.9976106
  51.9565024  60.6101287 130.6591317  55.2141487  57.1600335 131.6618593
  54.9578421  56.7596970 132.4926801  54.5894355  57.8744129 131.5368733
  59.5253825  59.8996408 134.1689885  58.9653383  59.9689597 134.9421447
  58.9197328  59.7237393 133.4489381  42.5949034  71.3333135 135.9208071
  42.4781418  72.2778568 135.8186761  41.7741480  71.0306697 136.3093870
  52.4825568  66.0583271 126.7664664  53.3171172  65.6264469 126.5842139
  52.3209911  65.8865285 127.6941558  52.1371460  62.5615384 128.1321003
  52.0820264  62.3959656 127.1909447  51.5117516  63.2691417 128.2883193
  45.4467586  52.0623493 127.7106321  45.4346256  53.0065333 127.8674592
  46.3391008  51.8793639 127.4165783  43.6203548  71.9861397 139.1363999
  44.5230795  72.0185007 139.4530494  43.3940918  71.0561848 139.1510335
  45.3757150  70.7392384 135.7974078  44.4252781  70.7394245 135.6838450
  45.6789636  69.9925118 135.2810113  49.2619705  48.6566270 131.9652258
  48.4952101  48.1024756 132.1108941  49.6730410  48.7288139 132.8266410
  61.1109843  76.5752922 136.8619841  61.7488253  76.4559669 136.1583181
  60.9930686  77.5233766 136.9207793  57.9199550  76.5280350 136.7981365
  57.5818061  76.4121415 135.9101900  58.7889318  76.1271515 136.7782371
  53.7786365  78.3815826 132.7878256  53.2151230  78.2905763 132.0194544
  53.6638760  77.5615731 133.2680749  58.4019333  77.6815202 142.7567571
  58.3907973  77.2868000 141.8848074  58.5639972  76.9481274 143.3501342
  51.3250797  79.8767018 135.6262477  52.1172089  79.5357843 135.2108776
  51.5647447  79.9861993 136.5464630  59.3585924  82.0486794 128.0992721
  58.7073904  82.6340875 127.7126735  60.1530287  82.5792989 128.1587759
  53.2841551  79.1375931 128.4979855  54.0572427  78.5904918 128.3592731
  53.6366950  80.0020181 128.7094317  55.1226594  80.4652314 141.7046755
  54.8316460  81.3697944 141.5893421  55.7583578  80.5068841 142.4190824
  56.0482801  77.8429162 138.2948114  56.6446373  77.6185184 137.5805077
  56.1057772  77.1013908 138.8973562  55.6207829  75.2968597 126.1298305
  55.8733350  74.7750119 125.3681768  54.6832388  75.1334743 126.2324989
  60.6651112  74.3004376 133.9373049  61.4514201  73.8823799 133.5863466
  60.9289816  75.2050468 134.1054697  60.8361189  79.7377226 128.6361705
  60.2007022  79.8111853 129.3482610  60.5058596  80.3270825 127.9580785
  66.0659539  74.2379609 134.8406027  66.7984711  73.6678826 135.0743857
  65.3098895  73.8501209 135.2812533  55.3404118  77.1996703 128.3322680
  55.2240376  76.5241607 129.0003765  55.4506378  76.7129077 127.5154833
  57.6835659  76.6606850 132.0369370  57.3193866  76.1337471 132.7482291
  58.5402775  76.2705320 131.8635855  63.5884959  67.9501183 139.3000636
  63.2568284  68.8196594 139.0761851  62.9930573  67.6337467 139.9794666
  57.3241146  71.6896750 127.0330718  57.4915548  72.5576987 127.4001189
  57.1338315  71.8524032 126.1092007  60.0816479  80.1513729 138.6996548
  59.7817202  81.0538768 138.5912356  59.7367538  79.8845912 139.5517701
  53.5328960  76.6027526 134.7333253  52.6079457  76.4703740 134.9410945
  53.7813373  77.3821745 135.2303195  63.4813623  72.6696269 136.3793986
  62.5730500  72.6011678 136.0852747  63.4301218  73.1468214 137.2075811
  57.3030366  74.1454408 128.0177385  57.1829992  74.5911458 128.8562865
  56.6082955  74.4939725 127.4590923  50.8937771  76.2460799 135.5677042
  51.0230152  76.4995278 136.4816454  50.2135223  76.8388507 135.2481697
  55.0637259  86.9158049 131.6667516  54.9861288  87.8665875 131.7455997
  54.4598902  86.5703922 132.3242442  57.5554488  74.0885915 144.3228883
  56.7787822  74.6479835 144.3131748  58.1945051  74.5742698 144.8443753
  65.3475269  70.8712708 138.1571860  64.7049649  71.1645241 137.5111654
  64.8430198  70.7565628 138.9625056  63.0015433  74.6175881 128.8457719
  63.9133289  74.8503268 128.6705416  62.4925080  75.2012925 128.2832798
  55.8100861  76.8971368 143.8846850  56.5515545  77.4356412 143.6081674
  55.1037846  77.5237657 144.0418402  61.2856200  79.0400509 142.4819011
  61.6939556  78.5982919 141.7373644  60.5633462  78.4653136 142.7353204
  57.6387270  73.9773115 139.8552568  58.4848466  74.4012529 139.9987217
  57.5785908  73.3206740 140.5491132  61.6085015  79.6001699 136.2371300
  60.9793877  79.7647413 135.5347368  61.2210677  80.0143309 137.0082264
  65.4874247  80.5356137 133.5915664  64.8025285  80.9155039 133.0412697
  65.5718096  81.1451464 134.3247612  60.7886716  71.6377484 141.5133742
  60.5447648  72.3919544 140.9768018  61.0646646  72.0162831 142.3480989
  62.7425178  78.1816096 140.1911008  62.9542074  78.8247856 139.5145389
  62.6954927  77.3478413 139.7232938  60.3451407  70.7933917 137.0947580
  59.4835886  71.0915170 137.3864317  60.3713842  71.0104316 136.1628612
  57.1612977  79.3376107 133.5021385  57.6251322  79.6163810 132.7126008
  56.8969775  78.4359552 133.3194476  54.0537058  78.8847589 136.4401149
  54.6238415  79.3134857 135.8018633  54.6445170  78.6030174 137.1385334
  56.0981863  75.4599260 130.3110951  56.8005906  75.9120303 130.7784877
  55.7662491  74.8183079 130.9390844  54.5462224  74.0511016 144.6862160
  53.9160885  74.7327297 144.9197557  54.4398312  73.9394098 143.7415298
  49.8407197  73.7182812 135.6128084  49.0506251  73.9740341 135.1368195
  50.3318444  74.5331150 135.7180125  63.8571006  81.0588052 138.3633365
  64.6788450  80.6568239 138.0816047  63.8533409  80.9556286 139.3149481
  51.7921942  74.0827392 132.5711561  50.9953106  74.1946086 133.0895057
  51.5647534  74.4214044 131.7052451  57.6227610  80.6072095 140.5194076
  57.6872042  81.0692502 141.3552247  56.9138534  79.9769460 140.6476385
  48.1244900  73.9713303 138.0443075  48.3752938  74.8560313 138.3100651
  48.6604448  73.7917904 137.2718167  71.9476999  77.4026800 134.7118336
  71.1940708  76.8334198 134.5562341  72.0824541  77.3689465 135.6588971
  57.3375628  82.2740202 130.3873056  57.2021302  83.1191738 130.8157904
  57.8785440  82.4759480 129.6238990  50.7905025  79.7915640 130.9600981
  51.3029545  80.5858891 131.1106546  51.4427738  79.0941931 130.8934582
  52.5999910  82.9081397 133.0423734  52.7766538  83.8299361 132.8544718
  53.3956743  82.5939816 133.4718114  56.7410928  69.7689661 144.6407668
  57.4820642  70.3696814 144.5612130  56.9728851  69.0267299 144.0825710
  51.8852266  74.9546029 142.9185897  51.7705781  74.0531286 143.2192996
  51.0296784  75.2009725 142.5670714  58.9644104  82.8963769 144.5173398
  58.5207958  82.1100147 144.1994302  59.6261317  83.0842919 143.8517289
  53.7231225  84.4259570 139.0434076  54.2738650  84.2976634 138.2711070
  52.8842701  84.7254460 138.6928969  61.0625342  83.1766569 142.5454799
  61.0443817  83.9975450 142.0535068  61.9845262  83.0520644 142.7704940
  57.5198396  80.6910698 143.3878308  58.0526733  79.9298986 143.1577616
  56.9912477  80.3984350 144.1302462  60.6868091  65.7970764 138.9171949
  60.3432360  66.6872406 138.8411060  61.0547054  65.6072422 138.0541534
  48.7553942  78.1204295 131.7360551  49.5929164  78.5301303 131.5194259
  48.9332209  77.1803737 131.7060745  60.6518374  75.7879375 127.4244384
  60.1364997  76.5583980 127.6632772  60.3795682  75.1144512 128.0477446
  58.2365485  70.6329076 132.4829623  57.3807081  70.2435927 132.3035261
  58.6492437  70.7121037 131.6229408  59.7664631  68.1675419 136.8821183
  59.2629427  68.1305555 136.0688988  60.0595238  69.0768162 136.9417839
  56.0107517  68.2514149 135.8887364  56.8760514  68.0556958 135.5293254
  56.0785026  68.0224501 136.8156721  65.6252648  78.5411730 129.3597558
  64.8482091  78.2022890 128.9152720  66.3044129  78.5464353 128.6852523
  60.4404677  73.6606467 129.2504166  60.1354813  73.9752617 130.1014309
  61.3935119  73.7387887 129.2931499  58.8851109  79.8196691 130.8997120
  58.3572470  79.0849450 130.5870357  58.3838612  80.5971367 130.6537088
  63.8643955  78.0145711 136.0164166  63.2067629  78.7044973 136.1044294
  64.6684354  78.4042143 136.3598152  53.6169836  70.4816357 133.2603731
  54.1913588  70.2591539 132.5276924  54.2040819  70.5505052 134.0132332
  62.6749414  76.3690084 134.0668108  63.1881295  77.0020076 134.5689817
  63.3250638  75.7691279 133.7011468  53.9439424  72.5120818 127.2799616
  53.1076736  72.8495505 127.6008891  53.8044193  72.3769798 126.3426753
  55.9192504  67.3557606 131.9878801  55.2656916  67.0406623 131.3635415
  55.8772978  66.7333346 132.7138623  57.0303709  77.6376901 123.9032093
  56.1230771  77.4066154 124.1023242  57.5274741  76.8414520 124.0906074
  59.9371788  86.3474408 126.8228779  59.2633487  86.6506105 127.4313737
  60.3237610  87.1503489 126.4734236  59.1530244  73.8439540 136.3126448
  58.2352806  74.0654487 136.1548136  59.5690388  73.9185850 135.4538155
  59.9365292  75.2430955 131.4429128  60.6837111  75.7552352 131.1336250
  60.2056882  74.9215008 132.3033522  58.2091942  77.7389496 128.4256083
  57.3003162  77.4548529 128.5228552  58.2387026  78.1588574 127.5659390
  63.4411210  81.3496085 132.1947250  62.9873537  80.5086995 132.2512441
  62.8105177  81.9857484 132.5322030  62.3844129  72.2788071 133.4247918
  61.6466886  71.7665458 133.7558160  62.6370903  71.8388453 132.6131195
  61.8844149  83.1872582 133.1297068  62.1767123  83.7477639 132.4109434
  62.3942770  83.4801143 133.8850227  62.4855757  65.0564323 134.0189687
  62.7914634  64.1961687 133.7315602  63.2108362  65.6481944 133.8188681
  48.7780113  75.4595010 132.4071285  48.5804513  74.8664371 131.6822351
  48.2226777  75.1547220 133.1247224  56.7576836  75.3518117 134.5265878
  56.8125446  74.3991953 134.4508355  55.9468039  75.5077556 135.0107176
  57.9068030  79.2798240 125.7644161  57.4687460  78.5634099 125.3049799
  58.6478471  79.5074354 125.2029253  54.6969196  73.9695176 132.2856257
  53.8837062  74.2689347 132.6921449  55.1928191  73.5750865 133.0030739
  56.8477774  83.9652933 134.2190522  56.8053953  84.1913779 133.2899054
  57.7640473  83.7316308 134.3676323  60.2943408  74.4337001 141.1171151
  60.6492796  74.6608474 141.9765617  60.9415539  74.7655378 140.4948406
  66.0241145  77.5555437 131.8220480  65.8859044  77.7457033 130.8941669
  65.6677364  78.3174819 132.2788531  54.1883271  71.5413532 137.9017492
  54.8282650  71.4002291 137.2040455  53.3560802  71.2548045 137.5256094
  66.0510525  79.6231964 136.8331751  66.4847031  79.5307253 137.6814805
  66.7642105  79.5989464 136.1951767  54.9643575  80.8415962 134.0152484
  55.7584174  80.3466282 133.8135059  54.2535267  80.3133825 133.6520190
  59.7838420  83.2234058 138.3664852  59.8375442  83.7924994 139.1342568
  58.9153201  83.3935943 138.0018889  51.2726339  74.9859044 130.0912237
  50.3423927  74.9243499 130.3082199  51.3683811  74.4634997 129.2948878
  51.1911888  71.5113857 132.6790479  51.4518705  72.4259190 132.5699639
  52.0129060  71.0438299 132.8287091  52.6636813  72.9251614 139.8489303
  53.3359866  72.7168976 139.2001952  51.8366599  72.7273700 139.4094535
  66.9126074  79.6655664 139.3664637  67.1061964  80.5701475 139.6123912
  66.8126692  79.2063083 140.2003222  58.5662385  69.5513555 141.8654964
  57.9190300  70.2503505 141.7719440  59.3363400  69.9849699 142.2331212
  61.9741183  79.8162407 144.9405517  61.8226689  79.5872959 144.0235601
  61.9645862  80.7733008 144.9536862  58.7426519  77.3894320 139.9251784
  59.6718579  77.5405479 139.7520751  58.3217549  77.4778341 139.0700430
  57.5414851  81.4144984 137.6950321  57.4025937  81.0463769 138.5676260
  56.7529447  81.9292624 137.5234279  58.1363003  86.5154081 129.0375858
  58.3114759  86.0442124 129.8521481  57.4495791  87.1419847 129.2657119
  59.0920066  80.7926587 135.0839159  58.7569899  80.7527357 135.9796809
  58.5924012  80.1271303 134.6109569  53.0664310  76.1994217 140.6091740
  52.9284108  75.4674456 141.2103279  53.9769234  76.1103117 140.3275928
  62.0279258  78.1382621 125.3576219  61.4108428  77.4129449 125.2609272
  61.5595746  78.8991982 125.0143293  55.6946611  75.9114176 140.0975420
  56.4046229  75.2707368 140.0562038  55.6515919  76.1627071 141.0201601
  63.6833390  82.8481530 143.0181999  63.6245936  82.1640750 142.3512582
  64.0852908  83.5900520 142.5662625  54.4075545  72.8979394 141.9171059
  53.8712902  72.4470133 142.5692656  53.8192253  73.0325303 141.1741524
  52.7024088  89.6643443 135.8115718  52.9420687  90.2961968 136.4894737
  51.8593285  89.3131483 136.0981077  53.8177804  72.3568046 124.4797523
  52.9407270  72.2356846 124.1159770  54.2935557  71.5654124 124.2276412
  63.6850797  80.8121114 141.2495979  62.7977576  80.4747035 141.3722378
  64.2549348  80.0804145 141.4864744  45.3379944  77.1445205 134.5739030
  46.0250984  76.8306935 133.9860046  45.1828073  78.0486570 134.3006282
  50.1414666  72.0335402 139.0024054  50.0572855  71.4261071 138.2674464
  49.3197372  72.5244420 139.0033550  57.2151950  85.4722566 138.2157222
  57.1422122  86.2777537 138.7276527  56.7729343  85.6714532 137.3905243
  57.0041730  84.7094336 131.7260044  56.2209252  85.2516016 131.8198268
  57.7034475  85.2268316 132.1254285  60.3138380  70.5188965 134.3694249
  60.8107079  69.7658928 134.0495319  59.5425361  70.5553282 133.8037458
  68.1668137  76.2229331 136.0112541  68.1558014  77.1054046 135.6406474
  67.2985517  75.8700882 135.8167078  59.6750634  85.3709400 140.3715381
  60.3878606  86.0056865 140.2991282  59.1840662  85.4673266 139.5555383
  61.3968161  79.2760653 131.9432672  60.4624439  79.3962115 131.7737377
  61.5744829  78.3733119 131.6792682  56.8973349  72.6606348 134.0965934
  56.5271136  72.1077389 134.7846839  57.3932441  72.0564482 133.5440934
  64.7840712  75.1177972 132.4782707  65.2501164  75.9505963 132.4043009
  65.2348212  74.6522953 133.1827965  54.7262547  83.1203843 141.1920952
  55.4272007  83.7540326 141.3450346  54.2557662  83.4618575 140.4316591
  62.8516943  81.4621793 129.4768859  63.1276787  81.3478388 130.3862733
  61.9821442  81.0639278 129.4381032  62.7557375  67.4858559 136.5173608
  61.8420454  67.7162786 136.6855815  63.1850476  67.5697003 137.3687640
  62.5263833  75.6748451 139.0173502  61.8735283  75.9224358 138.3625955
  62.9044213  74.8612589 138.6835979  59.4871007  85.7108144 133.1201672
  59.6693402  84.8929800 133.5829425  60.3103993  85.9275836 132.6826562
  59.8213173  84.6376329 130.3816721  60.3500939  84.1268784 129.7686883
  60.0841392  84.3218859 131.2462254  58.5751406  76.4168262 145.5039539
  57.8992043  76.3162391 146.1741914  59.3979040  76.2607476 145.9675536
  50.3230265  82.6540198 138.1252054  50.9083702  81.9083886 138.2579958
  50.1255104  82.9644155 139.0088718  53.1768921  85.6891446 133.1414497
  52.5079296  86.1737573 132.6578537  53.0381790  85.9360666 134.0557875
  44.9147920  75.2245799 136.8456497  44.9532020  74.6909389 137.6393616
  44.4088213  74.6981004 136.2267475  57.3174189  87.7235189 139.7397155
  57.8692497  87.8866811 140.5046240  57.6580383  88.3139627 139.0677180
  52.2938682  70.0710339 140.3419040  52.3580009  70.9325170 139.9296437
  52.2305803  69.4584341 139.6091398  51.7690955  72.1433472 143.9892074
  52.3962994  71.7610549 144.6029598  50.9118874  71.9247674 144.3547766
  62.1685063  82.5496447 145.5945809  62.7124967  83.1626405 145.1000764
  61.5871908  83.1076025 146.1112822  48.5456498  73.9509901 129.9210429
  48.8409939  73.0420579 129.8677482  47.6444533  73.9297640 129.5991431
  60.4542576  85.6717165 136.7260837  60.3293716  84.8706905 136.2171783
  61.1121667  86.1663358 136.2374807  52.0750745  72.0265897 135.9037977
  51.3537330  72.6401865 135.7645451  52.8644000  72.5623662 135.8254623
  62.5177485  83.4726185 138.3540387  61.5707820  83.3531536 138.2818714
  62.8660258  82.5848683 138.4366649  54.8777058  69.3620324 142.1778629
  55.4011460  69.6082620 142.9404938  54.6589391  70.1940359 141.7581766
  50.2744339  71.6323998 130.0449754  49.9457045  70.7521377 129.8624860
  50.6283710  71.5771667 130.9326143  59.5223918  83.2678901 134.5544739
  59.3748880  82.3395609 134.7352310  60.3477412  83.2898992 134.0701815
  53.3886162  71.9196968 130.4125232  53.7282235  72.4482889 129.6903840
  53.8358283  72.2577374 131.1883798  63.1258040  84.0907460 135.6409612
  64.0504587  83.8850321 135.5034063  62.9573343  83.8423861 136.5498954
  56.0829603  70.3034019 139.8628300  55.7426424  69.5041832 140.2648980
  55.3768609  70.6035730 139.2905133  56.7346075  67.3883331 138.3155623
  57.5572144  66.9143810 138.1934513  56.9784139  68.1673815 138.8154309
  55.3754309  70.4171590 128.6118524  56.0962672  70.7952843 128.1082241
  54.7519614  71.1360467 128.7153502  59.5185432  71.1216739 129.5476857
  59.7349047  72.0041377 129.2465685  59.0379500  70.7302952 128.8182499
  54.2584654  74.0802452 136.1247601  54.1129234  74.3942755 137.0171883
  53.7809857  74.6987352 135.5718500  56.1181037  71.0705000 136.1728491
  56.1042605  70.1746093 135.8360789  56.8353465  71.0775664 136.8066777
  57.9707167  71.5042340 138.2181618  57.7124945  72.4259411 138.2165949
  57.4392208  71.1072775 138.9082082  62.9153356  84.6093127 130.9971704
  63.0890234  84.0439550 130.2445556  63.4082247  85.4094022 130.8151194
  48.7330316  76.6207796 139.0635262  48.1883784  77.3967604 139.1955537
  49.6109666  76.9678601 138.9054384  55.5217933  69.9519380 131.4416061
  55.6433844  69.0236026 131.6406949  55.2319975  69.9658066 130.5294376
  58.3909123  67.6374291 134.5782781  58.4130820  67.7013624 133.6234760
  58.8077182  66.7978799 134.7723287  68.7692747  77.3729550 132.6162003
  69.2123893  76.6236875 132.2181127  67.8919258  77.3639687 132.2335735
  63.9028529  83.9259892 128.0968602  64.5979433  84.5466584 128.3155917
  64.2451679  83.0755243 128.3720980  49.5196338  75.7477693 141.9565419
  48.7778074  75.8960328 142.5430050  49.1989082  76.0085958 141.0932169
  65.8019952  81.3759597 129.6255933  66.3271276  81.7146870 128.9005253
  65.7142304  80.4406613 129.4419067  57.4640000  85.2893671 141.7545809
  57.7727127  85.0442818 142.6268509  58.2615482  85.4940309 141.2664680
  57.4860612  87.4431581 133.9851186  57.0465603  86.9507959 134.6784043
  58.2368729  86.9004548 133.7443261  49.9652951  83.6343121 133.9875814
  50.7910971  83.3346893 133.6074458  49.6147003  82.8650744 134.4365603
  54.9334485  82.9869590 136.0573488  54.3114494  82.3240295 135.7575715
  55.6039352  83.0130722 135.3747135  48.1661556  81.5529448 134.9464748
  47.3293465  81.1251622 134.7648749  48.1385202  81.7461891 135.8835539
  55.0059012  71.4651378 145.6505994  55.0547168  72.3413500 145.2683763
  55.5481526  70.9228771 145.0777637  65.4913858  82.0092501 144.9307131
  64.7009401  81.9916640 144.3911630  65.2547212  82.5480795 145.6856167
  65.6111733  78.8584967 142.2439859  65.6609738  78.6934975 143.1855382
  65.5025656  77.9912226 141.8537740  54.4947992  81.5373513 129.5331948
  54.6436112  82.2208977 128.8798621  55.3014435  81.5178603 130.0481404
  62.9015495  74.8415895 143.5599166  63.8025358  74.7022360 143.2683164
  62.9763470  75.0070350 144.4997343  57.2358301  72.2182750 142.4052352
  56.3661610  72.5116316 142.1334941  57.4717781  72.8023195 143.1259616
  67.1129930  81.2781909 142.4881881  66.8214738  81.6411889 143.3245342
  66.5002061  80.5648917 142.3095213  68.3125612  78.8434789 135.0084451
  69.1472503  79.2824593 135.1722011  68.4484741  78.3673442 134.1892697
  65.3617118  76.4014523 140.9561939  65.8371240  76.5942170 140.1480790
  64.4382683  76.4573709 140.7105322  52.2500625  77.5638691 130.5393017
  52.0046666  76.6601021 130.7373227  52.4196539  77.5655841 129.5972495
  59.9397334  68.4362367 139.9217773  60.4579278  69.1723394 139.5964261
  59.5852467  68.7426360 140.7564532  51.5196272  73.2967048 128.0379179
  50.8265517  73.3711403 127.3819214  51.2748024  72.5327392 128.5600695
  60.1909929  64.8562650 135.4418669  60.4711682  64.1885839 136.0679096
  60.9760535  65.0491745 134.9293333  57.9943397  84.0321643 127.0043696
  57.4217364  84.6511831 126.5514167  58.5676191  84.5821005 127.5383617
  64.0618787  73.2780284 139.1890244  65.0136210  73.3778381 139.2102468
  63.8922237  72.4858552 139.6988329  62.0833166  70.3635867 139.3749645
  61.4883098  70.6440879 138.6796134  61.7982863  70.8529768 140.1466386
  61.2140657  84.3158794 128.1352278  62.1471330  84.2504355 128.3385153
  61.1263870  85.1515060 127.6766810  63.8428674  83.6324664 125.0956225
  63.7642305  83.2984527 125.9891983  64.6638340  84.1246432 125.0947698
  66.5406865  76.4986403 138.3032544  66.5083185  75.5602404 138.4892228
  67.1507488  76.5770440 137.5698369  58.3790196  75.3682456 124.3459748
  59.3249300  75.2388664 124.4148166  58.0004441  74.6297118 124.8229176
  66.6901353  73.2897447 138.3490827  66.1740402  72.5055903 138.1620756
  67.5741302  72.9616163 138.5137347  64.3512080  67.0338462 134.3086640
  64.1536901  66.7253550 135.1929972  64.9611786  67.7600101 134.4384570
  72.3583415  77.5602410 137.4438581  73.0886803  77.2987698 138.0046284
  71.7490360  76.8231132 137.4840649  70.4398712  75.7010273 138.0413032
  69.7131875  75.5666238 137.4329524  70.0245999  76.0087101 138.8469750
  58.2628888  79.4200202 145.8060405  59.1831898  79.5978801 146.0000452
  58.2278471  78.4756248 145.6540104  56.5633113  73.2932433 124.2814633
  55.6564568  72.9965545 124.3577347  56.8409094  72.9962251 123.4148920
  47.4811053  74.6138796 134.7313680  47.1613837  73.7604104 134.4388054
  46.9344481  74.8287374 135.4871647  51.2590961  77.3301237 138.4483186
  51.4776970  78.2618345 138.4671220  51.6716734  76.9709211 139.2337990
  58.1795178  67.8369322 130.4358875  57.3695907  67.4916407 130.8114121
  58.8679595  67.5276866 131.0246486  60.1085727  66.9147369 132.0583171
  60.6616765  67.3342823 132.7173194  60.3455813  65.9883117 132.1006127
  56.1318826  72.9034443 147.8385935  56.0315553  73.8528800 147.7698026
  55.9140368  72.5752682 146.9662005  55.3331897  70.1519368 124.4226612
  56.1951061  70.4774266 124.6822430  55.5182241  69.3650864 123.9099678
  47.3499313  78.2341707 136.7006801  46.6562785  77.8195660 136.1876756
  48.0972304  78.2762244 136.1040220  63.4864534  69.0247894 131.5661835
  62.9063203  69.6832698 131.1839888  63.2200466  68.2025239 131.1549253
  61.9368100  68.4252952 133.7683156  62.4367879  68.5369486 132.9597475
  62.5803708  68.1214005 134.4083964  55.9950096  76.3331582 146.6550997
  55.5117178  77.1331942 146.8614886  56.0811035  76.3439526 145.7018441
  49.2636056  78.1659961 134.5772816  49.2406744  78.2647649 133.6254699
  49.5736692  79.0125112 134.8989982  51.9223433  80.2236116 138.6919431
  52.8766687  80.1920059 138.6249362  51.7235957  79.7626740 139.5069656
  52.5122816  78.7937232 141.2590228  53.3315705  79.2881311 141.2825066
  52.7859623  77.8769200 141.2307796  62.2689412  71.1847985 130.6218184
  61.3815267  71.4697635 130.4038378  62.6843401  71.0241748 129.7745461
  65.6203948  71.2094506 134.3372523  66.3964338  71.6990958 134.6097140
  64.8952082  71.6352560 134.7944392  68.0576507  71.9222125 135.3946464
  68.6520997  71.6817861 134.6839772  68.1303090  71.2029255 136.0220000
  50.2773662  85.7655736 135.7089628  50.1428130  85.0056137 135.1427626
  49.8605725  86.4896636 135.2418417  61.4132625  80.9492659 124.7166204
  62.1168475  81.1542662 125.3323859  60.6895274  81.5169421 124.9815287
  62.2430436  76.7002521 130.8368474  62.1865637  77.1571072 129.9976106
  62.7958778  75.9393205 130.6591317  66.0535241  72.4892252 131.6618593
  65.7972176  72.0888888 132.4926801  65.4288110  73.2036046 131.5368733
  70.3647579  75.2288326 134.1689885  69.8047137  75.2981515 134.9421447
  69.7591083  75.0529310 133.4489381  53.4342788  86.6625053 135.9208071
  53.3175172  87.6070485 135.8186761  52.6135234  86.3598614 136.3093870
  63.3219323  81.3875188 126.7664664  64.1564927  80.9556387 126.5842139
  63.1603666  81.2157202 127.6941558  62.9765215  77.8907302 128.1321003
  62.9214019  77.7251573 127.1909447  62.3511270  78.5983335 128.2883193
  47.7657730  73.1275366 141.9582425  48.4116593  72.6174320 142.4469650
  47.5574881  73.8644048 142.5325851  60.2911122  80.1956214 147.4574566
  61.1602282  80.3696866 147.0961201  59.8117874  81.0150630 147.3350295
  56.2861340  67.3915411 127.7106321  56.2740010  68.3357251 127.8674592
  57.1784762  67.2085556 127.4165783  54.4597302  87.3153315 139.1363999
  55.3624549  87.3476925 139.4530494  54.2334672  86.3853766 139.1510335
  56.2150904  86.0684301 135.7974078  55.2646535  86.0686163 135.6838450
  56.5183390  85.3217036 135.2810113  60.1013460  63.9858187 131.9652258
  59.3345856  63.4316674 132.1108941  60.5124165  64.0580056 132.8266410
  71.9503598  91.9044840 136.8619841  72.5882008  91.7851587 136.1583181
  71.8324441  92.8525684 136.9207793  68.7593304  91.8572268 136.7981365
  68.4211816  91.7413332 135.9101900  69.6283072  91.4563433 136.7782371
  64.6180120  93.7107744 132.7878256  64.0544985  93.6197681 132.0194544
  64.5032515  92.8907649 133.2680749  62.1644552  95.2058936 135.6262477
  62.9565844  94.8649760 135.2108776  62.4041202  95.3153911 136.5464630
  70.1979678  97.3778712 128.0992721  69.5467658  97.9632792 127.7126735
  70.9924041  97.9084907 128.1587759  64.1235306  94.4667849 128.4979855
  64.8966182  93.9196836 128.3592731  64.4760705  95.3312098 128.7094317
  66.8876555  93.1721080 138.2948114  67.4840127  92.9477102 137.5805077
  66.9451527  92.4305825 138.8973562  66.4601583  90.6260515 126.1298305
  66.7127104  90.1042036 125.3681768  65.5226143  90.4626661 126.2324989
  71.5044866  89.6296293 133.9373049  72.2907956  89.2115717 133.5863466
  71.7683571  90.5342386 134.1054697  71.6754944  95.0669144 128.6361705
  71.0400777  95.1403770 129.3482610  71.3452350  95.6562743 127.9580785
  76.9053293  89.5671527 134.8406027  77.6378465  88.9970743 135.0743857
  76.1492649  89.1793127 135.2812533  66.1797872  92.5288621 128.3322680
  66.0634130  91.8533524 129.0003765  66.2900132  92.0420995 127.5154833
  68.5229413  91.9898768 132.0369370  68.1587620  91.4629389 132.7482291
  69.3796529  91.5997237 131.8635855  74.4278714  83.2793101 139.3000636
  74.0962039  84.1488512 139.0761851  73.8324327  82.9629385 139.9794666
  68.1634900  87.0188668 127.0330718  68.3309302  87.8868904 127.4001189
  67.9732069  87.1815950 126.1092007  64.3722715  91.9319444 134.7333253
  63.4473211  91.7995658 134.9410945  64.6207128  92.7113663 135.2303195
  74.3207377  87.9988187 136.3793986  73.4124254  87.9303595 136.0852747
  74.2694973  88.4760132 137.2075811  68.1424121  89.4746325 128.0177385
  68.0223746  89.9203376 128.8562865  67.4476709  89.8231643 127.4590923
  61.7331526  91.5752717 135.5677042  61.8623907  91.8287196 136.4816454
  61.0528977  92.1680425 135.2481697  65.9031013 102.2449967 131.6667516
  65.8255043 103.1957792 131.7455997  65.2992657 101.8995840 132.3242442
  76.1869023  86.2004625 138.1571860  75.5443404  86.4937158 137.5111654
  75.6823952  86.0857546 138.9625056  73.8409187  89.9467799 128.8457719
  74.7527043  90.1795185 128.6705416  73.3318834  90.5304843 128.2832798
  68.4781025  89.3065033 139.8552568  69.3242220  89.7304447 139.9987217
  68.4179663  88.6498657 140.5491132  71.1845162  86.1225834 137.0947580
  70.3229641  86.4207088 137.3864317  71.2107597  86.3396233 136.1628612
  68.0006731  94.6668025 133.5021385  68.4645077  94.9455728 132.7126008
  67.7363529  93.7651470 133.3194476  64.8930812  94.2139507 136.4401149
  65.4632169  94.6426775 135.8018633  65.4838924  93.9322091 137.1385334
  66.9375617  90.7891177 130.3110951  67.6399661  91.2412221 130.7784877
  66.6056246  90.1474996 130.9390844  60.6800951  89.0474730 135.6128084
  59.8900005  89.3032259 135.1368195  61.1712199  89.8623068 135.7180125
  62.6315697  89.4119309 132.5711561  61.8346860  89.5238004 133.0895057
  62.4041289  89.7505962 131.7052451  58.9638654  89.3005221 138.0443075
  59.2146693  90.1852230 138.3100651  59.4998203  89.1209822 137.2718167
  68.1769382  97.6032120 130.3873056  68.0415057  98.4483656 130.8157904
  68.7179195  97.8051398 129.6238990  61.6298779  95.1207558 130.9600981
  62.1423300  95.9150808 131.1106546  62.2821492  94.4233849 130.8934582
  63.4393664  98.2373314 133.0423734  63.6160292  99.1591279 132.8544718
  64.2350498  97.9231734 133.4718114  62.7246021  90.2837946 142.9185897
  62.6099536  89.3823203 143.2192996  61.8690538  90.5301643 142.5670714
  71.5261846  81.1262682 138.9171949  71.1826115  82.0164324 138.8411060
  71.8940808  80.9364340 138.0541534  59.5947696  93.4496212 131.7360551
  60.4322918  93.8593221 131.5194259  59.7725964  92.5095655 131.7060745
  71.4912128  91.1171293 127.4244384  70.9758752  91.8875898 127.6632772
  71.2189437  90.4436429 128.0477446  69.0759239  85.9620994 132.4829623
  68.2200836  85.5727844 132.3035261  69.4886191  86.0412955 131.6229408
  70.6058386  83.4967337 136.8821183  70.1023182  83.4597472 136.0688988
  70.8988993  84.4060080 136.9417839  66.8501272  83.5806067 135.8887364
  67.7154269  83.3848875 135.5293254  66.9178781  83.3516419 136.8156721
  76.4646402  93.8703648 129.3597558  75.6875845  93.5314807 128.9152720
  77.1437883  93.8756271 128.6852523  71.2798431  88.9898385 129.2504166
  70.9748567  89.3044534 130.1014309  72.2328874  89.0679805 129.2931499
  69.7244863  95.1488608 130.8997120  69.1966225  94.4141368 130.5870357
  69.2232366  95.9263285 130.6537088  64.4563591  85.8108275 133.2603731
  65.0307343  85.5883456 132.5276924  65.0434573  85.8796969 134.0132332
  73.5143168  91.6982002 134.0668108  74.0275050  92.3311993 134.5689817
  74.1644392  91.0983197 133.7011468  64.7833178  87.8412736 127.2799616
  63.9470490  88.1787422 127.6008891  64.6437948  87.7061716 126.3426753
  66.7586259  82.6849524 131.9878801  66.1050671  82.3698541 131.3635415
  66.7166733  82.0625264 132.7138623  67.8697463  92.9668819 123.9032093
  66.9624525  92.7358072 124.1023242  68.3668495  92.1706438 124.0906074
  70.7765542 101.6766326 126.8228779  70.1027241 101.9798023 127.4313737
  71.1631364 102.4795406 126.4734236  69.9923999  89.1731457 136.3126448
  69.0746560  89.3946404 136.1548136  70.4084143  89.2477768 135.4538155
  70.7759047  90.5722873 131.4429128  71.5230866  91.0844270 131.1336250
  71.0450636  90.2506926 132.3033522  69.0485697  93.0681414 128.4256083
  68.1396916  92.7840446 128.5228552  69.0780781  93.4880492 127.5659390
  74.2804964  96.6788003 132.1947250  73.8267291  95.8378913 132.2512441
  73.6498931  97.3149401 132.5322030  73.2237884  87.6079989 133.4247918
  72.4860641  87.0957375 133.7558160  73.4764657  87.1680371 132.6131195
  72.7237904  98.5164500 133.1297068  73.0160878  99.0769557 132.4109434
  73.2336524  98.8093061 133.8850227  73.3249511  80.3856241 134.0189687
  73.6308388  79.5253605 133.7315602  74.0502116  80.9773861 133.8188681
  59.6173867  90.7886928 132.4071285  59.4198267  90.1956288 131.6822351
  59.0620531  90.4839138 133.1247224  67.5970591  90.6810034 134.5265878
  67.6519201  89.7283871 134.4508355  66.7861793  90.8369473 135.0107176
  68.7461785  94.6090157 125.7644161  68.3081215  93.8926016 125.3049799
  69.4872226  94.8366272 125.2029253  65.5362951  89.2987094 132.2856257
  64.7230816  89.5981264 132.6921449  66.0321945  88.9042783 133.0030739
  67.6871529  99.2944851 134.2190522  67.6447708  99.5205697 133.2899054
  68.6034228  99.0608225 134.3676323  76.8634900  92.8847354 131.8220480
  76.7252798  93.0748950 130.8941669  76.5071118  93.6466737 132.2788531
  65.0277026  86.8705449 137.9017492  65.6676405  86.7294209 137.2040455
  64.1954556  86.5839963 137.5256094  65.8037330  96.1707880 134.0152484
  66.5977928  95.6758200 133.8135059  65.0929022  95.6425743 133.6520190
  62.1120093  90.3150962 130.0912237  61.1817681  90.2535417 130.3082199
  62.2077565  89.7926914 129.2948878  62.0305642  86.8405774 132.6790479
  62.2912459  87.7551108 132.5699639  62.8522814  86.3730217 132.8287091
  63.5030567  88.2543532 139.8489303  64.1753621  88.0460894 139.2001952
  62.6760354  88.0565618 139.4094535  69.4056139  84.8805473 141.8654964
  68.7584054  85.5795422 141.7719440  70.1757155  85.3141616 142.2331212
  68.9756758 101.8445998 129.0375858  69.1508513 101.3734042 129.8521481
  68.2889546 102.4711765 129.2657119  69.9313821  96.1218505 135.0839159
  69.5963653  96.0819275 135.9796809  69.4317766  95.4563220 134.6109569
  63.9058065  91.5286135 140.6091740  63.7677863  90.7966373 141.2103279
  64.8162988  91.4395035 140.3275928  72.8673012  93.4674539 125.3576219
  72.2502183  92.7421367 125.2609272  72.3989501  94.2283899 125.0143293
  66.5340365  91.2406094 140.0975420  67.2439984  90.5999286 140.0562038
  66.4909673  91.4918989 141.0201601  65.2469299  88.2271312 141.9171059
  64.7106656  87.7762050 142.5692656  64.6586008  88.3617221 141.1741524
  64.6571558  87.6859963 124.4797523  63.7801025  87.5648764 124.1159770
  65.1329311  86.8946042 124.2276412  56.1773698  92.4737123 134.5739030
  56.8644738  92.1598853 133.9860046  56.0221827  93.3778488 134.3006282
  60.9808421  87.3627319 139.0024054  60.8966609  86.7552989 138.2674464
  60.1591127  87.8536338 139.0033550  67.8435484 100.0386254 131.7260044
  67.0603006 100.5807934 131.8198268  68.5428229 100.5560233 132.1254285
  71.1532134  85.8480883 134.3694249  71.6500834  85.0950845 134.0495319
  70.3819116  85.8845200 133.8037458  72.2361915  94.6052570 131.9432672
  71.3018194  94.7254033 131.7737377  72.4138584  93.7025037 131.6792682
  67.7367103  87.9898266 134.0965934  67.3664891  87.4369306 134.7846839
  68.2326196  87.3856399 133.5440934  75.6234466  90.4469890 132.4782707
  76.0894919  91.2797881 132.4043009  76.0741967  89.9814871 133.1827965
  73.6910698  96.7913711 129.4768859  73.9670541  96.6770305 130.3862733
  72.8215196  96.3931196 129.4381032  73.5951129  82.8150477 136.5173608
  72.6814209  83.0454703 136.6855815  74.0244231  82.8988921 137.3687640
  70.3264762 101.0400062 133.1201672  70.5087156 100.2221718 133.5829425
  71.1497748 101.2567754 132.6826562  70.6606927  99.9668247 130.3816721
  71.1894693  99.4560701 129.7686883  70.9235147  99.6510777 131.2462254
  61.1624020  97.9832116 138.1252054  61.7477457  97.2375804 138.2579958
  60.9648858  98.2936073 139.0088718  64.0162675 101.0183363 133.1414497
  63.3473050 101.5029491 132.6578537  63.8775545 101.2652584 134.0557875
  55.7541675  90.5537716 136.8456497  55.7925774  90.0201307 137.6393616
  55.2481967  90.0272922 136.2267475  63.1332437  85.4002257 140.3419040
  63.1973763  86.2617088 139.9296437  63.0699557  84.7876258 139.6091398
  62.6084709  87.4725389 143.9892074  63.2356748  87.0902467 144.6029598
  61.7512628  87.2539591 144.3547766  59.3850252  89.2801818 129.9210429
  59.6803693  88.3712497 129.8677482  58.4838288  89.2589558 129.5991431
  62.9144499  87.3557815 135.9037977  62.1931085  87.9693783 135.7645451
  63.7037755  87.8915580 135.8254623  65.7170813  84.6912242 142.1778629
  66.2405214  84.9374538 142.9404938  65.4983146  85.5232276 141.7581766
  61.1138094  86.9615916 130.0449754  60.7850800  86.0813295 129.8624860
  61.4677464  86.9063585 130.9326143  70.3617673  98.5970819 134.5544739
  70.2142635  97.6687526 134.7352310  71.1871166  98.6190910 134.0701815
  64.2279917  87.2488886 130.4125232  64.5675989  87.7774807 129.6903840
  64.6752037  87.5869292 131.1883798  66.9223358  85.6325937 139.8628300
  66.5820178  84.8333750 140.2648980  66.2162364  85.9327647 139.2905133
  67.5739829  82.7175249 138.3155623  68.3965899  82.2435727 138.1934513
  67.8177893  83.4965733 138.8154309  66.2148064  85.7463507 128.6118524
  66.9356426  86.1244760 128.1082241  65.5913368  86.4652384 128.7153502
  70.3579187  86.4508656 129.5476857  70.5742801  87.3333294 129.2465685
  69.8773254  86.0594870 128.8182499  65.0978408  89.4094370 136.1247601
  64.9522989  89.7234673 137.0171883  64.6203612  90.0279270 135.5718500
  66.9574791  86.3996918 136.1728491  66.9436360  85.5038011 135.8360789
  67.6747219  86.4067581 136.8066777  68.8100922  86.8334258 138.2181618
  68.5518700  87.7551329 138.2165949  68.2785962  86.4364692 138.9082082
  73.7547111  99.9385045 130.9971704  73.9283988  99.3731467 130.2445556
  74.2476002 100.7385940 130.8151194  59.5724070  91.9499714 139.0635262
  59.0277538  92.7259522 139.1955537  60.4503420  92.2970519 138.9054384
  66.3611687  85.2811298 131.4416061  66.4827598  84.3527944 131.6406949
  66.0713729  85.2949984 130.5294376  69.2302877  82.9666208 134.5782781
  69.2524574  83.0305541 133.6234760  69.6470936  82.1270717 134.7723287
  79.6086502  92.7021468 132.6162003  80.0517648  91.9528793 132.2181127
  78.7313012  92.6931604 132.2335735  74.7422283  99.2551809 128.0968602
  75.4373188  99.8758502 128.3155917  75.0845433  98.4047161 128.3720980
  60.3590092  91.0769610 141.9565419  59.6171828  91.2252246 142.5430050
  60.0382837  91.3377876 141.0932169  76.6413706  96.7051515 129.6255933
  77.1665030  97.0438788 128.9005253  76.5536059  95.7698530 129.4419067
  60.8046706  98.9635039 133.9875814  61.6304726  98.6638811 133.6074458
  60.4540758  98.1942662 134.4365603  65.7728239  98.3161507 136.0573488
  65.1508248  97.6532212 135.7575715  66.4433106  98.3422639 135.3747135
  59.0055311  96.8821366 134.9464748  58.1687219  96.4543540 134.7648749
  58.9778956  97.0753809 135.8835539  65.3341746  96.8665431 129.5331948
  65.4829866  97.5500895 128.8798621  66.1408189  96.8470521 130.0481404
  63.0894379  92.8930608 130.5393017  62.8440421  91.9892938 130.7373227
  63.2590294  92.8947759 129.5972495  70.7791089  83.7654285 139.9217773
  71.2973033  84.5015312 139.5964261  70.4246222  84.0718278 140.7564532
  62.3590027  88.6258966 128.0379179  61.6659271  88.7003321 127.3819214
  62.1141778  87.8619309 128.5600695  71.0303683  80.1854567 135.4418669
  71.3105437  79.5177756 136.0679096  71.8154290  80.3783663 134.9293333
  68.8337152  99.3613561 127.0043696  68.2611119  99.9803748 126.5514167
  69.4069945  99.9112923 127.5383617  72.9226921  85.6927784 139.3749645
  72.3276853  85.9732797 138.6796134  72.6376618  86.1821685 140.1466386
  72.0534411  99.6450711 128.1352278  72.9865084  99.5796273 128.3385153
  71.9657624 100.4806978 127.6766810  74.6822428  98.9616582 125.0956225
  74.6036060  98.6276445 125.9891983  75.5032095  99.4538349 125.0947698
  69.2183950  90.6974374 124.3459748  70.1643055  90.5680582 124.4148166
  68.8398195  89.9589036 124.8229176  75.1905835  82.3630380 134.3086640
  74.9930656  82.0545468 135.1929972  75.8005540  83.0892019 134.4384570
  67.4026867  88.6224350 124.2814633  66.4958323  88.3257463 124.3577347
  67.6802848  88.3254168 123.4148920  58.3204808  89.9430714 134.7313680
  58.0007592  89.0896022 134.4388054  57.7738236  90.1579292 135.4871647
  62.0984715  92.6593155 138.4483186  62.3170725  93.5910262 138.4671220
  62.5110489  92.3001129 139.2337990  69.0188933  83.1661240 130.4358875
  68.2089661  82.8208325 130.8114121  69.7073350  82.8568784 131.0246486
  70.9479481  82.2439287 132.0583171  71.5010520  82.6634740 132.7173194
  71.1849568  81.3175035 132.1006127  66.1725652  85.4811285 124.4226612
  67.0344816  85.8066184 124.6822430  66.3575996  84.6942781 123.9099678
  58.1893068  93.5633625 136.7006801  57.4956539  93.1487578 136.1876756
  58.9366059  93.6054162 136.1040220  74.3258288  84.3539812 131.5661835
  73.7456957  85.0124616 131.1839888  74.0594221  83.5317157 131.1549253
  72.7761855  83.7544870 133.7683156  73.2761633  83.8661404 132.9597475
  73.4197463  83.4505922 134.4083964  60.1029810  93.4951879 134.5772816
  60.0800498  93.5939566 133.6254699  60.4130447  94.3417030 134.8989982
  62.7617188  95.5528034 138.6919431  63.7160442  95.5211976 138.6249362
  62.5629712  95.0918658 139.5069656  73.1083166  86.5139902 130.6218184
  72.2209021  86.7989553 130.4038378  73.5237155  86.3533666 129.7745461
  76.4597702  86.5386423 134.3372523  77.2358093  87.0282876 134.6097140
  75.7345837  86.9644477 134.7944392  78.8970261  87.2514042 135.3946464
  79.4914752  87.0109778 134.6839772  78.9696845  86.5321173 136.0220000
  61.1167417 101.0947653 135.7089628  60.9821885 100.3348054 135.1427626
  60.6999479 101.8188553 135.2418417  72.2526380  96.2784577 124.7166204
  72.9562230  96.4834579 125.3323859  71.5289029  96.8461339 124.9815287
  73.0824190  92.0294438 130.8368474  73.0259391  92.4862990 129.9976106
  73.6352533  91.2685123 130.6591317  76.8928996  87.8184170 131.6618593
  76.6365930  87.4180806 132.4926801  76.2681864  88.5327964 131.5368733
  81.2041334  90.5580243 134.1689885  80.6440892  90.6273433 134.9421447
  80.5984837  90.3821228 133.4489381  74.1613077  96.7167106 126.7664664
  74.9958681  96.2848305 126.5842139  73.9997420  96.5449120 127.6941558
  73.8158969  93.2199219 128.1321003  73.7607773  93.0543491 127.1909447
  73.1905025  93.9275252 128.2883193  58.6051484  88.4567284 141.9582425
  59.2510348  87.9466238 142.4469650  58.3968635  89.1935965 142.5325851
  67.1255095  82.7207328 127.7106321  67.1133765  83.6649168 127.8674592
  68.0178517  82.5377474 127.4165783  70.9407214  79.3150105 131.9652258
  70.1739610  78.7608592 132.1108941  71.3517919  79.3871974 132.8266410
  77.2995338 105.9552433 126.1298305  77.5520859 105.4333954 125.3681768
  76.3619897 105.7918578 126.2324989  79.0028655 102.3480586 127.0330718
  79.1703057 103.2160822 127.4001189  78.8125824 102.5107867 126.1092007
  75.6226933 103.1704653 127.2799616  74.7864245 103.5079340 127.6008891
  75.4831702 103.0353633 126.3426753  77.5980013  98.0141441 131.9878801
  76.9444425  97.6990458 131.3635415  77.5560487  97.3917182 132.7138623
  78.7091218 108.2960736 123.9032093  77.8018280 108.0649990 124.1023242
  79.2062250 107.4998356 124.0906074  72.9513848 105.6442879 130.0912237
  72.0211436 105.5827335 130.3082199  73.0471319 105.1218832 129.2948878
  75.4965313 103.0151881 124.4797523  74.6194779 102.8940682 124.1159770
  75.9723066 102.2237959 124.2276412  70.2244007 104.6093736 129.9210429
  70.5197448 103.7004415 129.8677482  69.3232042 104.5881476 129.5991431
  71.9531848 102.2907834 130.0449754  71.6244554 101.4105213 129.8624860
  72.3071219 102.2355502 130.9326143  77.0541818 101.0755425 128.6118524
  77.7750181 101.4536678 128.1082241  76.4307123 101.7944302 128.7153502
  77.2005442 100.6103216 131.4416061  77.3221353  99.6819862 131.6406949
  76.9107484 100.6241902 130.5294376  73.1983781 103.9550884 128.0379179
  72.5053026 104.0295239 127.3819214  72.9535533 103.1911227 128.5600695
  80.0577705 106.0266292 124.3459748  81.0036809 105.8972500 124.4148166
  79.6791949 105.2880953 124.8229176  78.2420622 103.9516268 124.2814633
  77.3352077 103.6549381 124.3577347  78.5196603 103.6546086 123.4148920
  79.8582687  98.4953158 130.4358875  79.0483416  98.1500243 130.8114121
  80.5467104  98.1860701 131.0246486  77.0119406 100.8103203 124.4226612
  77.8738570 101.1358101 124.6822430  77.1969750 100.0234699 123.9099678
  77.9648849  98.0499246 127.7106321  77.9527519  98.9941086 127.8674592
  78.8572271  97.8669392 127.4165783  81.7800969  94.6442023 131.9652258
  81.0133365  94.0900509 132.1108941  82.1911674  94.7163892 132.8266410
  37.6798416  28.3965081 114.8238028  37.0286396  28.9819162 114.4372041
  38.4742779  28.9271276 114.8833065  43.9465140  24.8890017 116.0842865
  43.1694583  24.5501177 115.6398027  44.6256621  24.8942640 115.4097830
  35.3516201  23.9855188 110.6277399  34.4443263  23.7544442 110.8268548
  35.8487233  23.1892808 110.8151381  38.2584280  32.6952695 113.5474085
  37.5845979  32.9984392 114.1559043  38.6450102  33.4981776 113.1979542
  36.2280523  25.6276527 112.4889468  35.7899952  24.9112386 112.0295105
  36.9690963  25.8552642 111.9274559  36.4575495  32.8632368 115.7621165
  36.6327251  32.3920411 116.5766787  35.7708283  33.4898134 115.9902425
  40.3491750  24.4860908 112.0821525  39.7320921  23.7607737 111.9854578
  39.8808239  25.2470269 111.7388600  41.1729435  27.8100080 116.2014165
  41.4489279  27.6956675 117.1108039  40.3033934  27.4117565 116.1626338
  38.1425665  30.9854616 117.1062027  38.6713431  30.4747071 116.4932189
  38.4053884  30.6697147 117.9707560  41.2365848  30.9571415 117.7217010
  41.4102726  30.3917837 116.9690863  41.7294740  31.7572309 117.5396500
  42.2241021  30.2738179 114.8213909  42.9191926  30.8944872 115.0401223
  42.5664171  29.4233530 115.0966286  44.1232444  27.7237885 116.3501239
  44.6483768  28.0625157 115.6250559  44.0354797  26.7884900 116.1664374
  36.3155889  30.3799931 113.7289002  35.7429856  30.9990118 113.2759474
  36.8888683  30.9299292 114.2628924  39.5353149  30.6637081 114.8597584
  40.4683822  30.5982642 115.0630460  39.4476362  31.4993348 114.4012117
  42.1641166  29.9802951 111.8201532  42.0854797  29.6462815 112.7137290
  42.9850833  30.4724719 111.8193004  36.7002688  21.7160743 111.0705055
  37.6461793  21.5866952 111.1393473  36.3216933  20.9775405 111.5474483
  39.7345118  27.2970947 111.4411510  40.4380968  27.5020949 112.0569166
  39.0107766  27.8647708 111.7060594  41.6431815  27.7353476 113.4909970
  42.4777419  27.3034674 113.3087445  41.4816158  27.5635489 114.4186865
  41.2977707  24.2385589 114.8566310  41.2426511  24.0729860 113.9154754
  40.6723762  24.9461622 115.0128499  50.2716090  38.2523127 123.5865147
  50.9094500  38.1329874 122.8828487  50.1536933  39.2003971 123.6453099
  47.0805796  38.2050555 123.5226672  46.7424308  38.0891620 122.6347207
  47.9495565  37.8041720 123.5027678  42.9392612  40.0586031 119.5123563
  42.3757477  39.9675968 118.7439851  42.8245007  39.2385936 119.9926055
  40.4857044  41.5537223 122.3507783  41.2778336  41.2128048 121.9354083
  40.7253694  41.6632198 123.2709937  48.5192171  43.7256999 114.8238028
  47.8680151  44.3111079 114.4372041  49.3136534  44.2563194 114.8833065
  42.4447798  40.8146136 115.2225162  43.2178674  40.2675123 115.0838038
  42.7973197  41.6790386 115.4339623  45.2089047  39.5199367 125.0193421
  45.8052620  39.2955389 124.3050384  45.2664019  38.7784112 125.6218869
  44.7814076  36.9738802 112.8543612  45.0339596  36.4520324 112.0927075
  43.8438635  36.8104948 112.9570296  49.8257359  35.9774581 120.6618355
  50.6120448  35.5594004 120.3108772  50.0896063  36.8820673 120.8300004
  49.9967436  41.4147431 115.3607012  49.3613269  41.4882058 116.0727917
  49.6664842  42.0041030 114.6826091  55.2265786  35.9149814 121.5651334
  55.9590958  35.3449031 121.7989163  54.4705141  35.5271414 122.0057839
  44.5010364  38.8766908 115.0567987  44.3846623  38.2011812 115.7249071
  44.6112624  38.3899282 114.2400140  46.8441905  38.3377055 118.7614676
  46.4800113  37.8107676 119.4727598  47.7009021  37.9475524 118.5881162
  46.4847392  33.3666955 113.7576025  46.6521795  34.2347191 114.1246496
  46.2944561  33.5294237 112.8337314  49.2422726  41.8283934 125.4241855
  48.9423449  42.7308973 125.3157662  48.8973785  41.5616117 126.2763008
  42.6935207  38.2797731 121.4578559  41.7685704  38.1473945 121.6656251
  42.9419620  39.0591950 121.9548502  52.6419869  34.3466474 123.1039292
  51.7336747  34.2781883 122.8098053  52.5907465  34.8238419 123.9321118
  46.4636613  35.8224613 114.7422691  46.3436238  36.2681663 115.5808172
  45.7689202  36.1709930 114.1836230  40.0544018  37.9231004 122.2922349
  40.1836399  38.1765483 123.2061760  39.3741469  38.5158712 121.9727004
  44.2243505  48.5928254 118.3912823  44.1467535  49.5436079 118.4701303
  43.6205149  48.2474127 119.0487749  54.5081516  32.5482913 124.8817166
  53.8655896  32.8415446 124.2356961  54.0036444  32.4335833 125.6870363
  52.1621679  36.2946086 115.5703026  53.0739536  36.5273473 115.3950723
  51.6531326  36.8783130 115.0078104  50.7691262  41.2771904 122.9616607
  50.1400124  41.4417618 122.2592675  50.3816924  41.6913514 123.7327571
  54.6480494  42.2126342 120.3160971  53.9631532  42.5925243 119.7658004
  54.7324343  42.8221669 121.0492919  51.9031425  39.8586301 126.9156314
  52.1148320  40.5018061 126.2390695  51.8561173  39.0248618 126.4478244
  46.3219224  41.0146312 120.2266692  46.7857569  41.2934015 119.4371315
  46.0576022  40.1129757 120.0439783  43.2143305  40.5617794 123.1646455
  43.7844662  40.9905062 122.5263940  43.8051417  40.2800379 123.8630641
  45.2588110  37.1369465 117.0356257  45.9612153  37.5890508 117.5030184
  44.9268738  36.4953284 117.6636150  53.0177253  42.7358257 125.0878672
  53.8394697  42.3338444 124.8061353  53.0139656  42.6326491 126.0394787
  40.9528189  35.7597597 119.2956868  40.1559352  35.8716291 119.8140363
  40.7253781  36.0984249 118.4297758  46.7833857  42.2842300 127.2439382
  46.8478289  42.7462707 128.0797554  46.0744781  41.6539665 127.3721692
  61.1083246  39.0797005 121.4363643  60.3546955  38.5104403 121.2807648
  61.2430787  39.0459669 122.3834278  46.4981874  43.9510407 117.1118362
  46.3627549  44.7961943 117.5403210  47.0391687  44.1529685 116.3484296
  39.9511272  41.4685845 117.6846288  40.4635792  42.2629096 117.8351852
  40.6033985  40.7712136 117.6179889  41.7606156  44.5851602 119.7669041
  41.9372785  45.5069566 119.5790025  42.5562990  44.2710021 120.1963421
  42.8837472  46.1029775 125.7679383  43.4344897  45.9746839 124.9956377
  42.0448948  46.4024664 125.4174276  50.2231589  44.8536774 129.2700106
  50.2050064  45.6745655 128.7780375  51.1451509  44.7290849 129.4950247
  37.9160188  39.7974500 118.4605858  38.7535410  40.2071508 118.2439566
  38.0938456  38.8573942 118.4306052  49.8124621  37.4649580 114.1489691
  49.2971244  38.2354185 114.3878078  49.5401929  36.7914716 114.7722752
  47.3971732  32.3099281 119.2074929  46.5413328  31.9206131 119.0280568
  47.8098683  32.3891242 118.3474715  54.7858895  40.2181935 116.0842865
  54.0088337  39.8793094 115.6398027  55.4650376  40.2234558 115.4097830
  49.6010924  35.3376672 115.9749472  49.2961059  35.6522822 116.8259615
  50.5541366  35.4158092 116.0176805  48.0457356  41.4966896 117.6242426
  47.5178717  40.7619655 117.3115664  47.5444858  42.2741572 117.3782395
  53.0250202  39.6915916 122.7409473  52.3673876  40.3815178 122.8289601
  53.8290601  40.0812348 123.0843459  42.7776083  32.1586562 119.9849038
  43.3519835  31.9361743 119.2522231  43.3647066  32.2275256 120.7377639
  51.8355660  38.0460289 120.7913414  52.3487542  38.6790281 121.2935124
  52.4856884  37.4461484 120.4256774  43.1045670  34.1891023 114.0044923
  42.2682983  34.5265710 114.3254198  42.9650440  34.0540003 113.0672060
  45.0798751  29.0327811 118.7124107  44.4263163  28.7176828 118.0880722
  45.0379225  28.4103551 119.4383930  46.1909956  39.3147106 110.6277399
  45.2837018  39.0836359 110.8268548  46.6880988  38.5184725 110.8151381
  49.0978035  48.0244613 113.5474085  48.4239733  48.3276310 114.1559043
  49.4843857  48.8273693 113.1979542  48.3136491  35.5209744 123.0371755
  47.3959053  35.7424691 122.8793443  48.7296635  35.5956055 122.1783462
  49.0971539  36.9201160 118.1674435  49.8443358  37.4322557 117.8581557
  49.3663129  36.5985213 119.0278829  47.3698189  39.4159701 115.1501389
  46.4609408  39.1318734 115.2473859  47.3993273  39.8358779 114.2904696
  52.6017457  43.0266290 118.9192557  52.1479784  42.1857200 118.9757747
  51.9711423  43.6627689 119.2567337  51.5450376  33.9558276 120.1493224
  50.8073133  33.4435663 120.4803467  51.7977150  33.5158658 119.3376501
  51.0450396  44.8642787 119.8542375  51.3373370  45.4247844 119.1354741
  51.5549016  45.1571348 120.6095534  51.6462004  26.7334528 120.7434994
  51.9520880  25.8731892 120.4560909  52.3714608  27.3252149 120.5433988
  37.9386360  37.1365215 119.1316592  37.7410759  36.5434576 118.4067658
  37.3833024  36.8317425 119.8492530  45.9183083  37.0288321 121.2511185
  45.9731693  36.0762158 121.1753661  45.1074285  37.1847761 121.7352483
  47.0674277  40.9568445 112.4889468  46.6293707  40.2404303 112.0295105
  47.8084718  41.1844559 111.9274559  43.8575443  35.6465381 119.0101564
  43.0443309  35.9459552 119.4166756  44.3534437  35.2521070 119.7276046
  46.0084021  45.6423138 120.9435828  45.9660200  45.8683984 120.0144360
  46.9246720  45.4086513 121.0921629  55.1847392  39.2325642 118.5465786
  55.0465290  39.4227238 117.6186976  54.8283611  39.9945024 119.0033838
  55.2116771  41.3002169 123.5577058  55.6453278  41.2077458 124.4060112
  55.9248352  41.2759669 122.9197074  44.1249822  42.5186167 120.7397791
  44.9190420  42.0236487 120.5380366  43.4141514  41.9904030 120.3765497
  48.9444666  44.9004263 125.0910159  48.9981689  45.4695199 125.8587874
  48.0759448  45.0706148 124.7264196  40.4332585  36.6629249 116.8157544
  39.5030173  36.6013704 117.0327506  40.5290057  36.1405202 116.0194185
  40.3518134  33.1884062 119.4035785  40.6124952  34.1029395 119.2944946
  41.1735307  32.7208504 119.5532398  56.0732321  41.3425869 126.0909943
  56.2668211  42.2471680 126.3369218  55.9732939  40.8833288 126.9248528
  47.9032766  39.0664525 126.6497090  48.8324826  39.2175684 126.4766058
  47.4823796  39.1548545 125.7945737  46.7021098  43.0915189 124.4195628
  46.5632184  42.7233974 125.2921566  45.9135694  43.6062829 124.2479586
  47.2969250  48.1924286 115.7621165  47.4721005  47.7212329 116.5766787
  46.6102038  48.8190052 115.9902425  48.2526313  42.4696792 121.8084466
  47.9176146  42.4297562 122.7042116  47.7530259  41.8041508 121.3354876
  51.1885505  39.8152826 112.0821525  50.5714675  39.0899654 111.9854578
  50.7201993  40.5762186 111.7388600  52.8439636  44.5251734 129.7427306
  52.7852182  43.8410955 129.0757889  53.2459155  45.2670725 129.2907932
  41.8630335  51.3413648 122.5361025  42.1026933  51.9732173 123.2140043
  41.0199532  50.9901688 122.8226384  42.9784051  34.0338250 111.2042830
  42.1013517  33.9127051 110.8405076  43.4541804  33.2424329 110.9521718
  52.8457044  42.4891318 127.9741286  51.9583822  42.1517240 128.0967684
  53.4155595  41.7574350 128.2110051  34.4986191  38.8215410 121.2984337
  35.1857231  38.5077140 120.7105352  34.3434319  39.7256775 121.0251588
  46.3758197  47.1492771 124.9402529  46.3028368  47.9547742 125.4521833
  45.9335590  47.3484737 124.1150550  46.1647977  46.3864541 118.4505350
  45.3815498  46.9286221 118.5443575  46.8640722  46.9038520 118.8499591
  49.4744627  32.1959170 121.0939556  49.9713326  31.4429133 120.7740626
  48.7031608  32.2323487 120.5282765  57.3274384  37.8999536 122.7357847
  57.3164260  38.7824251 122.3651780  56.4591764  37.5471087 122.5412384
  48.8356880  47.0479605 127.0960687  49.5484853  47.6827070 127.0236589
  48.3446909  47.1443471 126.2800689  50.5574407  40.9530857 118.6677979
  49.6230686  41.0732320 118.4982683  50.7351076  40.0503324 118.4037989
  46.0579595  34.3376553 120.8211240  45.6877383  33.7847594 121.5092146
  46.5538688  33.7334687 120.2686240  53.9446959  36.7948177 119.2028013
  54.4107411  37.6276168 119.1288316  54.3954459  36.3293158 119.9073272
  43.8868794  44.7974048 127.9166258  44.5878253  45.4310531 128.0695652
  43.4163909  45.1388780 127.1561897  52.0123190  43.1391998 116.2014165
  52.2883034  43.0248593 117.1108039  51.1427689  42.7409483 116.1626338
  51.6870080  37.3518656 125.7418809  51.0341530  37.5994563 125.0871261
  52.0650460  36.5382794 125.4081286  48.6477254  47.3878349 119.8446979
  48.8299648  46.5700005 120.3074731  49.4710240  47.6046041 119.4071869
  48.9819419  46.3146534 117.1062027  49.5107186  45.8038989 116.4932189
  49.2447639  45.9989064 117.9707560  39.4836512  44.3310403 124.8497361
  40.0689949  43.5854091 124.9825265  39.2861351  44.6414360 125.7334025
  42.3375167  47.3661651 119.8659803  41.6685543  47.8507778 119.3823843
  42.1988037  47.6130871 120.7803182  46.4780436  49.4005394 126.4642462
  47.0298744  49.5637016 127.2291547  46.8186629  49.9909832 125.7922486
  37.7062744  35.6280106 116.6455735  38.0016185  34.7190784 116.5922789
  36.8050780  35.6067845 116.3236738  49.6148823  47.3487370 123.4506144
  49.4899963  46.5477110 122.9417089  50.2727914  47.8433563 122.9620114
  51.6783732  45.1496390 125.0785694  50.7314067  45.0301741 125.0064021
  52.0266505  44.2618888 125.1611955  39.4350586  33.3094203 116.7695061
  39.1063292  32.4291582 116.5870166  39.7889957  33.2541872 117.6571450
  48.6830165  44.9449106 121.2790046  48.5355127  44.0165813 121.4597616
  49.5083658  44.9669197 120.7947121  42.5492409  33.5967173 117.1370538
  42.8888482  34.1253094 116.4149147  42.9964530  33.9347579 117.9129105
  52.2864287  45.7677665 122.3654919  53.2110834  45.5620526 122.2279370
  52.1179590  45.5194066 123.2744260  44.5360556  32.0941795 115.3363831
  45.2568919  32.4723048 114.8327548  43.9125860  32.8130672 115.4398809
  48.6791679  32.7986944 116.2722163  48.8955294  33.6811582 115.9710992
  48.1985746  32.4073157 115.5427805  52.0759603  46.2863332 117.7217010
  52.2496480  45.7209755 116.9690863  52.5688494  47.0864227 117.5396500
  44.6824179  31.6289585 118.1661368  44.8040091  30.7006231 118.3652255
  44.3926222  31.6428271 117.2539683  57.9298994  39.0499755 119.3407310
  58.3730140  38.3007080 118.9426433  57.0525504  39.0409892 118.9581042
  53.0634775  45.6030097 114.8213909  53.7585680  46.2236789 115.0401223
  53.4057926  44.7525448 115.0966286  54.9626198  43.0529802 116.3501239
  55.4877523  43.3917075 115.6250559  54.8748551  42.1176818 116.1664374
  46.6246247  46.9663876 128.4791116  46.9333374  46.7213023 129.3513816
  47.4221729  47.1710514 127.9909986  46.6466859  49.1201785 120.7096493
  46.2071850  48.6278164 121.4029349  47.3974976  48.5774753 120.4688568
  39.1259198  45.3113326 120.7121121  39.9517218  45.0117098 120.3319764
  38.7753250  44.5420949 121.1610909  44.0940731  44.6639795 122.7818794
  43.4720741  44.0010500 122.4821022  44.7645598  44.6900926 122.0992442
  37.3267803  43.2299653 121.6710054  36.4899712  42.8021827 121.4894055
  37.2991449  43.4232096 122.6080845  54.6520105  43.6862706 131.6552437
  53.8615648  43.6686845 131.1156937  54.4153459  44.2251000 132.4101474
  54.7717980  40.5355172 128.9685166  54.8215985  40.3705180 129.9100689
  54.6631903  39.6682431 128.5783047  43.6554238  43.2143718 116.2577255
  43.8042359  43.8979182 115.6043927  44.4620682  43.1948808 116.7726710
  56.2736176  42.9552114 129.2127187  55.9820985  43.3182094 130.0490648
  55.6608308  42.2419122 129.0340519  57.4731859  40.5204993 121.7329758
  58.3078750  40.9594798 121.8967318  57.6090988  40.0443647 120.9138003
  54.5223365  38.0784728 127.6807245  54.9977486  38.2712375 126.8726097
  53.5988930  38.1343914 127.4350629  41.4106871  39.2408896 117.2638324
  41.1652913  38.3371226 117.4618534  41.5802786  39.2426046 116.3217802
  40.6802519  34.9737253 114.7624485  39.9871764  35.0481608 114.1064521
  40.4354271  34.2097597 115.2846002  47.1549644  45.7091848 113.7289002
  46.5823611  46.3282035 113.2759474  47.7282437  46.2591210 114.2628924
  53.2225034  34.9550488 125.9135551  54.1742457  35.0548586 125.9347775
  53.0528484  34.1628757 126.4233635  50.3746904  45.9928998 114.8597584
  51.3077577  45.9274560 115.0630460  50.2870116  46.8285265 114.4012117
  53.0034920  45.3094869 111.8201532  52.9248552  44.9754732 112.7137290
  53.8244587  45.8016637 111.8193004  55.7013111  38.1756608 125.0277851
  55.6689432  37.2372609 125.2137534  56.3113735  38.2540645 124.2943676
  47.5396442  37.0452661 111.0705055  48.4855547  36.9158869 111.1393473
  47.1610687  36.3067323 111.5474483  55.8507600  34.9667652 125.0736134
  55.3346649  34.1826108 124.8866063  56.7347548  34.6386368 125.2382653
  53.5118327  28.7108667 121.0331946  53.3143148  28.4023755 121.9175278
  54.1218032  29.4370306 121.1629876  61.5189661  39.2372615 124.1683887
  62.2493050  38.9757903 124.7291591  60.9096607  38.5001337 124.2085955
  59.6004958  37.3780478 124.7658339  58.8738122  37.2436442 124.1574830
  59.1852245  37.6857306 125.5715057  45.7239359  34.9702637 111.0059940
  44.8170815  34.6735750 111.0822654  46.0015340  34.6732456 110.1394226
  47.3401425  29.5139527 117.1604181  46.5302154  29.1686612 117.5359427
  48.0285842  29.2047071 117.7491793  49.2691973  28.5917574 118.7828478
  49.8223012  29.0113027 119.4418501  49.5062060  27.6653322 118.8251434
  44.4938144  31.8289573 111.1471919  45.3557308  32.1544471 111.4067736
  44.6788488  31.0421069 110.6344985  52.6470781  30.7018099 118.2907142
  52.0669450  31.3602903 117.9085195  52.3806713  29.8795444 117.8794560
  51.0974347  30.1023157 120.4928462  51.5974125  30.2139691 119.6842781
  51.7409955  29.7984210 121.1329271  38.4242302  39.8430166 121.3018123
  38.4012990  39.9417853 120.3500006  38.7342939  40.6895317 121.6235289
  51.4295659  32.8618190 117.3463490  50.5421514  33.1467840 117.1283685
  51.8449648  32.7011953 116.4990767  54.7810195  32.8864711 121.0617830
  55.5570585  33.3761163 121.3342446  54.0558329  33.3122765 121.5189699
  57.2182753  33.5992330 122.1191770  57.8127244  33.3588066 121.4085078
  57.2909337  32.8799460 122.7465307  39.4379909  47.4425941 122.4334935
  39.3034377  46.6826342 121.8672933  39.0211971  48.1666841 121.9663724
  50.5738872  42.6262864 111.4411510  51.2774722  42.8312867 112.0569166
  49.8501521  43.1939626 111.7060594  51.4036682  38.3772725 117.5613781
  51.3471884  38.8341277 116.7221413  51.9565025  37.6163410 117.3836623
  55.2141488  34.1662457 118.3863900  54.9578422  33.7659093 119.2172108
  54.5894356  34.8806251 118.2614039  59.5253826  36.9058531 120.8935191
  58.9653384  36.9751720 121.6666753  58.9197329  36.7299515 120.1734688
  42.5949035  48.3395258 122.6453378  42.4781419  49.2840690 122.5432068
  41.7741481  48.0368819 123.0339177  52.4825569  43.0645393 113.4909970
  53.3171173  42.6326592 113.3087445  52.3209912  42.8927407 114.4186865
  52.1371462  39.5677507 114.8566310  52.0820265  39.4021778 113.9154754
  51.5117517  40.2753540 115.0128499  45.4467587  29.0685616 114.4351628
  45.4346257  30.0127456 114.5919899  46.3391009  28.8855761 114.1411089
  43.6203549  48.9923520 125.8609306  44.5230796  49.0247130 126.1775801
  43.3940919  48.0623971 125.8755642  45.3757151  47.7454506 122.5219385
  44.4252782  47.7456368 122.4083757  45.6789637  46.9987241 122.0055419
  49.2619707  25.6628392 118.6897565  48.4952102  25.1086879 118.8354247
  49.6730412  25.7350261 119.5511717  61.1109845  53.5815045 123.5865147
  61.7488255  53.4621792 122.8828487  60.9930687  54.5295888 123.6453099
  57.9199551  53.5342473 123.5226672  57.5818062  53.4183537 122.6347207
  58.7889319  53.1333638 123.5027678  53.7786367  55.3877949 119.5123563
  53.2151232  55.2967886 118.7439851  53.6638762  54.5677853 119.9926055
  58.4019334  54.6877324 129.4812877  58.3907975  54.2930123 128.6093381
  58.5639973  53.9543397 130.0746649  51.3250798  56.8829141 122.3507783
  52.1172090  56.5419965 121.9354083  51.5647449  56.9924116 123.2709937
  59.3585925  59.0548917 114.8238028  58.7073905  59.6402997 114.4372041
  60.1530288  59.5855112 114.8833065  53.2841552  56.1438054 115.2225162
  54.0572428  55.5967041 115.0838038  53.6366951  57.0082303 115.4339623
  55.1226595  57.4714436 128.4292061  54.8316461  58.3760067 128.3138728
  55.7583579  57.5130964 129.1436131  56.0482802  54.8491285 125.0193421
  56.6446374  54.6247307 124.3050384  56.1057773  54.1076030 125.6218869
  55.6207830  52.3030720 112.8543612  55.8733351  51.7812241 112.0927075
  54.6832389  52.1396865 112.9570296  60.6651113  51.3066498 120.6618355
  61.4514202  50.8885922 120.3108772  60.9289817  52.2112591 120.8300004
  60.8361190  56.7439349 115.3607012  60.2007023  56.8173975 116.0727917
  60.5058597  57.3332948 114.6826091  66.0659540  51.2441732 121.5651334
  66.7984712  50.6740948 121.7989163  65.3098896  50.8563332 122.0057839
  55.3404119  54.2058826 115.0567987  55.2240377  53.5303729 115.7249071
  55.4506379  53.7191200 114.2400140  57.6835660  53.6668973 118.7614676
  57.3193867  53.1399594 119.4727598  58.5402776  53.2767442 118.5881162
  63.5884961  44.9563306 126.0245942  63.2568285  45.8258717 125.8007157
  62.9930574  44.6399590 126.7039973  57.3241147  48.6958873 113.7576025
  57.4915549  49.5639109 114.1246496  57.1338316  48.8586154 112.8337314
  60.0816480  57.1575852 125.4241855  59.7817203  58.0600890 125.3157662
  59.7367540  56.8908035 126.2763008  53.5328962  53.6089649 121.4578559
  52.6079458  53.4765863 121.6656251  53.7813375  54.3883868 121.9548502
  63.4813624  49.6758392 123.1039292  62.5730501  49.6073800 122.8098053
  63.4301220  50.1530337 123.9321118  57.3030368  51.1516530 114.7422691
  57.1829993  51.5973581 115.5808172  56.6082956  51.5001848 114.1836230
  50.8937773  53.2522922 122.2922349  51.0230154  53.5057401 123.2061760
  50.2135224  53.8450630 121.9727004  55.0637260  63.9220172 118.3912823
  54.9861290  64.8727997 118.4701303  54.4598903  63.5766045 119.0487749
  57.5554490  51.0948037 131.0474190  56.7787824  51.6541958 131.0377054
  58.1945053  51.5804820 131.5689060  65.3475270  47.8774830 124.8817166
  64.7049650  48.1707363 124.2356961  64.8430199  47.7627751 125.6870363
  63.0015434  51.6238003 115.5703026  63.9133290  51.8565390 115.3950723
  62.4925081  52.2075048 115.0078104  55.8100862  53.9033491 130.6092157
  56.5515546  54.4418535 130.3326980  55.1037847  54.5299780 130.7663708
  61.2856202  56.0462631 129.2064318  61.6939558  55.6045042 128.4618950
  60.5633463  55.4715259 129.4598511  57.6387272  50.9835238 126.5797875
  58.4848467  51.4074652 126.7232524  57.5785909  50.3268862 127.2736438
  61.6085016  56.6063822 122.9616607  60.9793879  56.7709536 122.2592675
  61.2210678  57.0205431 123.7327571  65.4874248  57.5418260 120.3160971
  64.8025286  57.9217161 119.7658004  65.5718097  58.1513586 121.0492919
  60.7886717  48.6439606 128.2379049  60.5447649  49.3981667 127.7013324
  61.0646647  49.0224954 129.0726296  62.7425180  55.1878219 126.9156314
  62.9542075  55.8309979 126.2390695  62.6954928  54.3540535 126.4478244
  60.3451409  47.7996039 123.8192886  59.4835888  48.0977293 124.1109624
  60.3713843  48.0166438 122.8873919  57.1612978  56.3438230 120.2266692
  57.6251324  56.6225933 119.4371315  56.8969776  55.4421675 120.0439783
  54.0537059  55.8909712 123.1646455  54.6238416  56.3196980 122.5263940
  54.6445171  55.6092296 123.8630641  56.0981864  52.4661382 117.0356257
  56.8005907  52.9182426 117.5030184  55.7662493  51.8245201 117.6636150
  54.5462226  51.0573139 131.4107467  53.9160886  51.7389420 131.6442863
  54.4398314  50.9456221 130.4660605  49.8407198  50.7244935 122.3373391
  49.0506252  50.9802464 121.8613501  50.3318445  51.5393273 122.4425431
  63.8571008  58.0650174 125.0878672  64.6788451  57.6630361 124.8061353
  63.8533411  57.9618408 126.0394787  51.7921943  51.0889514 119.2956868
  50.9953107  51.2008209 119.8140363  51.5647536  51.4276166 118.4297758
  57.6227611  57.6134217 127.2439382  57.6872044  58.0754625 128.0797554
  56.9138535  56.9831582 127.3721692  48.1244901  50.9775425 124.7688382
  48.3752940  51.8622435 125.0345958  48.6604449  50.7980027 123.9963473
  71.9477001  54.4088923 121.4363643  71.1940709  53.8396321 121.2807648
  72.0824542  54.3751587 122.3834278  57.3375629  59.2802325 117.1118362
  57.2021304  60.1253861 117.5403210  57.8785441  59.4821603 116.3484296
  50.7905026  56.7977763 117.6846288  51.3029547  57.5921013 117.8351852
  51.4427739  56.1004053 117.6179889  52.5999911  59.9143519 119.7669041
  52.7766539  60.8361484 119.5790025  53.3956744  59.6001939 120.1963421
  56.7410929  46.7751784 131.3652974  57.4820643  47.3758937 131.2857437
  56.9728852  46.0329422 130.8071017  51.8852267  51.9608151 129.6431204
  51.7705783  51.0593408 129.9438303  51.0296785  52.2071848 129.2916020
  58.9644105  59.9025891 131.2418705  58.5207959  59.1162270 130.9239609
  59.6261319  60.0905042 130.5762595  53.7231226  61.4321693 125.7679383
  54.2738651  61.3038756 124.9956377  52.8842702  61.7316582 125.4174276
  61.0625343  60.1828691 129.2700106  61.0443819  61.0037572 128.7780375
  61.9845263  60.0582767 129.4950247  57.5198397  57.6972821 130.1123614
  58.0526734  56.9361109 129.8822922  56.9912478  57.4046473 130.8547769
  60.6868092  42.8032887 125.6417256  60.3432362  43.6934529 125.5656367
  61.0547055  42.6134544 124.7786841  48.7553943  55.1266417 118.4605858
  49.5929165  55.5363426 118.2439566  48.9332211  54.1865859 118.4306052
  60.6518375  52.7941498 114.1489691  60.1364998  53.5646103 114.3878078
  60.3795684  52.1206634 114.7722752  58.2365486  47.6391199 119.2074929
  57.3807082  47.2498049 119.0280568  58.6492438  47.7183160 118.3474715
  59.7664633  45.1737542 123.6066489  59.2629428  45.1367677 122.7934294
  60.0595240  46.0830285 123.6663146  56.0107519  45.2576272 122.6132671
  56.8760515  45.0619080 122.2538560  56.0785028  45.0286624 123.5402028
  65.6252649  55.5473853 116.0842865  64.8482092  55.2085012 115.6398027
  66.3044130  55.5526476 115.4097830  60.4404678  50.6668590 115.9749472
  60.1354814  50.9814739 116.8259615  61.3935120  50.7450010 116.0176805
  58.8851110  56.8258813 117.6242426  58.3572472  56.0911573 117.3115664
  58.3838613  57.6033490 117.3782395  63.8643956  55.0207834 122.7409473
  63.2067631  55.7107095 122.8289601  64.6684355  55.4104266 123.0843459
  53.6169838  47.4878480 119.9849038  54.1913590  47.2653661 119.2522231
  54.2040820  47.5567174 120.7377639  62.6749415  53.3752207 120.7913414
  63.1881297  54.0082198 121.2935124  63.3250639  52.7753402 120.4256774
  53.9439425  49.5182941 114.0044923  53.1076737  49.8557627 114.3254198
  53.8044194  49.3831920 113.0672060  55.9192505  44.3619729 118.7124107
  55.2656918  44.0468746 118.0880722  55.8772980  43.7395469 119.4383930
  57.0303710  54.6439024 110.6277399  56.1230772  54.4128277 110.8268548
  57.5274742  53.8476643 110.8151381  59.9371789  63.3536531 113.5474085
  59.2633488  63.6568228 114.1559043  60.3237611  64.1565611 113.1979542
  59.1530246  50.8501662 123.0371755  58.2352807  51.0716609 122.8793443
  59.5690389  50.9247973 122.1783462  59.9365294  52.2493078 118.1674435
  60.6837112  52.7614475 117.8581557  60.2056883  51.9277131 119.0278829
  58.2091944  54.7451619 115.1501389  57.3003163  54.4610651 115.2473859
  58.2387028  55.1650697 114.2904696  63.4411211  58.3558208 118.9192557
  62.9873538  57.5149118 118.9757747  62.8105178  58.9919606 119.2567337
  62.3844131  49.2850194 120.1493224  61.6466887  48.7727580 120.4803467
  62.6370904  48.8450576 119.3376501  61.8844150  60.1934705 119.8542375
  62.1767125  60.7539762 119.1354741  62.3942771  60.4863266 120.6095534
  62.4855758  42.0626446 120.7434994  62.7914635  41.2023809 120.4560909
  63.2108363  42.6544066 120.5433988  48.7780114  52.4657133 119.1316592
  48.5804514  51.8726493 118.4067658  48.2226778  52.1609343 119.8492530
  56.7576838  52.3580239 121.2511185  56.8125448  51.4054076 121.1753661
  55.9468040  52.5139678 121.7352483  57.9068031  56.2860362 112.4889468
  57.4687461  55.5696221 112.0295105  58.6478472  56.5136477 111.9274559
  54.6969198  50.9757299 119.0101564  53.8837063  51.2751469 119.4166756
  55.1928192  50.5812988 119.7276046  56.8477776  60.9715056 120.9435828
  56.8053954  61.1975902 120.0144360  57.7640474  60.7378430 121.0921629
  60.2943409  51.4399123 127.8416457  60.6492797  51.6670596 128.7010923
  60.9415541  51.7717500 127.2193713  66.0241146  54.5617559 118.5465786
  65.8859045  54.7519155 117.6186976  65.6677365  55.3236942 119.0033838
  54.1883272  48.5475654 124.6262798  54.8282652  48.4064413 123.9285762
  53.3560803  48.2610168 124.2501400  66.0510526  56.6294086 123.5577058
  66.4847033  56.5369375 124.4060112  66.7642107  56.6051587 122.9197074
  54.9643576  57.8478085 120.7397791  55.7584175  57.3528405 120.5380366
  54.2535269  57.3195948 120.3765497  59.7838421  60.2296180 125.0910159
  59.8375443  60.7987117 125.8587874  58.9153202  60.3998065 124.7264196
  51.2726340  51.9921167 116.8157544  50.3423928  51.9305622 117.0327506
  51.3683812  51.4697119 116.0194185  51.1911889  48.5175979 119.4035785
  51.4518706  49.4321313 119.2944946  52.0129061  48.0500422 119.5532398
  52.6636814  49.9313737 126.5734610  53.3359868  49.7231099 125.9247259
  51.8366601  49.7335823 126.1339842  66.9126075  56.6717787 126.0909943
  67.1061966  57.5763597 126.3369218  66.8126694  56.2125206 126.9248528
  58.5662386  46.5575677 128.5900271  57.9190301  47.2565627 128.4964747
  59.3363402  46.9911821 128.9576519  61.9741184  56.8224530 131.6650824
  61.8226691  56.5935081 130.7480908  61.9645864  57.7795131 131.6782169
  58.7426521  54.3956442 126.6497090  59.6718581  54.5467602 126.4766058
  58.3217551  54.4840463 125.7945737  57.5414852  58.4207107 124.4195628
  57.4025938  58.0525891 125.2921566  56.7529449  58.9354746 124.2479586
  58.1363004  63.5216203 115.7621165  58.3114760  63.0504246 116.5766787
  57.4495792  64.1481969 115.9902425  59.0920067  57.7988709 121.8084466
  58.7569900  57.7589479 122.7042116  58.5924013  57.1333425 121.3354876
  53.0664311  53.2056340 127.3337047  52.9284109  52.4736578 127.9348586
  53.9769235  53.1165240 127.0521235  62.0279259  55.1444744 112.0821525
  61.4108430  54.4191572 111.9854578  61.5595748  55.9054104 111.7388600
  55.6946612  52.9176299 126.8220727  56.4046231  52.2769491 126.7807345
  55.6515920  53.1689194 127.7446907  63.6833391  59.8543652 129.7427306
  63.6245937  59.1702872 129.0757889  64.0852909  60.5962642 129.2907932
  54.4075546  49.9041517 128.6416366  53.8712903  49.4532255 129.2937962
  53.8192255  50.0387426 127.8986830  52.7024090  66.6705566 122.5361025
  52.9420688  67.3024090 123.2140043  51.8593286  66.3193606 122.8226384
  53.8177805  49.3630168 111.2042830  52.9407271  49.2418969 110.8405076
  54.2935558  48.5716246 110.9521718  63.6850798  57.8183236 127.9741286
  62.7977577  57.4809158 128.0967684  64.2549349  57.0866267 128.2110051
  45.3379945  54.1507328 121.2984337  46.0250985  53.8369058 120.7105352
  45.1828074  55.0548692 121.0251588  50.1414667  49.0397524 125.7269361
  50.0572856  48.4323194 124.9919771  49.3197374  49.5306543 125.7278857
  57.2151951  62.4784688 124.9402529  57.1422123  63.2839660 125.4521833
  56.7729345  62.6776654 124.1150550  57.0041731  61.7156458 118.4505350
  56.2209253  62.2578139 118.5443575  57.7034476  62.2330438 118.8499591
  60.3138381  47.5251088 121.0939556  60.8107081  46.7721050 120.7740626
  59.5425363  47.5615405 120.5282765  68.1668139  53.2291453 122.7357847
  68.1558015  54.1116169 122.3651780  67.2985518  52.8763004 122.5412384
  59.6750635  62.3771522 127.0960687  60.3878607  63.0118987 127.0236589
  59.1840664  62.4735388 126.2800689  61.3968162  56.2822775 118.6677979
  60.4624441  56.4024238 118.4982683  61.5744830  55.3795242 118.4037989
  56.8973350  49.6668471 120.8211240  56.5271137  49.1139511 121.5092146
  57.3932442  49.0626604 120.2686240  64.7840713  52.1240094 119.2028013
  65.2501165  52.9568086 119.1288316  65.2348214  51.6585076 119.9073272
  54.7262548  60.1265966 127.9166258  55.4272008  60.7602449 128.0695652
  54.2557663  60.4680697 127.1561897  62.8516944  58.4683916 116.2014165
  63.1276788  58.3540510 117.1108039  61.9821443  58.0701401 116.1626338
  62.7557376  44.4920681 123.2418915  61.8420456  44.7224908 123.4101121
  63.1850477  44.5759126 124.0932947  62.5263834  52.6810573 125.7418809
  61.8735285  52.9286481 125.0871261  62.9044214  51.8674712 125.4081286
  59.4871008  62.7170267 119.8446979  59.6693403  61.8991923 120.3074731
  60.3103994  62.9337959 119.4071869  59.8213174  61.6438452 117.1062027
  60.3500940  61.1330906 116.4932189  60.0841393  61.3280982 117.9707560
  58.5751407  53.4230384 132.2284846  57.8992044  53.3224514 132.8987221
  59.3979041  53.2669598 132.6920843  50.3230267  59.6602321 124.8497361
  50.9083703  58.9146009 124.9825265  50.1255105  59.9706278 125.7334025
  53.1768922  62.6953568 119.8659803  52.5079297  63.1799696 119.3823843
  53.0381791  62.9422789 120.7803182  44.9147921  52.2307921 123.5701804
  44.9532021  51.6971512 124.3638922  44.4088214  51.7043127 122.9512781
  57.3174190  64.7297312 126.4642462  57.8692498  64.8928933 127.2291547
  57.6580384  65.3201750 125.7922486  52.2938684  47.0772462 127.0664346
  52.3580010  47.9387293 126.6541744  52.2305804  46.4646463 126.3336705
  51.7690956  49.1495594 130.7137381  52.3962995  48.7672672 131.3274905
  50.9118875  48.9309796 131.0793073  62.1685065  59.5558569 132.3191116
  62.7124969  60.1688528 131.8246071  61.5871910  60.1138148 132.8358129
  48.5456499  50.9572023 116.6455735  48.8409940  50.0482702 116.5922789
  47.6444535  50.9359763 116.3236738  60.4542578  62.6779287 123.4506144
  60.3293717  61.8769027 122.9417089  61.1121669  63.1725481 122.9620114
  52.0750746  49.0328020 122.6283284  51.3537332  49.6463988 122.4890757
  52.8644002  49.5685785 122.5499930  62.5177486  60.4788308 125.0785694
  61.5707822  60.3593659 125.0064021  62.8660259  59.5910806 125.1611955
  54.8777059  46.3682446 128.9023936  55.4011461  46.6144743 129.6650245
  54.6589393  47.2002481 128.4827073  50.2744340  48.6386121 116.7695061
  49.9457047  47.7583500 116.5870166  50.6283711  48.5833790 117.6571450
  59.5223919  60.2741024 121.2790046  59.3748882  59.3457731 121.4597616
  60.3477413  60.2961114 120.7947121  53.3886164  48.9259091 117.1370538
  53.7282236  49.4545012 116.4149147  53.8358284  49.2639497 117.9129105
  63.1258041  61.0969582 122.3654919  64.0504589  60.8912444 122.2279370
  62.9573345  60.8485984 123.2744260  56.0829604  47.3096142 126.5873606
  55.7426425  46.5103955 126.9894286  55.3768611  47.6097852 126.0150439
  56.7346076  44.3945454 125.0400929  57.5572146  43.9205932 124.9179820
  56.9784140  45.1735938 125.5399616  55.3754311  47.4233712 115.3363831
  56.0962673  47.8014965 114.8327548  54.7519615  48.1422589 115.4398809
  59.5185434  48.1278861 116.2722163  59.7349048  49.0103499 115.9710992
  59.0379501  47.7365075 115.5427805  54.2584655  51.0864575 122.8492908
  54.1129236  51.4004878 123.7417189  53.7809859  51.7049475 122.2963807
  56.1181038  48.0767123 122.8973797  56.1042607  47.1808216 122.5606095
  56.8353466  48.0837786 123.5312084  57.9707169  48.5104463 124.9426925
  57.7124946  49.4321533 124.9411255  57.4392209  48.1134897 125.6327389
  62.9153357  61.6155250 117.7217010  63.0890235  61.0501672 116.9690863
  63.4082249  62.4156145 117.5396500  48.7330317  53.6269919 125.7880569
  48.1883785  54.4029727 125.9200843  49.6109667  53.9740723 125.6299691
  55.5217934  46.9581503 118.1661368  55.6433845  46.0298149 118.3652255
  55.2319976  46.9720189 117.2539683  58.3909124  44.6436413 121.3028087
  58.4130821  44.7075746 120.3480067  58.8077183  43.8040922 121.4968594
  68.7692749  54.3791673 119.3407310  69.2123895  53.6298998 118.9426433
  67.8919259  54.3701809 118.9581042  63.9028530  60.9322014 114.8213909
  64.5979434  61.5528707 115.0401223  64.2451680  60.0817366 115.0966286
  49.5196339  52.7539815 128.6810726  48.7778075  52.9022451 129.2675356
  49.1989083  53.0148081 127.8177475  65.8019953  58.3821720 116.3501239
  66.3271277  58.7208993 115.6250559  65.7142306  57.4468735 116.1664374
  57.4640002  62.2955794 128.4791116  57.7727128  62.0504940 129.3513816
  58.2615484  62.5002432 127.9909986  57.4860614  64.4493703 120.7096493
  57.0465604  63.9570082 121.4029349  58.2368731  63.9066671 120.4688568
  49.9652953  60.6405244 120.7121121  50.7910973  60.3409016 120.3319764
  49.6147005  59.8712866 121.1610909  54.9334486  59.9931712 122.7818794
  54.3114495  59.3302417 122.4821022  55.6039353  60.0192844 122.0992442
  48.1661558  58.5591570 121.6710054  47.3293466  58.1313745 121.4894055
  48.1385203  58.7524014 122.6080845  55.0059013  48.4713500 132.3751300
  55.0547169  49.3475623 131.9929070  55.5481528  47.9290893 131.8022943
  65.4913859  59.0154624 131.6552437  64.7009403  58.9978762 131.1156937
  65.2547214  59.5542917 132.4101474  65.6111734  55.8647090 128.9685166
  65.6609739  55.6997097 129.9100689  65.5025657  54.9974349 128.5783047
  54.4947993  58.5435636 116.2577255  54.6436113  59.2271100 115.6043927
  55.3014436  58.5240726 116.7726710  62.9015496  51.8478018 130.2844473
  63.8025359  51.7084483 129.9928470  62.9763471  52.0132473 131.2242650
  57.2358302  49.2244873 129.1297659  56.3661611  49.5178439 128.8580247
  57.4717782  49.8085318 129.8504923  67.1129931  58.2844031 129.2127187
  66.8214739  58.6474012 130.0490648  66.5002062  57.5711040 129.0340519
  68.3125613  55.8496911 121.7329758  69.1472505  56.2886715 121.8967318
  68.4484742  55.3735564 120.9138003  65.3617119  53.4076646 127.6807245
  65.8371241  53.6004292 126.8726097  64.4382685  53.4635832 127.4350629
  52.2500626  54.5700813 117.2638324  52.0046668  53.6663143 117.4618534
  52.4196540  54.5717964 116.3217802  59.9397336  45.4424490 126.6463079
  60.4579280  46.1785517 126.3209568  59.5852468  45.7488483 127.4809838
  51.5196273  50.3029171 114.7624485  50.8265518  50.3773526 114.1064521
  51.2748025  49.5389514 115.2846002  60.1909930  41.8624772 122.1663976
  60.4711684  41.1947961 122.7924402  60.9760537  42.0553868 121.6538640
  57.9943398  61.0383766 113.7289002  57.4217365  61.6573953 113.2759474
  58.5676192  61.5883128 114.2628924  64.0618788  50.2842406 125.9135551
  65.0136211  50.3840504 125.9347775  63.8922239  49.4920675 126.4233635
  62.0833168  47.3697989 126.0994952  61.4883100  47.6503002 125.4041441
  61.7982864  47.8591890 126.8711693  61.2140658  61.3220916 114.8597584
  62.1471331  61.2566478 115.0630460  61.1263871  62.1577183 114.4012117
  63.8428675  60.6386786 111.8201532  63.7642306  60.3046650 112.7137290
  64.6638342  61.1308554 111.8193004  66.5406866  53.5048526 125.0277851
  66.5083186  52.5664527 125.2137534  67.1507490  53.5832563 124.2943676
  58.3790197  52.3744579 111.0705055  59.3249302  52.2450787 111.1393473
  58.0004442  51.6359241 111.5474483  66.6901354  50.2959569 125.0736134
  66.1740403  49.5118026 124.8866063  67.5741303  49.9678286 125.2382653
  64.3512081  44.0400585 121.0331946  64.1536902  43.7315673 121.9175278
  64.9611787  44.7662224 121.1629876  72.3583416  54.5664533 124.1683887
  73.0886804  54.3049821 124.7291591  71.7490361  53.8293255 124.2085955
  70.4398713  52.7072395 124.7658339  69.7131877  52.5728360 124.1574830
  70.0246000  53.0149224 125.5715057  58.2628889  56.4262325 132.5305712
  59.1831899  56.6040924 132.7245758  58.2278472  55.4818370 132.3785411
  56.5633114  50.2994555 111.0059940  55.6564569  50.0027668 111.0822654
  56.8409095  50.0024373 110.1394226  47.4811054  51.6200919 121.4558986
  47.1613839  50.7666227 121.1633360  46.9344483  51.8349497 122.2116954
  51.2590962  54.3363360 125.1728493  51.4776972  55.2680467 125.1916527
  51.6716736  53.9771334 125.9583297  58.1795180  44.8431445 117.1604181
  57.3695908  44.4978530 117.5359427  58.8679597  44.5338989 117.7491793
  60.1085728  43.9209492 118.7828478  60.6616767  44.3404945 119.4418501
  60.3455814  42.9945240 118.8251434  56.1318827  49.9096565 134.5631242
  56.0315554  50.8590922 134.4943333  55.9140369  49.5814804 133.6907312
  55.3331899  47.1581490 111.1471919  56.1951063  47.4836389 111.4067736
  55.5182243  46.3712986 110.6344985  47.3499314  55.2403830 123.4252108
  46.6562786  54.8257783 122.9122062  48.0972305  55.2824367 122.8285527
  63.4864535  46.0310017 118.2907142  62.9063204  46.6894821 117.9085195
  63.2200468  45.2087361 117.8794560  61.9368101  45.4315075 120.4928462
  62.4367880  45.5431609 119.6842781  62.5803709  45.1276127 121.1329271
  55.9950097  53.3393704 133.3796303  55.5117179  54.1394064 133.5860192
  56.0811036  53.3501649 132.4263747  49.2636057  55.1722084 121.3018123
  49.2406745  55.2709771 120.3500006  49.5736693  56.0187235 121.6235289
  51.9223435  57.2298239 125.4164737  52.8766688  57.1982181 125.3494669
  51.7235958  56.7688863 126.2314963  52.5122817  55.7999355 127.9835535
  53.3315706  56.2943434 128.0070372  52.7859625  54.8831323 127.9553102
  62.2689413  48.1910107 117.3463490  61.3815268  48.4759758 117.1283685
  62.6843402  48.0303871 116.4990767  65.6203949  48.2156628 121.0617830
  66.3964339  48.7053081 121.3342446  64.8952083  48.6414682 121.5189699
  68.0576508  48.9284247 122.1191770  68.6520999  48.6879983 121.4085078
  68.1303092  48.2091378 122.7465307  50.2773664  62.7717858 122.4334935
  50.1428131  62.0118259 121.8672933  49.8605726  63.4958758 121.9663724
  61.4132627  57.9554782 111.4411510  62.1168477  58.1604784 112.0569166
  60.6895275  58.5231544 111.7060594  62.2430437  53.7064643 117.5613781
  62.1865638  54.1633195 116.7221413  62.7958779  52.9455328 117.3836623
  66.0535243  49.4954375 118.3863900  65.7972177  49.0951011 119.2172108
  65.4288111  50.2098169 118.2614039  70.3647581  52.2350448 120.8935191
  69.8047139  52.3043638 121.6666753  69.7591084  52.0591433 120.1734688
  53.4342789  63.6687175 122.6453378  53.3175174  64.6132608 122.5432068
  52.6135236  63.3660737 123.0339177  63.3219324  58.3937311 113.4909970
  64.1564928  57.9618510 113.3087445  63.1603667  58.2219325 114.4186865
  62.9765216  54.8969424 114.8566310  62.9214020  54.7313696 113.9154754
  62.3511271  55.6045457 115.0128499  47.7657731  50.1337489 128.6827732
  48.4116595  49.6236443 129.1714957  47.5574882  50.8706170 129.2571157
  60.2911123  57.2018336 134.1819872  61.1602283  57.3758989 133.8206507
  59.8117875  58.0212753 134.0595602  56.2861342  44.3977533 114.4351628
  56.2740011  45.3419373 114.5919899  57.1784763  44.2147679 114.1411089
  54.4597304  64.3215437 125.8609306  55.3624550  64.3539048 126.1775801
  54.2334674  63.3915888 125.8755642  56.2150906  63.0746424 122.5219385
  55.2646537  63.0748285 122.4083757  56.5183392  62.3279158 122.0055419
  60.1013461  40.9920310 118.6897565  59.3345857  40.4378797 118.8354247
  60.5124166  41.0642179 119.5511717  71.9503599  68.9106962 123.5865147
  72.5882009  68.7913710 122.8828487  71.8324442  69.8587806 123.6453099
  68.7593305  68.8634390 123.5226672  68.4211817  68.7475455 122.6347207
  69.6283074  68.4625555 123.5027678  64.6180121  70.7169867 119.5123563
  64.0544986  70.6259804 118.7439851  64.5032516  69.8969771 119.9926055
  69.2413088  70.0169242 129.4812877  69.2301729  69.6222040 128.6093381
  69.4033728  69.2835315 130.0746649  62.1644553  72.2121058 122.3507783
  62.9565845  71.8711883 121.9354083  62.4041203  72.3216033 123.2709937
  70.1979680  74.3840834 114.8238028  69.5467660  74.9694915 114.4372041
  70.9924043  74.9147029 114.8833065  64.1235307  71.4729972 115.2225162
  64.8966183  70.9258959 115.0838038  64.4760706  72.3374221 115.4339623
  65.9620349  72.8006354 128.4292061  65.6710215  73.7051985 128.3138728
  66.5977334  72.8422881 129.1436131  66.8876556  70.1783202 125.0193421
  67.4840129  69.9539225 124.3050384  66.9451528  69.4367948 125.6218869
  66.4601585  67.6322638 112.8543612  66.7127105  67.1104159 112.0927075
  65.5226144  67.4688783 112.9570296  71.5044868  66.6358416 120.6618355
  72.2907957  66.2177839 120.3108772  71.7683572  67.5404508 120.8300004
  71.6754945  72.0731266 115.3607012  71.0400778  72.1465893 116.0727917
  71.3452351  72.6624865 114.6826091  76.9053295  66.5733649 121.5651334
  77.6378467  66.0032866 121.7989163  76.1492650  66.1855250 122.0057839
  66.1797873  69.5350744 115.0567987  66.0634132  68.8595647 115.7249071
  66.2900133  69.0483118 114.2400140  68.5229414  68.9960891 118.7614676
  68.1587622  68.4691512 119.4727598  69.3796530  68.6059360 118.5881162
  74.4278715  60.2855223 126.0245942  74.0962040  61.1550634 125.8007157
  73.8324328  59.9691507 126.7039973  68.1634901  64.0250790 113.7576025
  68.3309304  64.8931027 114.1246496  67.9732070  64.1878072 112.8337314
  70.9210235  72.4867769 125.4241855  70.6210958  73.3892808 125.3157662
  70.5761294  72.2199953 126.2763008  64.3722716  68.9381566 121.4578559
  63.4473212  68.8057780 121.6656251  64.6207129  69.7175785 121.9548502
  74.3207378  65.0050310 123.1039292  73.4124256  64.9365718 122.8098053
  74.2694974  65.4822254 123.9321118  68.1424122  66.4808448 114.7422691
  68.0223747  66.9265499 115.5808172  67.4476711  66.8293766 114.1836230
  61.7331527  68.5814840 122.2922349  61.8623908  68.8349319 123.2061760
  61.0528978  69.1742548 121.9727004  65.9031014  79.2512090 118.3912823
  65.8255044  80.2019915 118.4701303  65.2992658  78.9057962 119.0487749
  68.3948244  66.4239955 131.0474190  67.6181578  66.9833875 131.0377054
  69.0338807  66.9096738 131.5689060  76.1869025  63.2066748 124.8817166
  75.5443405  63.4999281 124.2356961  75.6823953  63.0919668 125.6870363
  73.8409188  66.9529921 115.5703026  74.7527045  67.1857308 115.3950723
  73.3318835  67.5366965 115.0078104  66.6494616  69.2325408 130.6092157
  67.3909301  69.7710452 130.3326980  65.9431602  69.8591697 130.7663708
  72.1249956  71.3754549 129.2064318  72.5333312  70.9336959 128.4618950
  71.4027218  70.8007176 129.4598511  68.4781026  66.3127156 126.5797875
  69.3242221  66.7366569 126.7232524  68.4179664  65.6560780 127.2736438
  72.4478771  71.9355740 122.9616607  71.8187633  72.1001454 122.2592675
  72.0604433  72.3497349 123.7327571  76.3268003  72.8710177 120.3160971
  75.6419041  73.2509079 119.7658004  76.4111852  73.4805504 121.0492919
  71.6280471  63.9731524 128.2379049  71.3841403  64.7273585 127.7013324
  71.9040402  64.3516872 129.0726296  73.5818934  70.5170136 126.9156314
  73.7935829  71.1601896 126.2390695  73.5348682  69.6832453 126.4478244
  71.1845163  63.1287957 123.8192886  70.3229642  63.4269211 124.1109624
  71.2107598  63.3458356 122.8873919  68.0006733  71.6730148 120.2266692
  68.4645078  71.9517851 119.4371315  67.7363531  70.7713592 120.0439783
  64.8930814  71.2201629 123.1646455  65.4632171  71.6488898 122.5263940
  65.4838925  70.9384214 123.8630641  66.9375619  67.7953300 117.0356257
  67.6399662  68.2474344 117.5030184  66.6056247  67.1537119 117.6636150
  65.3855980  66.3865057 131.4107467  64.7554641  67.0681338 131.6442863
  65.2792068  66.2748138 130.4660605  60.6800953  66.0536853 122.3373391
  59.8900007  66.3094381 121.8613501  61.1712200  66.8685191 122.4425431
  74.6964762  73.3942092 125.0878672  75.5182206  72.9922279 124.8061353
  74.6927165  73.2910326 126.0394787  62.6315698  66.4181432 119.2956868
  61.8346861  66.5300126 119.8140363  62.4041290  66.7568084 118.4297758
  68.4621366  72.9426135 127.2439382  68.5265798  73.4046542 128.0797554
  67.7532289  72.3123500 127.3721692  58.9638656  66.3067343 124.7688382
  59.2146694  67.1914353 125.0345958  59.4998204  66.1271945 123.9963473
  82.7870755  69.7380840 121.4363643  82.0334464  69.1688238 121.2807648
  82.9218296  69.7043505 122.3834278  68.1769383  74.6094243 117.1118362
  68.0415058  75.4545778 117.5403210  68.7179196  74.8113520 116.3484296
  64.6636723  60.6885823 133.7732718  64.2703668  60.1352021 134.4480362
  65.4802863  60.9996401 134.1639235  61.6298781  72.1269681 117.6846288
  62.1423301  72.9212931 117.8351852  62.2821493  71.4295971 117.6179889
  63.4393665  75.2435437 119.7669041  63.6160294  76.1653402 119.5790025
  64.2350499  74.9293856 120.1963421  67.5804684  62.1043702 131.3652974
  68.3214397  62.7050855 131.2857437  67.8122607  61.3621339 130.8071017
  62.7246022  67.2900069 129.6431204  62.6099537  66.3885326 129.9438303
  61.8690540  67.5363766 129.2916020  69.8037860  75.2317809 131.2418705
  69.3601714  74.4454188 130.9239609  70.4655073  75.4196960 130.5762595
  64.5624981  76.7613611 125.7679383  65.1132406  76.6330674 124.9956377
  63.7236457  77.0608500 125.4174276  71.9019098  75.5120609 129.2700106
  71.8837573  76.3329490 128.7780375  72.8239018  75.3874684 129.4950247
  68.3592152  73.0264739 130.1123614  68.8920489  72.2653027 129.8822922
  67.8306233  72.7338390 130.8547769  71.5261847  58.1324805 125.6417256
  71.1826116  59.0226446 125.5656367  71.8940809  57.9426462 124.7786841
  59.5947697  70.4558335 118.4605858  60.4322919  70.8655343 118.2439566
  59.7725965  69.5157777 118.4306052  71.4912130  68.1233416 114.1489691
  70.9758753  68.8938020 114.3878078  71.2189438  67.4498552 114.7722752
  69.0759241  62.9683116 119.2074929  68.2200837  62.5789967 119.0280568
  69.4886192  63.0475077 118.3474715  70.6058387  60.5029460 123.6066489
  70.1023183  60.4659595 122.7934294  70.8988994  61.4122202 123.6663146
  66.8501273  60.5868189 122.6132671  67.7154270  60.3910998 122.2538560
  66.9178782  60.3578541 123.5402028  76.4646404  70.8765770 116.0842865
  75.6875846  70.5376930 115.6398027  77.1437885  70.8818393 115.4097830
  71.2798433  65.9960508 115.9749472  70.9748568  66.3106657 116.8259615
  72.2328875  66.0741928 116.0176805  69.7244865  72.1550731 117.6242426
  69.1966226  71.4203491 117.3115664  69.2232367  72.9325407 117.3782395
  74.7037711  70.3499752 122.7409473  74.0461385  71.0399013 122.8289601
  75.5078110  70.7396183 123.0843459  64.4563592  62.8170397 119.9849038
  65.0307344  62.5945579 119.2522231  65.0434575  62.8859092 120.7377639
  73.5143169  68.7044124 120.7913414  74.0275051  69.3374116 121.2935124
  74.1644393  68.1045320 120.4256774  64.7833179  64.8474858 114.0044923
  63.9470492  65.1849545 114.3254198  64.6437949  64.7123838 113.0672060
  66.7586260  59.6911646 118.7124107  66.1050672  59.3760663 118.0880722
  66.7166734  59.0687387 119.4383930  67.8697465  69.9730941 110.6277399
  66.9624526  69.7420195 110.8268548  68.3668497  69.1768561 110.8151381
  70.7765544  78.6828449 113.5474085  70.1027242  78.9860145 114.1559043
  71.1631366  79.4857529 113.1979542  69.9924000  66.1793580 123.0371755
  69.0746562  66.4008527 122.8793443  70.4084144  66.2539890 122.1783462
  70.7759048  67.5784995 118.1674435  71.5230867  68.0906393 117.8581557
  71.0450638  67.2569048 119.0278829  69.0485698  70.0743536 115.1501389
  68.1396917  69.7902569 115.2473859  69.0780782  70.4942615 114.2904696
  74.2804966  73.6850126 118.9192557  73.8267293  72.8441036 118.9757747
  73.6498932  74.3211524 119.2567337  73.2237885  64.6142112 120.1493224
  72.4860642  64.1019498 120.4803467  73.4764659  64.1742493 119.3376501
  72.7237905  75.5226622 119.8542375  73.0160879  76.0831679 119.1354741
  73.2336525  75.8155183 120.6095534  73.3249512  57.3918364 120.7434994
  73.6308389  56.5315727 120.4560909  74.0502117  57.9835984 120.5433988
  59.6173869  67.7949050 119.1316592  59.4198268  67.2018411 118.4067658
  59.0620533  67.4901260 119.8492530  67.5970592  67.6872157 121.2511185
  67.6519202  66.7345993 121.1753661  66.7861794  67.8431596 121.7352483
  68.7461786  71.6152280 112.4889468  68.3081216  70.8988139 112.0295105
  69.4872227  71.8428395 111.9274559  65.5362952  66.3049217 119.0101564
  64.7230818  66.6043387 119.4166756  66.0321946  65.9104905 119.7276046
  67.6871530  76.3006973 120.9435828  67.6447709  76.5267820 120.0144360
  68.6034229  76.0670348 121.0921629  71.1337164  66.7691041 127.8416457
  71.4886552  66.9962514 128.7010923  71.7809295  67.1009418 127.2193713
  76.8634901  69.8909477 118.5465786  76.7252799  70.0811073 117.6186976
  76.5071120  70.6528860 119.0033838  65.0277027  63.8767572 124.6262798
  65.6676406  63.7356331 123.9285762  64.1954557  63.5902085 124.2501400
  76.8904280  71.9586004 123.5577058  77.3240787  71.8661293 124.4060112
  77.6035861  71.9343504 122.9197074  65.8037331  73.1770002 120.7397791
  66.5977929  72.6820323 120.5380366  65.0929023  72.6487866 120.3765497
  70.6232175  75.5588098 125.0910159  70.6769198  76.1279034 125.8587874
  69.7546957  75.7289983 124.7264196  62.1120094  67.3213084 116.8157544
  61.1817682  67.2597540 117.0327506  62.2077566  66.7989037 116.0194185
  62.0305643  63.8467897 119.4035785  62.2912461  64.7613230 119.2944946
  62.8522816  63.3792340 119.5532398  63.5030569  65.2605654 126.5734610
  64.1753622  65.0523016 125.9247259  62.6760355  65.0627740 126.1339842
  77.7519830  72.0009705 126.0909943  77.9455720  72.9055515 126.3369218
  77.6520448  71.5417124 126.9248528  69.4056141  61.8867595 128.5900271
  68.7584056  62.5857545 128.4964747  70.1757156  62.3203739 128.9576519
  72.8134939  72.1516447 131.6650824  72.6620445  71.9226999 130.7480908
  72.8039618  73.1087049 131.6782169  69.5820275  69.7248360 126.6497090
  70.5112335  69.8759520 126.4766058  69.1611305  69.8132381 125.7945737
  68.3808607  73.7499024 124.4195628  68.2419692  73.3817809 125.2921566
  67.5923203  74.2646664 124.2479586  68.9756759  78.8508121 115.7621165
  69.1508514  78.3796164 116.5766787  68.2889547  79.4773887 115.9902425
  69.9313822  73.1280627 121.8084466  69.5963655  73.0881397 122.7042116
  69.4317768  72.4625343 121.3354876  63.9058066  68.5348257 127.3337047
  63.7677864  67.8028496 127.9348586  64.8162989  68.4457157 127.0521235
  72.8673014  70.4736662 112.0821525  72.2502184  69.7483490 111.9854578
  72.3989502  71.2346022 111.7388600  66.5340367  68.2468217 126.8220727
  67.2439985  67.6061409 126.7807345  66.4909675  68.4981111 127.7446907
  74.5227145  75.1835570 129.7427306  74.4639691  74.4994790 129.0757889
  74.9246664  75.9254560 129.2907932  65.2469301  65.2333434 128.6416366
  64.7106658  64.7824173 129.2937962  64.6586009  65.3679343 127.8986830
  63.5417844  81.9997484 122.5361025  63.7814442  82.6316008 123.2140043
  62.6987041  81.6485524 122.8226384  64.6571560  64.6922086 111.2042830
  63.7801026  64.5710887 110.8405076  65.1329313  63.9008164 110.9521718
  74.5244553  73.1475154 127.9741286  73.6371331  72.8101076 128.0967684
  75.0943104  72.4158185 128.2110051  56.1773700  69.4799246 121.2984337
  56.8644739  69.1660976 120.7105352  56.0221828  70.3840610 121.0251588
  60.9808422  64.3689442 125.7269361  60.8966611  63.7615112 124.9919771
  60.1591128  64.8598460 125.7278857  68.0545706  77.8076606 124.9402529
  67.9815877  78.6131578 125.4521833  67.6123099  78.0068572 124.1150550
  67.8435486  77.0448376 118.4505350  67.0603007  77.5870056 118.5443575
  68.5428231  77.5622356 118.8499591  71.1532136  62.8543006 121.0939556
  71.6500835  62.1012968 120.7740626  70.3819117  62.8907322 120.5282765
  79.0061893  68.5583371 122.7357847  78.9951769  69.4408087 122.3651780
  78.1379272  68.2054922 122.5412384  70.5144389  77.7063440 127.0960687
  71.2272362  78.3410905 127.0236589  70.0234418  77.8027306 126.2800689
  72.2361916  71.6114693 118.6677979  71.3018195  71.7316155 118.4982683
  72.4138585  70.7087160 118.4037989  67.7367104  64.9960389 120.8211240
  67.3664892  64.4431429 121.5092146  68.2326197  64.3918522 120.2686240
  75.6234468  67.4532012 119.2028013  76.0894920  68.2860004 119.1288316
  76.0741968  66.9876994 119.9073272  65.5656303  75.4557884 127.9166258
  66.2665762  76.0894367 128.0695652  65.0951418  75.7972615 127.1561897
  73.6910699  73.7975833 116.2014165  73.9670543  73.6832428 117.1108039
  72.8215198  73.3993318 116.1626338  73.5951130  59.8212599 123.2418915
  72.6814210  60.0516826 123.4101121  74.0244232  59.9051043 124.0932947
  73.3657589  68.0102491 125.7418809  72.7129039  68.2578399 125.0871261
  73.7437969  67.1966629 125.4081286  70.3264763  78.0462184 119.8446979
  70.5087157  77.2283840 120.3074731  71.1497749  78.2629877 119.4071869
  70.6606928  76.9730369 117.1062027  71.1894695  76.4622824 116.4932189
  70.9235148  76.6572900 117.9707560  69.4145162  68.7522302 132.2284846
  68.7385799  68.6516431 132.8987221  70.2372796  68.5961516 132.6920843
  61.1624021  74.9894239 124.8497361  61.7477458  74.2437927 124.9825265
  60.9648859  75.2998195 125.7334025  64.0162676  78.0245486 119.8659803
  63.3473052  78.5091614 119.3823843  63.8775546  78.2714707 120.7803182
  55.7541676  67.5599839 123.5701804  55.7925775  67.0263430 124.3638922
  55.2481969  67.0335044 122.9512781  68.1567945  80.0589230 126.4642462
  68.7086253  80.2220851 127.2291547  68.4974138  80.6493667 125.7922486
  63.1332438  62.4064379 127.0664346  63.1973765  63.2679210 126.6541744
  63.0699558  61.7938381 126.3336705  62.6084711  64.4787512 130.7137381
  63.2356749  64.0964589 131.3274905  61.7512629  64.2601714 131.0793073
  73.0078819  74.8850487 132.3191116  73.5518723  75.4980445 131.8246071
  72.4265664  75.4430066 132.8358129  59.3850253  66.2863941 116.6455735
  59.6803694  65.3774619 116.5922789  58.4838289  66.2651680 116.3236738
  71.2936332  78.0071205 123.4506144  71.1687472  77.2060945 122.9417089
  71.9515423  78.5017398 122.9620114  62.9144500  64.3619938 122.6283284
  62.1931086  64.9755905 122.4890757  63.7037756  64.8977702 122.5499930
  73.3571241  75.8080225 125.0785694  72.4101576  75.6885576 125.0064021
  73.7054014  74.9202723 125.1611955  65.7170814  61.6974364 128.9023936
  66.2405216  61.9436661 129.6650245  65.4983147  62.5294399 128.4827073
  61.1138095  63.9678039 116.7695061  60.7850801  63.0875418 116.5870166
  61.4677466  63.9125707 117.6571450  70.3617674  75.6032941 121.2790046
  70.2142636  74.6749649 121.4597616  71.1871167  75.6253032 120.7947121
  64.2279918  64.2551009 117.1370538  64.5675991  64.7836930 116.4149147
  64.6752039  64.5931415 117.9129105  73.9651796  76.4261500 122.3654919
  74.8898343  76.2204361 122.2279370  73.7967099  76.1777901 123.2744260
  66.9223359  62.6388059 126.5873606  66.5820179  61.8395872 126.9894286
  66.2162365  62.9389770 126.0150439  67.5739831  59.7237372 125.0400929
  68.3965900  59.2497850 124.9179820  67.8177894  60.5027855 125.5399616
  66.2148065  62.7525630 115.3363831  66.9356428  63.1306883 114.8327548
  65.5913369  63.4714507 115.4398809  70.3579188  63.4570779 116.2722163
  70.5742803  64.3395417 115.9710992  69.8773255  63.0656992 115.5427805
  65.0978410  66.4156492 122.8492908  64.9522990  66.7296795 123.7417189
  64.6203613  67.0341393 122.2963807  66.9574792  63.4059040 122.8973797
  66.9436361  62.5100134 122.5606095  67.6747220  63.4129704 123.5312084
  68.8100923  63.8396380 124.9426925  68.5518701  64.7613451 124.9411255
  68.2785963  63.4426815 125.6327389  73.7547112  76.9447168 117.7217010
  73.9283989  76.3793590 116.9690863  74.2476003  77.7448062 117.5396500
  59.5724072  68.9561837 125.7880569  59.0277540  69.7321645 125.9200843
  60.4503422  69.3032641 125.6299691  66.3611688  62.2873421 118.1661368
  66.4827600  61.3590067 118.3652255  66.0713731  62.3012107 117.2539683
  69.2302879  59.9728331 121.3028087  69.2524576  60.0367664 120.3480067
  69.6470938  59.1332840 121.4968594  79.6086503  69.7083591 119.3407310
  80.0517649  68.9590916 118.9426433  78.7313013  69.6993727 118.9581042
  74.7422284  76.2613932 114.8213909  75.4373189  76.8820625 115.0401223
  75.0845434  75.4109283 115.0966286  60.3590094  68.0831733 128.6810726
  59.6171830  68.2314368 129.2675356  60.0382838  68.3439999 127.8177475
  76.6413707  73.7113638 116.3501239  77.1665032  74.0500910 115.6250559
  76.5536060  72.7760653 116.1664374  68.3033756  77.6247711 128.4791116
  68.6120883  77.3796858 129.3513816  69.1009238  77.8294350 127.9909986
  68.3254368  79.7785621 120.7096493  67.8859359  79.2862000 121.4029349
  69.0762485  79.2358588 120.4688568  60.8046707  75.9697162 120.7121121
  61.6304727  75.6700934 120.3319764  60.4540759  75.2004784 121.1610909
  65.7728240  75.3223630 122.7818794  65.1508250  74.6594335 122.4821022
  66.4433107  75.3484762 122.0992442  59.0055312  73.8883488 121.6710054
  58.1687221  73.4605662 121.4894055  58.9778958  74.0815931 122.6080845
  65.8452768  63.8005418 132.3751300  65.8940923  64.6767541 131.9929070
  66.3875282  63.2582811 131.8022943  76.3307614  74.3446541 131.6552437
  75.5403157  74.3270680 131.1156937  76.0940968  74.8834835 132.4101474
  76.4505489  71.1939008 128.9685166  76.5003494  71.0289015 129.9100689
  76.3419412  70.3266267 128.5783047  65.3341747  73.8727553 116.2577255
  65.4829868  74.5563018 115.6043927  66.1408191  73.8532643 116.7726710
  73.7409251  67.1769936 130.2844473  74.6419114  67.0376400 129.9928470
  73.8157225  67.3424390 131.2242650  68.0752056  64.5536790 129.1297659
  67.2055366  64.8470356 128.8580247  68.3111537  65.1377235 129.8504923
  77.9523685  73.6135949 129.2127187  77.6608494  73.9765930 130.0490648
  77.3395817  72.9002957 129.0340519  79.1519368  71.1788829 121.7329758
  79.9866259  71.6178633 121.8967318  79.2878497  70.7027482 120.9138003
  76.2010874  68.7368564 127.6807245  76.6764995  68.9296210 126.8726097
  75.2776439  68.7927750 127.4350629  63.0894380  69.8992731 117.2638324
  62.8440422  68.9955061 117.4618534  63.2590295  69.9009881 116.3217802
  70.7791090  60.7716407 126.6463079  71.2973034  61.5077434 126.3209568
  70.4246223  61.0780401 127.4809838  62.3590028  65.6321088 114.7624485
  61.6659273  65.7065443 114.1064521  62.1141780  64.8681432 115.2846002
  71.0303684  57.1916690 122.1663976  71.3105438  56.5239879 122.7924402
  71.8154291  57.3845785 121.6538640  68.8337153  76.3675684 113.7289002
  68.2611120  76.9865871 113.2759474  69.4069946  76.9175045 114.2628924
  74.9012543  65.6134324 125.9135551  75.8529966  65.7132421 125.9347775
  74.7315993  64.8212592 126.4233635  72.9226922  62.6989907 126.0994952
  72.3276854  62.9794920 125.4041441  72.6376619  63.1883808 126.8711693
  72.0534413  76.6512834 114.8597584  72.9865086  76.5858395 115.0630460
  71.9657625  77.4869101 114.4012117  74.6822429  75.9678704 111.8201532
  74.6036061  75.6338568 112.7137290  75.5032096  76.4600472 111.8193004
  77.3800620  68.8340443 125.0277851  77.3476941  67.8956444 125.2137534
  77.9901244  68.9124480 124.2943676  69.2183951  67.7036496 111.0705055
  70.1643056  67.5742705 111.1393473  68.8398196  66.9651158 111.5474483
  77.5295109  65.6251487 125.0736134  77.0134158  64.8409944 124.8866063
  78.4135057  65.2970204 125.2382653  75.1905836  59.3692502 121.0331946
  74.9930657  59.0607591 121.9175278  75.8005541  60.0954141 121.1629876
  83.1977170  69.8956450 124.1683887  83.9280559  69.6341738 124.7291591
  82.5884116  69.1585172 124.2085955  81.2792467  68.0364313 124.7658339
  80.5525631  67.9020278 124.1574830  80.8639754  68.3441142 125.5715057
  69.1022644  71.7554243 132.5305712  70.0225653  71.9332842 132.7245758
  69.0672227  70.8110288 132.3785411  67.4026868  65.6286473 111.0059940
  66.4958324  65.3319586 111.0822654  67.6802849  65.3316291 110.1394226
  58.3204809  66.9492836 121.4558986  58.0007593  66.0958144 121.1633360
  57.7738237  67.1641414 122.2116954  62.0984716  69.6655277 125.1728493
  62.3170726  70.5972385 125.1916527  62.5110490  69.3063252 125.9583297
  69.0188934  60.1723363 117.1604181  68.2089662  59.8270448 117.5359427
  69.7073351  59.8630906 117.7491793  70.9479482  59.2501409 118.7828478
  71.5010521  59.6696863 119.4418501  71.1849569  58.3237157 118.8251434
  66.9712582  65.2388483 134.5631242  66.8709309  66.1882840 134.4943333
  66.7534124  64.9106722 133.6907312  66.1725653  62.4873408 111.1471919
  67.0344817  62.8128306 111.4067736  66.3575997  61.7004904 110.6344985
  58.1893069  70.5695748 123.4252108  57.4956540  70.1549701 122.9122062
  58.9366060  70.6116284 122.8285527  74.3258290  61.3601935 118.2907142
  73.7456959  62.0186739 117.9085195  74.0594222  60.5379279 117.8794560
  72.7761856  60.7606992 120.4928462  73.2761634  60.8723527 119.6842781
  73.4197464  60.4568045 121.1329271  66.8343852  68.6685622 133.3796303
  66.3510933  69.4685982 133.5860192  66.9204791  68.6793567 132.4263747
  60.1029811  70.5014002 121.3018123  60.0800499  70.6001689 120.3500006
  60.4130448  71.3479152 121.6235289  62.7617189  72.5590157 125.4164737
  63.7160443  72.5274099 125.3494669  62.5629713  72.0980780 126.2314963
  63.3516571  71.1291273 127.9835535  64.1709460  71.6235351 128.0070372
  63.6253379  70.2123241 127.9553102  73.1083168  63.5202025 117.3463490
  72.2209023  63.8051676 117.1283685  73.5237157  63.3595788 116.4990767
  76.4597704  63.5448546 121.0617830  77.2358094  64.0344998 121.3342446
  75.7345838  63.9706600 121.5189699  78.8970262  64.2576165 122.1191770
  79.4914753  64.0171901 121.4085078  78.9696846  63.5383296 122.7465307
  61.1167418  78.1009776 122.4334935  60.9821886  77.3410177 121.8672933
  60.6999480  78.8250676 121.9663724  72.2526381  73.2846700 111.4411510
  72.9562231  73.4896702 112.0569166  71.5289030  73.8523461 111.7060594
  73.0824191  69.0356561 117.5613781  73.0259393  69.4925112 116.7221413
  73.6352534  68.2747245 117.3836623  76.8928997  64.8246293 118.3863900
  76.6365931  64.4242928 119.2172108  76.2681865  65.5390087 118.2614039
  81.2041335  67.5642366 120.8935191  80.6440893  67.6335555 121.6666753
  80.5984838  67.3883351 120.1734688  64.2736544  78.9979093 122.6453378
  64.1568928  79.9424526 122.5432068  63.4528990  78.6952655 123.0339177
  74.1613078  73.7229229 113.4909970  74.9958682  73.2910427 113.3087445
  73.9997421  73.5511242 114.4186865  73.8158971  70.2261342 114.8566310
  73.7607774  70.0605614 113.9154754  73.1905026  70.9337375 115.0128499
  58.6051486  65.4629406 128.6827732  59.2510349  64.9528360 129.1714957
  58.3968637  66.1998088 129.2571157  71.1304878  72.5310254 134.1819872
  71.9996037  72.7050906 133.8206507  70.6511629  73.3504671 134.0595602
  67.1255096  59.7269451 114.4351628  67.1133766  60.6711291 114.5919899
  68.0178518  59.5439596 114.1411089  65.2991058  79.6507355 125.8609306
  66.2018305  79.6830965 126.1775801  65.0728428  78.7207806 125.8755642
  67.0544660  78.4038341 122.5219385  66.1040291  78.4040203 122.4083757
  67.3577146  77.6571076 122.0055419  70.9407216  56.3212228 118.6897565
  70.1739611  55.7670714 118.8354247  71.3517921  56.3934096 119.5511717
  62.9448977  62.6097024 132.7802746  63.8080438  62.2533828 132.9906071
  62.3714387  62.2710918 133.4678150  82.7897354  84.2398880 123.5865147
  83.4275763  84.1205627 122.8828487  82.6718196  85.1879724 123.6453099
  79.5987060  84.1926308 123.5226672  79.2605571  84.0767373 122.6347207
  80.4676828  83.7917473 123.5027678  75.4573876  86.0461784 119.5123563
  74.8938741  85.9551721 118.7439851  75.3426271  85.2261689 119.9926055
  80.0806843  85.3461160 129.4812877  80.0695484  84.9513958 128.6093381
  80.2427482  84.6127232 130.0746649  73.0038307  87.5412976 122.3507783
  73.7959599  87.2003801 121.9354083  73.2434958  87.6507951 123.2709937
  81.0373434  89.7132752 114.8238028  80.3861414  90.2986833 114.4372041
  81.8317797  90.2438947 114.8833065  74.9629061  86.8021889 115.2225162
  75.7359937  86.2550876 115.0838038  75.3154460  87.6666139 115.4339623
  76.8014104  88.1298272 128.4292061  76.5103970  89.0343902 128.3138728
  77.4371088  88.1714799 129.1436131  77.7270311  85.5075120 125.0193421
  78.3233883  85.2831142 124.3050384  77.7845282  84.7659866 125.6218869
  77.2995339  82.9614555 112.8543612  77.5520860  82.4396077 112.0927075
  76.3619898  82.7980701 112.9570296  82.3438622  81.9650334 120.6618355
  83.1301711  81.5469757 120.3108772  82.6077326  82.8696426 120.8300004
  82.5148699  87.4023184 115.3607012  81.8794532  87.4757811 116.0727917
  82.1846106  87.9916783 114.6826091  87.7447049  81.9025567 121.5651334
  88.4772221  81.3324784 121.7989163  86.9886405  81.5147167 122.0057839
  77.0191628  84.8642661 115.0567987  76.9027886  84.1887565 115.7249071
  77.1293888  84.3775035 114.2400140  79.3623169  84.3252808 118.7614676
  78.9981376  83.7983429 119.4727598  80.2190285  83.9351277 118.5881162
  85.2672469  75.6147141 126.0245942  84.9355794  76.4842552 125.8007157
  84.6718083  75.2983425 126.7039973  79.0028656  79.3542708 113.7576025
  79.1703058  80.2222945 114.1246496  78.8125825  79.5169990 112.8337314
  81.7603989  87.8159687 125.4241855  81.4604712  88.7184726 125.3157662
  81.4155049  87.5491870 126.2763008  75.2116471  84.2673484 121.4578559
  74.2866967  84.1349698 121.6656251  75.4600884  85.0467703 121.9548502
  85.1601133  80.3342227 123.1039292  84.2518010  80.2657636 122.8098053
  85.1088729  80.8114172 123.9321118  78.9817877  81.8100366 114.7422691
  78.8617502  82.2557416 115.5808172  78.2870465  82.1585683 114.1836230
  72.5725282  83.9106757 122.2922349  72.7017663  84.1641236 123.2061760
  71.8922733  84.5034465 121.9727004  76.7424769  94.5804007 118.3912823
  76.6648799  95.5311832 118.4701303  76.1386412  94.2349880 119.0487749
  79.2341999  81.7531873 131.0474190  78.4575333  82.3125793 131.0377054
  79.8732562  82.2388656 131.5689060  87.0262779  78.5358666 124.8817166
  86.3837159  78.8291199 124.2356961  86.5217708  78.4211586 125.6870363
  84.6802943  82.2821839 115.5703026  85.5920799  82.5149226 115.3950723
  84.1712590  82.8658883 115.0078104  77.4888371  84.5617326 130.6092157
  78.2303055  85.1002370 130.3326980  76.7825356  85.1883615 130.7663708
  82.9643711  86.7046467 129.2064318  83.3727067  86.2628877 128.4618950
  82.2420972  86.1299094 129.4598511  79.3174781  81.6419073 126.5797875
  80.1635976  82.0658487 126.7232524  79.2573418  80.9852698 127.2736438
  83.2872525  87.2647657 122.9616607  82.6581388  87.4293371 122.2592675
  82.8998187  87.6789267 123.7327571  87.1661757  88.2002095 120.3160971
  86.4812795  88.5800996 119.7658004  87.2505606  88.8097422 121.0492919
  82.4674226  79.3023442 128.2379049  82.2235158  80.0565502 127.7013324
  82.7434156  79.6808789 129.0726296  84.4212689  85.8462054 126.9156314
  84.6329584  86.4893814 126.2390695  84.3742437  85.0124371 126.4478244
  82.0238918  78.4579875 123.8192886  81.1623397  78.7561128 124.1109624
  82.0501352  78.6750274 122.8873919  78.8400487  87.0022065 120.2266692
  79.3038833  87.2809768 119.4371315  78.5757285  86.1005510 120.0439783
  75.7324568  86.5493547 123.1646455  76.3025925  86.9780815 122.5263940
  76.3232680  86.2676132 123.8630641  77.7769373  83.1245218 117.0356257
  78.4793416  83.5766261 117.5030184  77.4450002  82.4829037 117.6636150
  76.2249735  81.7156974 131.4107467  75.5948395  82.3973255 131.6442863
  76.1185823  81.6040056 130.4660605  71.5194707  81.3828770 122.3373391
  70.7293761  81.6386299 121.8613501  72.0105954  82.1977108 122.4425431
  85.5358517  88.7234010 125.0878672  86.3575960  88.3214197 124.8061353
  85.5320920  88.6202244 126.0394787  73.4709452  81.7473350 119.2956868
  72.6740616  81.8592044 119.8140363  73.2435045  82.0860002 118.4297758
  79.3015120  88.2718053 127.2439382  79.3659553  88.7338460 128.0797554
  78.5926044  87.6415418 127.3721692  69.8032410  81.6359261 124.7688382
  70.0540448  82.5206271 125.0345958  70.3391958  81.4563862 123.9963473
  93.6264510  85.0672758 121.4363643  92.8728218  84.4980156 121.2807648
  93.7612051  85.0335423 122.3834278  79.0163138  89.9386160 117.1118362
  78.8808813  90.7837696 117.5403210  79.5572950  90.1405438 116.3484296
  75.5030477  76.0177740 133.7732718  75.1097423  75.4643939 134.4480362
  76.3196618  76.3288319 134.1639235  72.4692535  87.4561598 117.6846288
  72.9817056  88.2504849 117.8351852  73.1215248  86.7587889 117.6179889
  74.2787420  90.5727355 119.7669041  74.4554048  91.4945319 119.5790025
  75.0744253  90.2585774 120.1963421  78.4198438  77.4335619 131.3652974
  79.1608152  78.0342772 131.2857437  78.6516361  76.6913257 130.8071017
  73.5639776  82.6191987 129.6431204  73.4493292  81.7177244 129.9438303
  72.7084294  82.8655683 129.2916020  80.6431614  90.5609727 131.2418705
  80.1995468  89.7746105 130.9239609  81.3048828  90.7488877 130.5762595
  75.4018735  92.0905528 125.7679383  75.9526160  91.9622592 124.9956377
  74.5630211  92.3900417 125.4174276  82.7412852  90.8412527 129.2700106
  82.7231328  91.6621408 128.7780375  83.6632772  90.7166602 129.4950247
  79.1985906  88.3556656 130.1123614  79.7314243  87.5944944 129.8822922
  78.6699987  88.0630308 130.8547769  82.3655601  73.4616722 125.6417256
  82.0219871  74.3518364 125.5656367  82.7334564  73.2718380 124.7786841
  70.4341452  85.7850253 118.4605858  71.2716674  86.1947261 118.2439566
  70.6119720  84.8449695 118.4306052  82.3305884  83.4525333 114.1489691
  81.8152507  84.2229938 114.3878078  82.0583192  82.7790469 114.7722752
  79.9152995  78.2975034 119.2074929  79.0594591  77.9081884 119.0280568
  80.3279947  78.3766995 118.3474715  81.4452142  75.8321377 123.6066489
  80.9416937  75.7951513 122.7934294  81.7382749  76.7414120 123.6663146
  77.6895028  75.9160107 122.6132671  78.5548024  75.7202916 122.2538560
  77.7572536  75.6870459 123.5402028  87.3040158  86.2057688 116.0842865
  86.5269601  85.8668847 115.6398027  87.9831639  86.2110311 115.4097830
  82.1192187  81.3252425 115.9749472  81.8142323  81.6398575 116.8259615
  83.0722629  81.4033845 116.0176805  80.5638619  87.4842649 117.6242426
  80.0359981  86.7495408 117.3115664  80.0626122  88.2617325 117.3782395
  85.5431465  85.6791669 122.7409473  84.8855140  86.3690931 122.8289601
  86.3471864  86.0688101 123.0843459  75.2957347  78.1462315 119.9849038
  75.8701099  77.9237497 119.2522231  75.8828329  78.2151010 120.7377639
  84.3536924  84.0336042 120.7913414  84.8668806  84.6666034 121.2935124
  85.0038148  83.4337237 120.4256774  75.6226934  80.1766776 114.0044923
  74.7864246  80.5141463 114.3254198  75.4831703  80.0415756 113.0672060
  77.5980014  75.0203564 118.7124107  76.9444427  74.7052581 118.0880722
  77.5560489  74.3979304 119.4383930  78.7091219  85.3022859 110.6277399
  77.8018281  85.0712112 110.8268548  79.2062251  84.5060478 110.8151381
  81.6159298  94.0120366 113.5474085  80.9420997  94.3152063 114.1559043
  82.0025120  94.8149447 113.1979542  80.8317755  81.5085497 123.0371755
  79.9140316  81.7300444 122.8793443  81.2477898  81.5831808 122.1783462
  81.6152802  82.9076913 118.1674435  82.3624621  83.4198310 117.8581557
  81.8844392  82.5860966 119.0278829  79.8879453  85.4035454 115.1501389
  78.9790672  85.1194487 115.2473859  79.9174536  85.8234532 114.2904696
  85.1198720  89.0142043 118.9192557  84.6661047  88.1732953 118.9757747
  84.4892687  89.6503442 119.2567337  84.0631640  79.9434029 120.1493224
  83.3254396  79.4311416 120.4803467  84.3158413  79.5034411 119.3376501
  83.5631659  90.8518540 119.8542375  83.8554634  91.4123597 119.1354741
  84.0730280  91.1447101 120.6095534  84.1643267  72.7210281 120.7434994
  84.4702144  71.8607645 120.4560909  84.8895872  73.3127902 120.5433988
  70.4567623  83.1240968 119.1316592  70.2592023  82.5310329 118.4067658
  69.9014287  82.8193178 119.8492530  78.4364347  83.0164074 121.2511185
  78.4912956  82.0637911 121.1753661  77.6255549  83.1723514 121.7352483
  79.5855540  86.9444198 112.4889468  79.1474970  86.2280056 112.0295105
  80.3265981  87.1720312 111.9274559  76.3756707  81.6341134 119.0101564
  75.5624572  81.9335305 119.4166756  76.8715701  81.2396823 119.7276046
  78.5265285  91.6298891 120.9435828  78.4841463  91.8559737 120.0144360
  79.4427983  91.3962266 121.0921629  81.9730918  82.0982959 127.8416457
  82.3280306  82.3254432 128.7010923  82.6203050  82.4301335 127.2193713
  87.7028655  85.2201395 118.5465786  87.5646554  85.4102991 117.6186976
  87.3464874  85.9820777 119.0033838  75.8670781  79.2059490 124.6262798
  76.5070161  79.0648249 123.9285762  75.0348312  78.9194003 124.2501400
  87.7298035  87.2877922 123.5577058  88.1634542  87.1953211 124.4060112
  88.4429616  87.2635422 122.9197074  76.6431085  88.5061920 120.7397791
  77.4371684  88.0112240 120.5380366  75.9322778  87.9779783 120.3765497
  81.4625930  90.8880016 125.0910159  81.5162952  91.4570952 125.8587874
  80.5940711  91.0581901 124.7264196  72.9513849  82.6505002 116.8157544
  72.0211437  82.5889457 117.0327506  73.0471321  82.1280955 116.0194185
  72.8699398  79.1759815 119.4035785  73.1306215  80.0905148 119.2944946
  73.6916570  78.7084257 119.5532398  74.3424323  80.5897572 126.5734610
  75.0147377  80.3814934 125.9247259  73.5154110  80.3919658 126.1339842
  88.5913584  87.3301622 126.0909943  88.7849475  88.2347433 126.3369218
  88.4914203  86.8709041 126.9248528  80.2449895  77.2159513 128.5900271
  79.5977810  77.9149462 128.4964747  81.0150911  77.6495657 128.9576519
  83.6528693  87.4808365 131.6650824  83.5014200  87.2518917 130.7480908
  83.6433373  88.4378966 131.6782169  80.4214030  85.0540278 126.6497090
  81.3506090  85.2051437 126.4766058  80.0005060  85.1424299 125.7945737
  79.2202361  89.0790942 124.4195628  79.0813447  88.7109727 125.2921566
  78.4316958  89.5938582 124.2479586  79.8150513  94.1800039 115.7621165
  79.9902269  93.7088082 116.5766787  79.1283301  94.8065805 115.9902425
  80.7707576  88.4572545 121.8084466  80.4357409  88.4173315 122.7042116
  80.2711522  87.7917261 121.3354876  74.7451820  83.8640175 127.3337047
  74.6071618  83.1320414 127.9348586  75.6556744  83.7749075 127.0521235
  83.7066768  85.8028579 112.0821525  83.0895939  85.0775407 111.9854578
  83.2383257  86.5637939 111.7388600  77.3734121  83.5760134 126.8220727
  78.0833740  82.9353326 126.7807345  77.3303429  83.8273029 127.7446907
  85.3620900  90.5127488 129.7427306  85.3033446  89.8286708 129.0757889
  85.7640418  91.2546478 129.2907932  76.0863055  80.5625352 128.6416366
  75.5500412  80.1116091 129.2937962  75.4979763  80.6971261 127.8986830
  74.3811599  97.3289401 122.5361025  74.6208197  97.9607926 123.2140043
  73.5380795  96.9777441 122.8226384  75.4965314  80.0214003 111.2042830
  74.6194780  79.9002804 110.8405076  75.9723067  79.2300082 110.9521718
  85.3638307  88.4767071 127.9741286  84.4765086  88.1392993 128.0967684
  85.9336858  87.7450103 128.2110051  67.0167454  84.8091163 121.2984337
  67.7038494  84.4952893 120.7105352  66.8615583  85.7132528 121.0251588
  71.8202176  79.6981360 125.7269361  71.7360365  79.0907029 124.9919771
  70.9984883  80.1890378 125.7278857  78.8939460  93.1368524 124.9402529
  78.8209632  93.9423495 125.4521833  78.4516854  93.3360490 124.1150550
  78.6829240  92.3740294 118.4505350  77.8996762  92.9161974 118.5443575
  79.3821985  92.8914273 118.8499591  81.9925890  78.1834923 121.0939556
  82.4894590  77.4304886 120.7740626  81.2212872  78.2199240 120.5282765
  89.8455648  83.8875289 122.7357847  89.8345524  84.7700004 122.3651780
  88.9773027  83.5346840 122.5412384  81.3538144  93.0355358 127.0960687
  82.0666116  93.6702823 127.0236589  80.8628173  93.1319224 126.2800689
  83.0755671  86.9406611 118.6677979  82.1411950  87.0608073 118.4982683
  83.2532339  86.0379077 118.4037989  78.5760859  80.3252306 120.8211240
  78.2058646  79.7723347 121.5092146  79.0719951  79.7210440 120.2686240
  86.4628222  82.7823930 119.2028013  86.9288674  83.6151921 119.1288316
  86.9135723  82.3168911 119.9073272  76.4050057  90.7849801 127.9166258
  77.1059517  91.4186284 128.0695652  75.9345172  91.1264533 127.1561897
  84.5304453  89.1267751 116.2014165  84.8064297  89.0124346 117.1108039
  83.6608952  88.7285236 116.1626338  84.4344885  75.1504517 123.2418915
  83.5207965  75.3808744 123.4101121  84.8637986  75.2342961 124.0932947
  84.2051343  83.3394409 125.7418809  83.5522794  83.5870316 125.0871261
  84.5831723  82.5258547 125.4081286  81.1658517  93.3754102 119.8446979
  81.3480912  92.5575758 120.3074731  81.9891503  93.5921794 119.4071869
  81.5000683  92.3022287 117.1062027  82.0288449  91.7914742 116.4932189
  81.7628902  91.9864817 117.9707560  80.2538916  84.0814220 132.2284846
  79.5779553  83.9808349 132.8987221  81.0766550  83.9253434 132.6920843
  72.0017776  90.3186156 124.8497361  72.5871212  89.5729844 124.9825265
  71.8042614  90.6290113 125.7334025  74.8556431  93.3537404 119.8659803
  74.1866806  93.8383531 119.3823843  74.7169300  93.6006624 120.7803182
  66.5935430  82.8891757 123.5701804  66.6319530  82.3555347 124.3638922
  66.0875723  82.3626962 122.9512781  78.9961699  95.3881147 126.4642462
  79.5480007  95.5512769 127.2291547  79.3367893  95.9785585 125.7922486
  73.9726193  77.7356297 127.0664346  74.0367519  78.5971128 126.6541744
  73.9093313  77.1230299 126.3336705  73.4478465  79.8079430 130.7137381
  74.0750504  79.4256507 131.3274905  72.5906384  79.5893632 131.0793073
  83.8472574  90.2142405 132.3191116  84.3912478  90.8272363 131.8246071
  83.2659419  90.7721983 132.8358129  70.2244008  81.6155859 116.6455735
  70.5197449  80.7066537 116.5922789  69.3232044  81.5943598 116.3236738
  82.1330087  93.3363123 123.4506144  82.0081226  92.5352863 122.9417089
  82.7909178  93.8309316 122.9620114  73.7538255  79.6911855 122.6283284
  73.0324841  80.3047823 122.4890757  74.5431511  80.2269620 122.5499930
  84.1964995  91.1372143 125.0785694  83.2495331  91.0177494 125.0064021
  84.5447768  90.2494641 125.1611955  76.5564568  77.0266282 128.9023936
  77.0798970  77.2728578 129.6650245  76.3376902  77.8586317 128.4827073
  71.9531849  79.2969956 116.7695061  71.6244556  78.4167335 116.5870166
  72.3071220  79.2417625 117.6571450  81.2011428  90.9324859 121.2790046
  81.0536391  90.0041567 121.4597616  82.0264922  90.9544950 120.7947121
  75.0673673  79.5842926 117.1370538  75.4069745  80.1128847 116.4149147
  75.5145793  79.9223332 117.9129105  84.8045550  91.7553418 122.3654919
  85.7292098  91.5496279 122.2279370  84.6360854  91.5069819 123.2744260
  77.7617113  77.9679977 126.5873606  77.4213934  77.1687790 126.9894286
  77.0556120  78.2681688 126.0150439  78.4133585  75.0529289 125.0400929
  79.2359655  74.5789768 124.9179820  78.6571649  75.8319773 125.5399616
  77.0541820  78.0817548 115.3363831  77.7750182  78.4598801 114.8327548
  76.4307124  78.8006425 115.4398809  81.1972943  78.7862697 116.2722163
  81.4136557  79.6687335 115.9710992  80.7167010  78.3948910 115.5427805
  75.9372164  81.7448410 122.8492908  75.7916745  82.0588713 123.7417189
  75.4597368  82.3633310 122.2963807  77.7968547  78.7350958 122.8973797
  77.7830116  77.8392051 122.5606095  78.5140975  78.7421622 123.5312084
  79.6494678  79.1688298 124.9426925  79.3912455  80.0905369 124.9411255
  79.1179718  78.7718733 125.6327389  84.5940866  92.2739085 117.7217010
  84.7677744  91.7085508 116.9690863  85.0869758  93.0739980 117.5396500
  70.4117826  84.2853754 125.7880569  69.8671294  85.0613562 125.9200843
  71.2897176  84.6324559 125.6299691  77.2005443  77.6165338 118.1661368
  77.3221354  76.6881984 118.3652255  76.9107485  77.6304024 117.2539683
  80.0696633  75.3020249 121.3028087  80.0918330  75.3659582 120.3480067
  80.4864692  74.4624757 121.4968594  90.4480258  85.0375508 119.3407310
  90.8911404  84.2882833 118.9426433  89.5706768  85.0285645 118.9581042
  85.5816039  91.5905850 114.8213909  86.2766943  92.2112542 115.0401223
  85.9239189  90.7401201 115.0966286  71.1983848  83.4123651 128.6810726
  70.4565584  83.5606286 129.2675356  70.8776592  83.6731916 127.8177475
  87.4807462  89.0405555 116.3501239  88.0058786  89.3792828 115.6250559
  87.3929815  88.1052571 116.1664374  79.1427511  92.9539629 128.4791116
  79.4514637  92.7088776 129.3513816  79.9402993  93.1586267 127.9909986
  79.1648123  95.1077538 120.7096493  78.7253113  94.6153917 121.4029349
  79.9156240  94.5650506 120.4688568  71.6440462  91.2989079 120.7121121
  72.4698482  90.9992851 120.3319764  71.2934514  90.5296702 121.1610909
  76.6121995  90.6515548 122.7818794  75.9902004  89.9886253 122.4821022
  77.2826862  90.6776679 122.0992442  69.8449067  89.2175406 121.6710054
  69.0080975  88.7897580 121.4894055  69.8172712  89.4107849 122.6080845
  76.6846522  79.1297336 132.3751300  76.7334678  80.0059458 131.9929070
  77.2269037  78.5874729 131.8022943  87.1701368  89.6738459 131.6552437
  86.3796912  89.6562598 131.1156937  86.9334723  90.2126753 132.4101474
  87.2899243  86.5230925 128.9685166  87.3397248  86.3580933 129.9100689
  87.1813166  85.6558184 128.5783047  76.1735502  89.2019471 116.2577255
  76.3223622  89.8854935 115.6043927  76.9801945  89.1824561 116.7726710
  84.5803005  82.5061853 130.2844473  85.4812868  82.3668318 129.9928470
  84.6550980  82.6716308 131.2242650  78.9145811  79.8828708 129.1297659
  78.0449120  80.1762274 128.8580247  79.1505291  80.4669153 129.8504923
  88.7917440  88.9427867 129.2127187  88.5002248  89.3057847 130.0490648
  88.1789571  88.2294875 129.0340519  89.9913122  86.5080747 121.7329758
  90.8260014  86.9470551 121.8967318  90.1272251  86.0319400 120.9138003
  87.0404628  84.0660481 127.6807245  87.5158750  84.2588128 126.8726097
  86.1170194  84.1219667 127.4350629  73.9288135  85.2284649 117.2638324
  73.6834177  84.3246979 117.4618534  74.0984049  85.2301799 116.3217802
  81.6184845  76.1008325 126.6463079  82.1366788  76.8369352 126.3209568
  81.2639977  76.4072318 127.4809838  73.1983782  80.9613006 114.7624485
  72.5053027  81.0357361 114.1064521  72.9535534  80.1973350 115.2846002
  81.8697439  72.5208607 122.1663976  82.1499193  71.8531797 122.7924402
  82.6548046  72.7137703 121.6538640  79.6730907  91.6967601 113.7289002
  79.1004874  92.3157789 113.2759474  80.2463701  92.2466963 114.2628924
  85.7406297  80.9426241 125.9135551  86.6923720  81.0424339 125.9347775
  85.5709748  80.1504510 126.4233635  83.7620677  78.0281825 126.0994952
  83.1670609  78.3086837 125.4041441  83.4770373  78.5175726 126.8711693
  82.8928167  91.9804752 114.8597584  83.8258840  91.9150313 115.0630460
  82.8051380  92.8161018 114.4012117  88.2194375  84.1632361 125.0277851
  88.1870695  83.2248362 125.2137534  88.8294999  84.2416398 124.2943676
  80.0577706  83.0328414 111.0705055  81.0036811  82.9034622 111.1393473
  79.6791951  82.2943076 111.5474483  88.3688863  80.9543405 125.0736134
  87.8527912  80.1701861 124.8866063  89.2528812  80.6262121 125.2382653
  86.0299590  74.6984420 121.0331946  85.8324411  74.3899508 121.9175278
  86.6399296  75.4246059 121.1629876  94.0370925  85.2248368 124.1683887
  94.7674313  84.9633656 124.7291591  93.4277870  84.4877090 124.2085955
  92.1186222  83.3656231 124.7658339  91.3919385  83.2312196 124.1574830
  91.7033509  83.6733059 125.5715057  79.9416398  87.0846160 132.5305712
  80.8619408  87.2624759 132.7245758  79.9065981  86.1402206 132.3785411
  78.2420623  80.9578391 111.0059940  77.3352078  80.6611503 111.0822654
  78.5196604  80.6608209 110.1394226  69.1598563  82.2784754 121.4558986
  68.8401348  81.4250062 121.1633360  68.6131992  82.4933332 122.2116954
  72.9378471  84.9947195 125.1728493  73.1564481  85.9264303 125.1916527
  73.3504245  84.6355169 125.9583297  79.8582689  75.5015280 117.1604181
  79.0483417  75.1562365 117.5359427  80.5467106  75.1922824 117.7491793
  81.7873237  74.5793327 118.7828478  82.3404276  74.9988780 119.4418501
  82.0243323  73.6529075 118.8251434  77.8106336  80.5680401 134.5631242
  77.7103063  81.5174758 134.4943333  77.5927878  80.2398640 133.6907312
  77.0119408  77.8165326 111.1471919  77.8738572  78.1420224 111.4067736
  77.1969752  77.0296822 110.6344985  69.0286823  85.8987665 123.4252108
  68.3350295  85.4841618 122.9122062  69.7759814  85.9408202 122.8285527
  85.1652044  76.6893852 118.2907142  84.5850713  77.3478656 117.9085195
  84.8987977  75.8671197 117.8794560  83.6155610  76.0898910 120.4928462
  84.1155389  76.2015444 119.6842781  84.2591218  75.7859963 121.1329271
  77.6737606  83.9977540 133.3796303  77.1904688  84.7977900 133.5860192
  77.7598545  84.0085484 132.4263747  70.9423566  85.8305919 121.3018123
  70.9194254  85.9293606 120.3500006  71.2524202  86.6771070 121.6235289
  73.6010944  87.8882074 125.4164737  74.5554197  87.8566017 125.3494669
  73.4023467  87.4272698 126.2314963  74.1910326  86.4583190 127.9835535
  75.0103215  86.9527269 128.0070372  74.4647134  85.5415158 127.9553102
  83.9476922  78.8493943 117.3463490  83.0602777  79.1343593 117.1283685
  84.3630911  78.6887706 116.4990767  87.2991458  78.8740464 121.0617830
  88.0751848  79.3636916 121.3342446  86.5739592  79.2998518 121.5189699
  89.7364017  79.5868083 122.1191770  90.3308508  79.3463819 121.4085078
  89.8090601  78.8675213 122.7465307  71.9561173  93.4301694 122.4334935
  71.8215640  92.6702095 121.8672933  71.5393235  94.1542594 121.9663724
  83.0920136  88.6138617 111.4411510  83.7955986  88.8188620 112.0569166
  82.3682784  89.1815379 111.7060594  83.9217946  84.3648479 117.5613781
  83.8653147  84.8217030 116.7221413  84.4746288  83.6039163 117.3836623
  87.7322752  80.1538210 118.3863900  87.4759686  79.7534846 119.2172108
  87.1075620  80.8682004 118.2614039  92.0435090  82.8934284 120.8935191
  91.4834648  82.9627473 121.6666753  91.4378593  82.7175268 120.1734688
  75.1130298  94.3271011 122.6453378  74.9962683  95.2716443 122.5432068
  74.2922745  94.0244572 123.0339177  85.0006833  89.0521146 113.4909970
  85.8352437  88.6202345 113.3087445  84.8391176  88.8803160 114.4186865
  84.6552725  85.5553260 114.8566310  84.6001529  85.3897531 113.9154754
  84.0298780  86.2629293 115.0128499  69.4445240  80.7921324 128.6827732
  70.0904104  80.2820278 129.1714957  69.2362391  81.5290006 129.2571157
  81.9698632  87.8602172 134.1819872  82.8389792  88.0342824 133.8206507
  81.4905384  88.6796588 134.0595602  77.9648851  75.0561369 114.4351628
  77.9527520  76.0003209 114.5919899  78.8572272  74.8731514 114.1411089
  76.1384813  94.9799273 125.8609306  77.0412059  95.0122883 126.1775801
  75.9122183  94.0499724 125.8755642  77.8938415  93.7330259 122.5219385
  76.9434046  93.7332121 122.4083757  78.1970901  92.9862994 122.0055419
  81.7800970  71.6504145 118.6897565  81.0133366  71.0962632 118.8354247
  82.1911675  71.7226014 119.5511717  73.7842731  77.9388941 132.7802746
  74.6474193  77.5825746 132.9906071  73.2108142  77.6002836 133.4678150
  93.6291108  99.5690798 123.5865147  94.2669518  99.4497545 122.8828487
  93.5111951 100.5171642 123.6453099  90.4380814  99.5218226 123.5226672
  90.0999326  99.4059290 122.6347207  91.3070583  99.1209391 123.5027678
  86.2967630 101.3753702 119.5123563  85.7332495 101.2843639 118.7439851
  86.1820025 100.5553607 119.9926055  83.8432062 102.8704894 122.3507783
  84.6353354 102.5295718 121.9354083  84.0828712 102.9799869 123.2709937
  91.8767189 105.0424670 114.8238028  91.2255168 105.6278750 114.4372041
  92.6711552 105.5730865 114.8833065  85.8022816 102.1313807 115.2225162
  86.5753692 101.5842794 115.0838038  86.1548215 102.9958056 115.4339623
  88.5664065 100.8367038 125.0193421  89.1627638 100.6123060 124.3050384
  88.6239037 100.0951783 125.6218869  88.1389094  98.2906473 112.8543612
  88.3914614  97.7687994 112.0927075  87.2013653  98.1272618 112.9570296
  93.1832377  97.2942251 120.6618355  93.9695466  96.8761675 120.3108772
  93.4471081  98.1988344 120.8300004  93.3542454 102.7315102 115.3607012
  92.7188287 102.8049728 116.0727917  93.0239860 103.3208701 114.6826091
  98.5840804  97.2317485 121.5651334  99.3165976  96.6616701 121.7989163
  97.8280159  96.8439085 122.0057839  87.8585382 100.1934579 115.0567987
  87.7421641  99.5179482 115.7249071  87.9687642  99.7066953 114.2400140
  90.2016923  99.6544726 118.7614676  89.8375131  99.1275347 119.4727598
  91.0584039  99.2643195 118.5881162  96.1066224  90.9439059 126.0245942
  95.7749549  91.8134470 125.8007157  95.5111837  90.6275343 126.7039973
  89.8422410  94.6834626 113.7576025  90.0096813  95.5514862 114.1246496
  89.6519579  94.8461907 112.8337314  86.0510225  99.5965402 121.4578559
  85.1260721  99.4641616 121.6656251  86.2994638 100.3759621 121.9548502
  95.9994887  95.6634145 123.1039292  95.0911765  95.5949553 122.8098053
  95.9482483  96.1406090 123.9321118  89.8211631  97.1392283 114.7422691
  89.7011256  97.5849334 115.5808172  89.1264220  97.4877601 114.1836230
  83.4119036  99.2398675 122.2922349  83.5411417  99.4933154 123.2061760
  82.7316487  99.8326383 121.9727004  87.5818523 109.9095925 118.3912823
  87.5042553 110.8603750 118.4701303  86.9780167 109.5641798 119.0487749
  97.8656534  93.8650583 124.8817166  97.2230914  94.1583116 124.2356961
  97.3611462  93.7503504 125.6870363  95.5196697  97.6113756 115.5703026
  96.4314553  97.8441143 115.3950723  95.0106344  98.1950801 115.0078104
  90.1568535  96.9710991 126.5797875  91.0029730  97.3950405 126.7232524
  90.0967173  96.3144615 127.2736438  92.8632672  93.7871792 123.8192886
  92.0017151  94.0853046 124.1109624  92.8895107  94.0042191 122.8873919
  89.6794242 102.3313983 120.2266692  90.1432587 102.6101686 119.4371315
  89.4151040 101.4297428 120.0439783  86.5718323 101.8785465 123.1646455
  87.1419680 102.3072733 122.5263940  87.1626434 101.5968049 123.8630641
  88.6163128  98.4537135 117.0356257  89.3187171  98.9058179 117.5030184
  88.2843756  97.8120954 117.6636150  82.3588462  96.7120688 122.3373391
  81.5687516  96.9678217 121.8613501  82.8499709  97.5269026 122.4425431
  84.3103207  97.0765267 119.2956868  83.5134370  97.1883962 119.8140363
  84.0828799  97.4151920 118.4297758  80.6426165  96.9651178 124.7688382
  80.8934203  97.8498188 125.0345958  81.1785713  96.7855780 123.9963473
  89.8556892 105.2678078 117.1118362  89.7202567 106.1129614 117.5403210
  90.3966705 105.4697356 116.3484296  83.3086290 102.7853516 117.6846288
  83.8210810 103.5796766 117.8351852  83.9609002 102.0879806 117.6179889
  85.1181174 105.9019272 119.7669041  85.2947803 106.8237237 119.5790025
  85.9138008 105.5877692 120.1963421  84.4033531  97.9483904 129.6431204
  84.2887046  97.0469161 129.9438303  83.5478049  98.1947601 129.2916020
  93.2049356  88.7908640 125.6417256  92.8613625  89.6810282 125.5656367
  93.5728318  88.6010298 124.7786841  81.2735206 101.1142170 118.4605858
  82.1110428 101.5239179 118.2439566  81.4513474 100.1741613 118.4306052
  93.1699639  98.7817251 114.1489691  92.6546262  99.5521856 114.3878078
  92.8976947  98.1082387 114.7722752  90.7546750  93.6266952 119.2074929
  89.8988346  93.2373802 119.0280568  91.1673701  93.7058913 118.3474715
  92.2845896  91.1613295 123.6066489  91.7810692  91.1243430 122.7934294
  92.5776503  92.0706038 123.6663146  88.5288782  91.2452025 122.6132671
  89.3941779  91.0494833 122.2538560  88.5966291  91.0162377 123.5402028
  98.1433913 101.5349606 116.0842865  97.3663355 101.1960765 115.6398027
  98.8225394 101.5402229 115.4097830  92.9585942  96.6544343 115.9749472
  92.6536077  96.9690492 116.8259615  93.9116384  96.7325763 116.0176805
  91.4032374 102.8134566 117.6242426  90.8753735 102.0787326 117.3115664
  90.9019876 103.5909243 117.3782395  86.1351101  93.4754233 119.9849038
  86.7094853  93.2529414 119.2522231  86.7222084  93.5442927 120.7377639
  95.1930678  99.3627960 120.7913414  95.7062560  99.9957951 121.2935124
  95.8431902  98.7629155 120.4256774  86.4620688  95.5058694 114.0044923
  85.6258001  95.8433380 114.3254198  86.3225458  95.3707674 113.0672060
  88.4373769  90.3495482 118.7124107  87.7838181  90.0344499 118.0880722
  88.3954243  89.7271222 119.4383930  89.5484974 100.6314777 110.6277399
  88.6412035 100.4004030 110.8268548  90.0456006  99.8352396 110.8151381
  92.4553053 109.3412284 113.5474085  91.7814751 109.6443981 114.1559043
  92.8418875 110.1441364 113.1979542  91.6711509  96.8377415 123.0371755
  90.7534071  97.0592362 122.8793443  92.0871653  96.9123726 122.1783462
  92.4546557  98.2368831 118.1674435  93.2018376  98.7490228 117.8581557
  92.7238147  97.9152884 119.0278829  90.7273207 100.7327372 115.1501389
  89.8184426 100.4486404 115.2473859  90.7568291 101.1526450 114.2904696
  95.9592475 104.3433961 118.9192557  95.5054802 103.5024871 118.9757747
  95.3286441 104.9795359 119.2567337  94.9025394  95.2725947 120.1493224
  94.1648151  94.7603333 120.4803467  95.1552168  94.8326329 119.3376501
  94.4025414 106.1810458 119.8542375  94.6948388 106.7415515 119.1354741
  94.9124034 106.4739019 120.6095534  95.0037021  88.0502199 120.7434994
  95.3095898  87.1899563 120.4560909  95.7289626  88.6419819 120.5433988
  81.2961378  98.4532886 119.1316592  81.0985777  97.8602246 118.4067658
  80.7408042  98.1485096 119.8492530  89.2758101  98.3455992 121.2511185
  89.3306711  97.3929829 121.1753661  88.4649303  98.5015431 121.7352483
  90.4249295 102.2736115 112.4889468  89.9868725 101.5571974 112.0295105
  91.1659736 102.5012230 111.9274559  87.2150461  96.9633052 119.0101564
  86.4018327  97.2627222 119.4166756  87.7109455  96.5688741 119.7276046
  89.3659039 106.9590809 120.9435828  89.3235218 107.1851655 120.0144360
  90.2821738 106.7254183 121.0921629  98.5422410 100.5493312 118.5465786
  98.4040308 100.7394908 117.6186976  98.1858629 101.3112695 119.0033838
  86.7064536  94.5351407 124.6262798  87.3463915  94.3940167 123.9285762
  85.8742066  94.2485921 124.2501400  87.4824840 103.8353838 120.7397791
  88.2765438 103.3404158 120.5380366  86.7716532 103.3071701 120.3765497
  83.7907603  97.9796920 116.8157544  82.8605191  97.9181375 117.0327506
  83.8865075  97.4572872 116.0194185  83.7093152  94.5051732 119.4035785
  83.9699970  95.4197066 119.2944946  84.5310325  94.0376175 119.5532398
  85.1818078  95.9189490 126.5734610  85.8541131  95.7106852 125.9247259
  84.3547864  95.7211576 126.1339842  91.0843650  92.5451430 128.5900271
  90.4371565  93.2441380 128.4964747  91.8544665  92.9787574 128.9576519
  90.6544268 109.5091956 115.7621165  90.8296023 109.0379999 116.5766787
  89.9677056 110.1357722 115.9902425  91.6101331 103.7864463 121.8084466
  91.2751164 103.7465232 122.7042116  91.1105277 103.1209178 121.3354876
  85.5845575  99.1932093 127.3337047  85.4465373  98.4612331 127.9348586
  86.4950498  99.1040993 127.0521235  88.2127876  98.9052052 126.8220727
  88.9227494  98.2645244 126.7807345  88.1697184  99.1564947 127.7446907
  86.9256810  95.8917270 128.6416366  86.3894167  95.4408008 129.2937962
  86.3373518  96.0263179 127.8986830  86.3359068  95.3505921 111.2042830
  85.4588535  95.2294722 110.8405076  86.8116822  94.5591999 110.9521718
  77.8561209 100.1383081 121.2984337  78.5432248  99.8244811 120.7105352
  77.7009337 101.0424446 121.0251588  82.6595931  95.0273277 125.7269361
  82.5754120  94.4198947 124.9919771  81.8378637  95.5182296 125.7278857
  89.5222995 107.7032212 118.4505350  88.7390516 108.2453892 118.5443575
  90.2215740 108.2206191 118.8499591  92.8319645  93.5126841 121.0939556
  93.3288344  92.7596803 120.7740626  92.0606626  93.5491158 120.5282765
  93.9149425 102.2698528 118.6677979  92.9805704 102.3899991 118.4982683
  94.0926094 101.3670995 118.4037989  89.4154613  95.6544224 120.8211240
  89.0452401  95.1015264 121.5092146  89.9113706  95.0502357 120.2686240
  97.3021977  98.1115847 119.2028013  97.7682429  98.9443839 119.1288316
  97.7529477  97.6460829 119.9073272  95.3698208 104.4559669 116.2014165
  95.6458052 104.3416263 117.1108039  94.5002707 104.0577154 116.1626338
  95.2738639  90.4796434 123.2418915  94.3601719  90.7100661 123.4101121
  95.7031741  90.5634879 124.0932947  92.0052272 108.7046020 119.8446979
  92.1874666 107.8867676 120.3074731  92.8285258 108.9213712 119.4071869
  92.3394437 107.6314205 117.1062027  92.8682204 107.1206659 116.4932189
  92.6022657 107.3156735 117.9707560  82.8411530 105.6478074 124.8497361
  83.4264967 104.9021762 124.9825265  82.6436368 105.9582031 125.7334025
  85.6950185 108.6829321 119.8659803  85.0260561 109.1675449 119.3823843
  85.5563055 108.9298542 120.7803182  77.4329185  98.2183674 123.5701804
  77.4713284  97.6847265 124.3638922  76.9269478  97.6918880 122.9512781
  84.8119947  93.0648215 127.0664346  84.8761274  93.9263046 126.6541744
  84.7487067  92.4522216 126.3336705  84.2872220  95.1371347 130.7137381
  84.9144258  94.7548425 131.3274905  83.4300138  94.9185549 131.0793073
  81.0637762  96.9447776 116.6455735  81.3591203  96.0358455 116.5922789
  80.1625798  96.9235516 116.3236738  84.5932009  95.0203773 122.6283284
  83.8718595  95.6339741 122.4890757  85.3825265  95.5561538 122.5499930
  87.3958323  92.3558199 128.9023936  87.9192725  92.6020496 129.6650245
  87.1770656  93.1878234 128.4827073  82.7925604  94.6261874 116.7695061
  82.4638310  93.7459253 116.5870166  83.1464975  94.5709543 117.6571450
  92.0405183 106.2616777 121.2790046  91.8930145 105.3333484 121.4597616
  92.8658676 106.2836867 120.7947121  85.9067427  94.9134844 117.1370538
  86.2463500  95.4420765 116.4149147  86.3539548  95.2515250 117.9129105
  88.6010868  93.2971895 126.5873606  88.2607688  92.4979708 126.9894286
  87.8949874  93.5973605 126.0150439  89.2527340  90.3821207 125.0400929
  90.0753409  89.9081685 124.9179820  89.4965403  91.1611691 125.5399616
  87.8935574  93.4109465 115.3363831  88.6143937  93.7890718 114.8327548
  87.2700878  94.1298342 115.4398809  92.0366697  94.1154614 116.2722163
  92.2530311  94.9979252 115.9710992  91.5560764  93.7240828 115.5427805
  86.7765918  97.0740328 122.8492908  86.6310499  97.3880631 123.7417189
  86.2991122  97.6925228 122.2963807  88.6362301  94.0642876 122.8973797
  88.6223870  93.1683969 122.5606095  89.3534729  94.0713539 123.5312084
  90.4888432  94.4980216 124.9426925  90.2306210  95.4197286 124.9411255
  89.9573472  94.1010650 125.6327389  95.4334621 107.6031003 117.7217010
  95.6071498 107.0377425 116.9690863  95.9263512 108.4031898 117.5396500
  81.2511581  99.6145672 125.7880569  80.7065049 100.3905480 125.9200843
  82.1290931  99.9616477 125.6299691  88.0399197  92.9457256 118.1661368
  88.1615108  92.0173902 118.3652255  87.7501240  92.9595942 117.2539683
  90.9090388  90.6312166 121.3028087  90.9312085  90.6951499 120.3480067
  91.3258447  89.7916675 121.4968594 101.2874012 100.3667426 119.3407310
 101.7305158  99.6174751 118.9426433 100.4100522 100.3577562 118.9581042
  96.4209793 106.9197767 114.8213909  97.1160698 107.5404460 115.0401223
  96.7632943 106.0693119 115.0966286  82.0377603  98.7415568 128.6810726
  81.2959339  98.8898204 129.2675356  81.7170347  99.0023834 127.8177475
  98.3201216 104.3697473 116.3501239  98.8452541 104.7084746 115.6250559
  98.2323569 103.4344488 116.1664374  82.4834216 106.6280997 120.7121121
  83.3092236 106.3284769 120.3319764  82.1328268 105.8588619 121.1610909
  87.4515749 105.9807465 122.7818794  86.8295759 105.3178170 122.4821022
  88.1220616 106.0068597 122.0992442  80.6842821 104.5467323 121.6710054
  79.8474730 104.1189498 121.4894055  80.6566467 104.7399767 122.6080845
  87.0129256 104.5311389 116.2577255  87.1617377 105.2146853 115.6043927
  87.8195700 104.5116479 116.7726710  84.7681889 100.5576566 117.2638324
  84.5227931  99.6538896 117.4618534  84.9377804 100.5593717 116.3217802
  92.4578599  91.4300243 126.6463079  92.9760543  92.1661270 126.3209568
  92.1033732  91.7364236 127.4809838  84.0377537  96.2904924 114.7624485
  83.3446782  96.3649279 114.1064521  83.7929289  95.5265267 115.2846002
  92.7091193  87.8500525 122.1663976  92.9892947  87.1823714 122.7924402
  93.4941800  88.0429621 121.6538640  90.5124662 107.0259519 113.7289002
  89.9398629 107.6449706 113.2759474  91.0857455 107.5758881 114.2628924
  94.6014431  93.3573742 126.0994952  94.0064363  93.6378755 125.4041441
  94.3164128  93.8467643 126.8711693  93.7321922 107.3096669 114.8597584
  94.6652595 107.2442231 115.0630460  93.6445134 108.1452936 114.4012117
  96.3609938 106.6262540 111.8201532  96.2823570 106.2922403 112.7137290
  97.1819605 107.1184307 111.8193004  90.8971460  98.3620332 111.0705055
  91.8430565  98.2326540 111.1393473  90.5185705  97.6234994 111.5474483
  96.8693345  90.0276338 121.0331946  96.6718166  89.7191426 121.9175278
  97.4793050  90.7537977 121.1629876  79.9992318  97.6076672 121.4558986
  79.6795102  96.7541980 121.1633360  79.4525746  97.8225250 122.2116954
  83.7772225 100.3239113 125.1728493  83.9958235 101.2556220 125.1916527
  84.1897999  99.9647087 125.9583297  90.6976443  90.8307198 117.1604181
  89.8877171  90.4854283 117.5359427  91.3860860  90.5214742 117.7491793
  92.6266991  89.9085245 118.7828478  93.1798030  90.3280698 119.4418501
  92.8637078  88.9820993 118.8251434  79.8680578 101.2279583 123.4252108
  79.1744049 100.8133536 122.9122062  80.6153569 101.2700120 122.8285527
  96.0045799  92.0185770 118.2907142  95.4244468  92.6770574 117.9085195
  95.7381731  91.1963114 117.8794560  94.4549365  91.4190828 120.4928462
  94.9549143  91.5307362 119.6842781  95.0984973  91.1151880 121.1329271
  81.7817320 101.1597837 121.3018123  81.7588008 101.2585524 120.3500006
  82.0917957 102.0062988 121.6235289  84.4404698 103.2173992 125.4164737
  85.3947952 103.1857934 125.3494669  84.2417222 102.7564616 126.2314963
  94.7870677  94.1785860 117.3463490  93.8996532  94.4635511 117.1283685
  95.2024666  94.0179624 116.4990767  98.1385213  94.2032381 121.0617830
  98.9145603  94.6928834 121.3342446  97.4133347  94.6290435 121.5189699
 100.5757771  94.9160000 122.1191770 101.1702262  94.6755736 121.4085078
 100.6484355  94.1967131 122.7465307  82.7954927 108.7593611 122.4334935
  82.6609395 107.9994012 121.8672933  82.3786989 109.4834511 121.9663724
  94.7611700  99.6940396 117.5613781  94.7046902 100.1508948 116.7221413
  95.3140043  98.9331081 117.3836623  98.5716506  95.4830128 118.3863900
  98.3153440  95.0826764 119.2172108  97.9469374  96.1973922 118.2614039
 102.8828844  98.2226201 120.8935191 102.3228402  98.2919391 121.6666753
 102.2772347  98.0467186 120.1734688  95.8400587 104.3813064 113.4909970
  96.6746191 103.9494263 113.3087445  95.6784930 104.2095078 114.4186865
  95.4946480 100.8845177 114.8566310  95.4395283 100.7189449 113.9154754
  94.8692535 101.5921210 115.0128499  80.2838995  96.1213242 128.6827732
  80.9297858  95.6112196 129.1714957  80.0756146  96.8581923 129.2571157
  88.8042605  90.3853286 114.4351628  88.7921275  91.3295126 114.5919899
  89.6966027  90.2023432 114.1411089  92.6194725  86.9796063 118.6897565
  91.8527120  86.4254550 118.8354247  93.0305429  87.0517932 119.5511717
  98.9782848 113.6198391 112.8543612  99.2308369 113.0979912 112.0927075
  98.0407407 113.4564536 112.9570296 100.6816165 110.0126543 113.7576025
 100.8490567 110.8806780 114.1246496 100.4913334 110.1753825 112.8337314
  97.3014443 110.8350611 114.0044923  96.4651755 111.1725298 114.3254198
  97.1619212 110.6999591 113.0672060  99.2767523 105.6787399 118.7124107
  98.6231936 105.3636416 118.0880722  99.2347997 105.0563140 119.4383930
 100.3878728 115.9606694 110.6277399  99.4805790 115.7295948 110.8268548
 100.8849760 115.1644314 110.8151381  94.6301358 113.3088837 116.8157544
  93.6998946 113.2473293 117.0327506  94.7258830 112.7864790 116.0194185
  97.1752823 110.6797839 111.2042830  96.2982289 110.5586640 110.8405076
  97.6510576 109.8883917 110.9521718  91.9031517 112.2739694 116.6455735
  92.1984958 111.3650372 116.5922789  91.0019553 112.2527434 116.3236738
  93.6319358 109.9553792 116.7695061  93.3032065 109.0751171 116.5870166
  93.9858729 109.9001460 117.6571450  98.7329329 108.7401383 115.3363831
  99.4537691 109.1182636 114.8327548  98.1094633 109.4590260 115.4398809
  98.8792952 108.2749174 118.1661368  99.0008863 107.3465820 118.3652255
  98.5894994 108.2887860 117.2539683  94.8771291 111.6196841 114.7624485
  94.1840536 111.6941196 114.1064521  94.6323043 110.8557185 115.2846002
 101.7365215 113.6912249 111.0705055 102.6824319 113.5618458 111.1393473
 101.3579460 112.9526911 111.5474483  99.9208132 111.6162226 111.0059940
  99.0139587 111.3195339 111.0822654 100.1984113 111.3192044 110.1394226
 101.5370198 106.1599116 117.1604181 100.7270926 105.8146201 117.5359427
 102.2254615 105.8506659 117.7491793  98.6906917 108.4749161 111.1471919
  99.5526081 108.8004059 111.4067736  98.8757261 107.6880657 110.6344985
  99.6436360 105.7145204 114.4351628  99.6315029 106.6587044 114.5919899
 100.5359781 105.5315350 114.1411089 103.4588479 102.3087981 118.6897565
 102.6920875 101.7546467 118.8354247 103.8699184 102.3809850 119.5511717
  37.6798418   5.4027204 101.5483334  37.0286397   5.9881284 101.1617348
  38.4742780   5.9333399 101.6078372  43.9465141   1.8952140 102.8088171
  43.1694584   1.5563299 102.3643333  44.6256622   1.9004763 102.1343136
  35.3516203   0.9917311  97.3522706  34.4443264   0.7606564  97.5513855
  35.8487235   0.1954930  97.5396687  38.2584281   9.7014818 100.2719392
  37.5845980  10.0046515 100.8804350  38.6450103  10.5043898  99.9224849
  36.2280524   2.6338649  99.2134775  35.7899954   1.9174508  98.7540412
  36.9690965   2.8614764  98.6519866  36.4575497   9.8694490 102.4866471
  36.6327252   9.3982534 103.3012094  35.7708285  10.4960257 102.7147732
  40.3491751   1.4923031  98.8066832  39.7320922   0.7669859  98.7099885
  39.8808240   2.2532391  98.4633906  41.1729437   4.8162203 102.9259472
  41.4489280   4.7018798 103.8353346  40.3033935   4.4179688 102.8871645
  38.1425666   7.9916739 103.8307334  38.6713433   7.4809194 103.2177496
  38.4053886   7.6759269 104.6952867  41.2365850   7.9633537 104.4462317
  41.4102727   7.3979960 103.6936169  41.7294741   8.7634432 104.2641807
  42.2241022   7.2800302 101.5459215  42.9191927   7.9006994 101.7646530
  42.5664172   6.4295653 101.8211593  44.1232445   4.7300007 103.0746546
  44.6483769   5.0687280 102.3495866  44.0354798   3.7947022 102.8909681
  36.3155891   7.3862053 100.4534309  35.7429858   8.0052240 100.0004781
  36.8888684   7.9361415 100.9874231  39.5353150   7.6699203 101.5842891
  40.4683824   7.6044765 101.7875767  39.4476363   8.5055470 101.1257424
  42.1641167   6.9865074  98.5446839  42.0854799   6.6524937  99.4382597
  42.9850834   7.4786842  98.5438311  36.7002689  -1.2777134  97.7950361
  37.6461794  -1.4070926  97.8638779  36.3216934  -2.0162472  98.2719789
  39.7345119   4.3033069  98.1656817  40.4380969   4.5083072  98.7814473
  39.0107768   4.8709831  98.4305901  41.6431816   4.7415598 100.2155277
  42.4777420   4.3096797 100.0332752  41.4816159   4.5697612 101.1432172
  41.2977708   1.2447712 101.5811616  41.2426512   1.0791983 100.6400060
  40.6723764   1.9523745 101.7373806  50.2716091  15.2585249 110.3110454
  50.9094501  15.1391997 109.6073794  50.1536934  16.2066093 110.3698406
  47.0805798  15.2112678 110.2471978  46.7424309  15.0953742 109.3592513
  47.9495566  14.8103843 110.2272985  42.9392613  17.0648154 106.2368869
  42.3757478  16.9738091 105.4685157  42.8245008  16.2448058 106.7171362
  40.4857045  18.5599346 109.0753090  41.2778337  18.2190170 108.6599389
  40.7253695  18.6694321 109.9955243  48.5192172  20.7319122 101.5483334
  47.8680152  21.3173202 101.1617348  49.3136535  21.2625317 101.6078372
  42.4447799  17.8208259 101.9470469  43.2178675  17.2737246 101.8083344
  42.7973198  18.6852508 102.1584930  45.2089049  16.5261490 111.7438728
  45.8052621  16.3017512 111.0295691  45.2664020  15.7846235 112.3464175
  44.7814077  13.9800925  99.5788919  45.0339598  13.4582446  98.8172382
  43.8438636  13.8167070  99.6815602  49.8257360  12.9836703 107.3863662
  50.6120449  12.5656126 107.0354079  50.0896064  13.8882795 107.5545310
  49.9967437  18.4209554 102.0852319  49.3613270  18.4944180 102.7973223
  49.6664844  19.0103152 101.4071398  55.2265787  12.9211936 108.2896640
  55.9590959  12.3511153 108.5234470  54.4705143  12.5333537 108.7303146
  44.5010366  15.8829031 101.7813294  44.3846624  15.2073934 102.4494378
  44.6112626  15.3961405 100.9645447  46.8441907  15.3439178 105.4859983
  46.4800114  14.8169799 106.1972904  47.7009023  14.9537647 105.3126468
  46.4847394  10.3729078 100.4821331  46.6521796  11.2409314 100.8491802
  46.2944563  10.5356359  99.5582621  49.2422727  18.8346057 112.1487162
  48.9423450  19.7371095 112.0402969  48.8973786  18.5678240 113.0008315
  42.6935208  15.2859853 108.1823866  41.7685705  15.1536068 108.3901558
  42.9419622  16.0654073 108.6793809  52.6419871  11.3528597 109.8284599
  51.7336748  11.2844005 109.5343360  52.5907466  11.8300542 110.6566424
  46.4636615  12.8286735 101.4667998  46.3436240  13.2743786 102.3053478
  45.7689203  13.1772053 100.9081536  40.0544019  14.9293127 109.0167655
  40.1836401  15.1827606 109.9307067  39.3741471  15.5220835 108.6972310
  44.2243507  25.5990377 105.1158129  44.1467536  26.5498202 105.1946610
  43.6205150  25.2536249 105.7733056  54.5081517   9.5545035 111.6062473
  53.8655897   9.8477568 110.9602268  54.0036446   9.4397956 112.4115670
  52.1621681  13.3008208 102.2948332  53.0739537  13.5335595 102.1196030
  51.6531328  13.8845253 101.7323411  50.7691263  18.2834027 109.6861914
  50.1400125  18.4479741 108.9837982  50.3816925  18.6975636 110.4572878
  54.6480495  19.2188465 107.0406277  53.9631533  19.5987366 106.4903311
  54.7324344  19.8283791 107.7738225  51.9031426  16.8648424 113.6401621
  52.1148322  17.5080184 112.9636002  51.8561175  16.0310740 113.1723551
  46.3219225  18.0208435 106.9511999  46.7857570  18.2996138 106.1616621
  46.0576023  17.1191879 106.7685089  43.2143306  17.5679916 109.8891762
  43.7844663  17.9967185 109.2509246  43.8051418  17.2862501 110.5875948
  45.2588111  14.1431587 103.7601564  45.9612154  14.5952631 104.2275490
  44.9268739  13.5015406 104.3881457  53.0177254  19.7420379 111.8123978
  53.8394698  19.3400566 111.5306660  53.0139657  19.6388613 112.7640094
  40.9528190  12.7659719 106.0202174  40.1559354  12.8778413 106.5385670
  40.7253782  13.1046371 105.1543065  46.7833858  19.2904422 113.9684689
  46.8478290  19.7524830 114.8042861  46.0744782  18.6601787 114.0966999
  61.1083247  16.0859128 108.1608950  60.3546956  15.5166526 108.0052954
  61.2430789  16.0521792 109.1079584  46.4981876  20.9572530 103.8363669
  46.3627550  21.8024066 104.2648517  47.0391688  21.1591808 103.0729603
  39.9511273  18.4747968 104.4091594  40.4635793  19.2691218 104.5597159
  40.6033986  17.7774258 104.3425196  41.7606158  21.5913724 106.4914347
  41.9372786  22.5131689 106.3035331  42.5562991  21.2772143 106.9208727
  42.8837473  23.1091898 112.4924690  43.4344898  22.9808961 111.7201684
  42.0448949  23.4086787 112.1419582  50.2231590  21.8598896 115.9945412
  50.2050065  22.6807777 115.5025682  51.1451510  21.7352972 116.2195554
  37.9160190  16.8036622 105.1851165  38.7535412  17.2133631 104.9684872
  38.0938457  15.8636064 105.1551359  49.8124622  14.4711703 100.8734998
  49.2971245  15.2416308 101.1123385  49.5401930  13.7976839 101.4968059
  47.3971733   9.3161404 105.9320236  46.5413329   8.9268254 105.7525875
  47.8098685   9.3953364 105.0720022  54.7858896  17.2244058 102.8088171
  54.0088339  16.8855217 102.3643333  55.4650377  17.2296681 102.1343136
  49.6010925  12.3438795 102.6994779  49.2961061  12.6584944 103.5504922
  50.5541367  12.4220215 102.7422112  48.0457357  18.5029018 104.3487733
  47.5178718  17.7681778 104.0360970  47.5444860  19.2803695 104.1027701
  53.0250203  16.6978039 109.4654779  52.3673877  17.3877300 109.5534908
  53.8290602  17.0874471 109.8088765  42.7776084   9.1648685 106.7094344
  43.3519836   8.9423866 105.9767537  43.3647067   9.2337379 107.4622946
  51.8355662  15.0522411 107.5158721  52.3487543  15.6852403 108.0180431
  52.4856886  14.4523607 107.1502081  43.1045672  11.1953146 100.7290230
  42.2682984  11.5327832 101.0499504  42.9650441  11.0602125  99.7917367
  45.0798752   6.0389933 105.4369414  44.4263165   5.7238951 104.8126029
  45.0379226   5.4165674 106.1629237  46.1909957  16.3209229  97.3522706
  45.2837019  16.0898482  97.5513855  46.6880989  15.5246848  97.5396687
  49.0978036  25.0306736 100.2719392  48.4239735  25.3338433 100.8804350
  49.4843858  25.8335816  99.9224849  48.3136493  12.5271867 109.7617061
  47.3959054  12.7486814 109.6038749  48.7296636  12.6018177 108.9028769
  49.0971540  13.9263283 104.8919742  49.8443359  14.4384680 104.5826864
  49.3663130  13.6047335 105.7524135  47.3698190  16.4221823 101.8746696
  46.4609410  16.1380856 101.9719166  47.3993274  16.8420902 101.0150003
  52.6017458  20.0328413 105.6437864  52.1479785  19.1919323 105.7003054
  51.9711425  20.6689811 105.9812644  51.5450377  10.9620399 106.8738531
  50.8073134  10.4497785 107.2048774  51.7977151  10.5220781 106.0621808
  51.0450397  21.8704910 106.5787682  51.3373371  22.4309967 105.8600047
  51.5549018  22.1633471 107.3340841  51.6462005   3.7396651 107.4680300
  51.9520882   2.8794014 107.1806215  52.3714610   4.3314271 107.2679294
  37.9386361  14.1427338 105.8561898  37.7410761  13.5496698 105.1312965
  37.3833025  13.8379548 106.5737837  45.9183085  14.0350444 107.9756491
  45.9731694  13.0824280 107.8998968  45.1074287  14.1909883 108.4597790
  47.0674278  17.9630567  99.2134775  46.6293708  17.2466426  98.7540412
  47.8084719  18.1906682  98.6519866  43.8575444  12.6527504 105.7346870
  43.0443310  12.9521674 106.1412062  44.3534439  12.2583193 106.4521352
  46.0084022  22.6485261 107.6681135  45.9660201  22.8746107 106.7389667
  46.9246721  22.4148635 107.8166936  55.1847393  16.2387764 105.2711093
  55.0465292  16.4289360 104.3432282  54.8283612  17.0007147 105.7279144
  55.2116773  18.3064291 110.2822365  55.6453279  18.2139580 111.1305419
  55.9248353  18.2821792 109.6442381  44.1249823  19.5248290 107.4643098
  44.9190422  19.0298610 107.2625673  43.4141515  18.9966153 107.1010803
  48.9444668  21.9066385 111.8155465  48.9981690  22.4757322 112.5833181
  48.0759449  22.0768270 111.4509502  40.4332587  13.6691371 103.5402850
  39.5030175  13.6075827 103.7572812  40.5290059  13.1467324 102.7439492
  40.3518136  10.1946184 106.1281092  40.6124953  11.1091518 106.0190252
  41.1735308   9.7270627 106.2777705  56.0732322  18.3487992 112.8155250
  56.2668212  19.2533802 113.0614525  55.9732940  17.8895411 113.6493835
  47.9032767  16.0726647 113.3742397  48.8324827  16.2237807 113.2011364
  47.4823797  16.1610668 112.5191044  46.7021099  20.0977312 111.1440935
  46.5632185  19.7296096 112.0166873  45.9135695  20.6124951 110.9724892
  47.2969251  25.1986408 102.4866471  47.4721007  24.7274451 103.3012094
  46.6102039  25.8252174 102.7147732  48.2526314  19.4758914 108.5329772
  47.9176147  19.4359684 109.4287422  47.7530260  18.8103630 108.0600183
  51.1885506  16.8214949  98.8066832  50.5714677  16.0961777  98.7099885
  50.7201994  17.5824309  98.4633906  52.8439638  21.5313857 116.4672612
  52.7852184  20.8473077 115.8003196  53.2459156  22.2732847 116.0153238
  41.8630336  28.3475771 109.2606331  42.1026935  28.9794295 109.9385350
  41.0199533  27.9963811 109.5471691  42.9784052  11.0400373  97.9288136
  42.1013518  10.9189174  97.5650383  43.4541805  10.2486451  97.6767025
  52.8457045  19.4953441 114.6986592  51.9583824  19.1579363 114.8212991
  53.4155596  18.7636472 114.9355358  34.4986192  15.8277533 108.0229644
  35.1857232  15.5139263 107.4350659  34.3434321  16.7318897 107.7496895
  46.3758198  24.1554893 111.6647835  46.3028370  24.9609865 112.1767140
  45.9335591  24.3546859 110.8395857  46.1647978  23.3926663 105.1750657
  45.3815500  23.9348344 105.2688881  46.8640723  23.9100643 105.5744898
  49.4744628   9.2021293 107.8184862  49.9713327   8.4491255 107.4985933
  48.7031609   9.2385610 107.2528072  57.3274385  14.9061658 109.4603154
  57.3164262  15.7886374 109.0897087  56.4591765  14.5533209 109.2657691
  48.8356882  24.0541727 113.8205994  49.5484854  24.6889192 113.7481895
  48.3446910  24.1505593 113.0045996  50.5574409  17.9592980 105.3923286
  49.6230687  18.0794443 105.2227990  50.7351077  17.0565447 105.1283296
  46.0579597  11.3438676 107.5456547  45.6877384  10.7909716 108.2337452
  46.5538689  10.7396809 106.9931547  53.9446960  13.8010299 105.9273320
  54.4107412  14.6338291 105.8533622  54.3954460  13.3355281 106.6318578
  43.8868795  21.8036171 114.6411565  44.5878255  22.4372654 114.7940959
  43.4163910  22.1450902 113.8807204  52.0123191  20.1454121 102.9259472
  52.2883035  20.0310715 103.8353346  51.1427690  19.7471606 102.8871645
  51.6870081  14.3580778 112.4664115  51.0341531  14.6056686 111.8116568
  52.0650461  13.5444917 112.1326592  48.6477255  24.3940472 106.5692285
  48.8299650  23.5762127 107.0320038  49.4710241  24.6108164 106.1317175
  48.9819421  23.3208657 103.8307334  49.5107187  22.8101111 103.2177496
  49.2447640  23.0051187 104.6952867  39.4836513  21.3372526 111.5742668
  40.0689950  20.5916214 111.7070572  39.2861352  21.6476483 112.4579331
  42.3375169  24.3723773 106.5905110  41.6685544  24.8569901 106.1069150
  42.1988038  24.6192994 107.5048488  46.4780437  26.4067517 113.1887768
  47.0298745  26.5699138 113.9536853  46.8186631  26.9971955 112.5167793
  37.7062746  12.6342228 103.3701042  38.0016187  11.7252907 103.3168096
  36.8050781  12.6129968 103.0482044  49.6148824  24.3549492 110.1751450
  49.4899964  23.5539232 109.6662396  50.2727916  24.8495686 109.6865420
  51.6783733  22.1558512 111.8031001  50.7314068  22.0363864 111.7309327
  52.0266506  21.2681010 111.8857262  39.4350587  10.3156326 103.4940367
  39.1063293   9.4353705 103.3115473  39.7889958  10.2603995 104.3816756
  48.6830166  21.9511229 108.0035353  48.5355129  21.0227936 108.1842923
  49.5083660  21.9731319 107.5192428  42.5492410  10.6029296 103.8615845
  42.8888483  11.1315217 103.1394453  42.9964531  10.9409702 104.6374411
  52.2864288  22.7739787 109.0900226  53.2110835  22.5682649 108.9524677
  52.1179591  22.5256189 109.9989567  44.5360558   9.1003917 102.0609138
  45.2568920   9.4785170 101.5572855  43.9125862   9.8192794 102.1644116
  48.6791680   9.8049066 102.9967470  48.8955295  10.6873704 102.6956298
  48.1985748   9.4135280 102.2673112  52.0759604  23.2925455 104.4462317
  52.2496482  22.7271877 103.6936169  52.5688495  24.0926350 104.2641807
  44.6824181   8.6351708 104.8906674  44.8040092   7.7068354 105.0897562
  44.3926223   8.6490394 103.9784990  57.9298995  16.0561878 106.0652617
  58.3730141  15.3069203 105.6671740  57.0525506  16.0472014 105.6826349
  53.0634777  22.6092219 101.5459215  53.7585681  23.2298912 101.7646530
  53.4057927  21.7587570 101.8211593  54.9626200  20.0591925 103.0746546
  55.4877524  20.3979198 102.3495866  54.8748552  19.1238940 102.8909681
  46.6246248  23.9725998 115.2036423  46.9333375  23.7275145 116.0759122
  47.4221730  24.1772637 114.7155293  46.6466860  26.1263908 107.4341799
  46.2071851  25.6340287 108.1274656  47.3974977  25.5836876 107.1933874
  39.1259199  22.3175449 107.4366427  39.9517219  22.0179221 107.0565071
  38.7753251  21.5483071 107.8856216  44.0940733  21.6701917 109.5064101
  43.4720742  21.0072622 109.2066329  44.7645600  21.6963049 108.8237749
  37.3267805  20.2361775 108.3955361  36.4899713  19.8083950 108.2139362
  37.2991450  20.4294219 109.3326152  54.6520106  20.6924828 118.3797744
  53.8615650  20.6748967 117.8402243  54.4153460  21.2313122 119.1346781
  54.7717981  17.5417295 115.6930473  54.8215986  17.3767302 116.6345995
  54.6631904  16.6744554 115.3028353  43.6554240  20.2205840 102.9822561
  43.8042360  20.9041305 102.3289234  44.4620683  20.2010931 103.4972017
  56.2736178  19.9614236 115.9372494  55.9820986  20.3244217 116.7735955
  55.6608309  19.2481245 115.7585826  57.4731860  17.5267116 108.4575064
  58.3078751  17.9656920 108.6212625  57.6090989  17.0505769 107.6383310
  54.5223366  15.0846851 114.4052552  54.9977488  15.2774497 113.5971403
  53.5988931  15.1406037 114.1595936  41.4106873  16.2471018 103.9883630
  41.1652914  15.3433348 104.1863840  41.5802787  16.2488169 103.0463108
  40.6802520  11.9799376 101.4869792  39.9871765  12.0543731 100.8309828
  40.4354272  11.2159719 102.0091309  47.1549645  22.7153971 100.4534309
  46.5823612  23.3344158 100.0004781  47.7282439  23.2653333 100.9874231
  53.2225035  11.9612611 112.6380858  54.1742458  12.0610709 112.6593082
  53.0528485  11.1690880 113.1478942  50.3746905  22.9991121 101.5842891
  51.3077578  22.9336683 101.7875767  50.2870118  23.8347388 101.1257424
  53.0034922  22.3156991  98.5446839  52.9248553  21.9816855  99.4382597
  53.8244588  22.8078759  98.5438311  55.7013113  15.1818731 111.7523157
  55.6689433  14.2434731 111.9382841  56.3113736  15.2602767 111.0188982
  47.5396444  14.0514784  97.7950361  48.4855548  13.9220992  97.8638779
  47.1610689  13.3129446  98.2719789  55.8507601  11.9729774 111.7981440
  55.3346650  11.1888231 111.6111369  56.7347550  11.6448491 111.9627960
  53.5118328   5.7170790 107.7577253  53.3143149   5.4085878 108.6420585
  54.1218034   6.4432429 107.8875183  61.5189663  16.2434738 110.8929194
  62.2493051  15.9820026 111.4536897  60.9096608  15.5063459 110.9331262
  59.6004960  14.3842600 111.4903645  58.8738123  14.2498565 110.8820137
  59.1852247  14.6919429 112.2960363  45.7239361  11.9764760  97.7305247
  44.8170816  11.6797873  97.8067960  46.0015342  11.6794578  96.8639533
  47.3401426   6.5201650 103.8849488  46.5302155   6.1748735 104.2604734
  48.0285843   6.2109194 104.4737099  49.2691975   5.5979697 105.5073784
  49.8223013   6.0175150 106.1663808  49.5062061   4.6715445 105.5496740
  44.4938145   8.8351695  97.8717226  45.3557309   9.1606594  98.1313043
  44.6788490   8.0483191  97.3590292  52.6470782   7.7080222 105.0152449
  52.0669451   8.3665026 104.6330501  52.3806715   6.8857566 104.6039866
  51.0974348   7.1085279 107.2173769  51.5974127   7.2201814 106.4088088
  51.7409956   6.8046332 107.8574578  38.4242304  16.8492289 108.0263429
  38.4012992  16.9479976 107.0745313  38.7342940  17.6957440 108.3480596
  51.4295660   9.8680312 104.0708797  50.5421515  10.1529963 103.8528992
  51.8449649   9.7074076 103.2236074  54.7810196   9.8926833 107.7863136
  55.5570586  10.3823286 108.0587753  54.0558330  10.3184887 108.2435006
  57.2182755  10.6054452 108.8437077  57.8127245  10.3650188 108.1330385
  57.2909338   9.8861583 109.4710613  39.4379910  24.4488063 109.1580242
  39.3034378  23.6888464 108.5918240  39.0211973  25.1728963 108.6909031
  50.5738873  19.6324987  98.1656817  51.2774723  19.8374989  98.7814473
  49.8501522  20.2001749  98.4305901  51.4036684  15.3834848 104.2859087
  51.3471885  15.8403399 103.4466720  51.9565026  14.6225533 104.1081930
  55.2141490  11.1724580 105.1109207  54.9578424  10.7721216 105.9417414
  54.5894358  11.8868374 104.9859346  59.5253827  13.9120653 107.6180498
  58.9653385  13.9813843 108.3912060  58.9197331  13.7361638 106.8979994
  42.5949036  25.3457380 109.3698684  42.4781420  26.2902813 109.2677375
  41.7741482  25.0430942 109.7584484  52.4825571  20.0707516 100.2155277
  53.3171175  19.6388714 100.0332752  52.3209914  19.8989530 101.1432172
  52.1371463  16.5739629 101.5811616  52.0820267  16.4083901 100.6400060
  51.5117518  17.2815662 101.7373806  45.4467588   6.0747738 101.1596935
  45.4346258   7.0189578 101.3165206  46.3391010   5.8917884 100.8656396
  43.6203550  25.9985642 112.5854613  44.5230797  26.0309252 112.9021108
  43.3940920  25.0686093 112.6000949  45.3757152  24.7516629 109.2464691
  44.4252783  24.7518490 109.1329064  45.6789638  24.0049363 108.7300726
  49.2619708   2.6690515 105.4142872  48.4952104   2.1149002 105.5599554
  49.6730413   2.7412384 106.2757023  61.1109846  30.5877167 110.3110454
  61.7488256  30.4683914 109.6073794  60.9930689  31.5358011 110.3698406
  57.9199552  30.5404595 110.2471978  57.5818064  30.4245660 109.3592513
  58.7889320  30.1395760 110.2272985  53.7786368  32.3940072 106.2368869
  53.2151233  32.3030009 105.4685157  53.6638763  31.5739976 106.7171362
  58.4019335  31.6939447 116.2058184  58.3907976  31.2992245 115.3338688
  58.5639975  30.9605520 116.7991955  51.3250800  33.8891263 109.0753090
  52.1172092  33.5482088 108.6599389  51.5647450  33.9986238 109.9955243
  59.3585927  36.0611039 101.5483334  58.7073906  36.6465120 101.1617348
  60.1530289  36.5917234 101.6078372  53.2841554  33.1500176 101.9470469
  54.0572430  32.6029164 101.8083344  53.6366953  34.0144426 102.1584930
  55.1226596  34.4776559 115.1537368  54.8316462  35.3822190 115.0384034
  55.7583581  34.5193086 115.8681438  56.0482803  31.8553407 111.7438728
  56.6446375  31.6309430 111.0295691  56.1057775  31.1138153 112.3464175
  55.6207831  29.3092843  99.5788919  55.8733352  28.7874364  98.8172382
  54.6832391  29.1458988  99.6815602  60.6651114  28.3128621 107.3863662
  61.4514204  27.8948044 107.0354079  60.9289819  29.2174713 107.5545310
  60.8361192  33.7501471 102.0852319  60.2007025  33.8236098 102.7973223
  60.5058598  34.3395070 101.4071398  66.0659541  28.2503854 108.2896640
  66.7984713  27.6803071 108.5234470  65.3098897  27.8625455 108.7303146
  55.3404120  31.2120949 101.7813294  55.2240378  30.5365852 102.4494378
  55.4506380  30.7253322 100.9645447  57.6835661  30.6731096 105.4859983
  57.3193868  30.1461717 106.1972904  58.5402777  30.2829565 105.3126468
  63.5884962  21.9625428 112.7491249  63.2568287  22.8320839 112.5252464
  62.9930575  21.6461712 113.4285279  57.3241148  25.7020995 100.4821331
  57.4915550  26.5701232 100.8491802  57.1338317  25.8648277  99.5582621
  60.0816481  34.1637974 112.1487162  59.7817204  35.0663013 112.0402969
  59.7367541  33.8970157 113.0008315  53.5328963  30.6151771 108.1823866
  52.6079459  30.4827985 108.3901558  53.7813376  31.3945990 108.6793809
  63.4813625  26.6820514 109.8284599  62.5730502  26.6135923 109.5343360
  63.4301221  27.1592459 110.6566424  57.3030369  28.1578653 101.4667998
  57.1829994  28.6035704 102.3053478  56.6082957  28.5063971 100.9081536
  50.8937774  30.2585045 109.0167655  51.0230155  30.5119524 109.9307067
  50.2135225  30.8512753 108.6972310  55.0637261  40.9282295 105.1158129
  54.9861291  41.8790120 105.1946610  54.4598905  40.5828167 105.7733056
  57.5554491  28.1010160 117.7719496  56.7787825  28.6604080 117.7622361
  58.1945054  28.5866943 118.2934366  65.3475272  24.8836953 111.6062473
  64.7049652  25.1769486 110.9602268  64.8430200  24.7689873 112.4115670
  63.0015435  28.6300126 102.2948332  63.9133291  28.8627513 102.1196030
  62.4925082  29.2137170 101.7323411  55.8100863  30.9095613 117.3337463
  56.5515548  31.4480657 117.0572287  55.1037849  31.5361902 117.4909015
  61.2856203  33.0524754 115.9309625  61.6939559  32.6107164 115.1864257
  60.5633464  32.4777381 116.1843818  57.6387273  27.9897361 113.3043182
  58.4848468  28.4136774 113.4477831  57.5785911  27.3330985 113.9981745
  61.6085017  33.6125944 109.6861914  60.9793880  33.7771659 108.9837982
  61.2210680  34.0267554 110.4572878  65.4874249  34.5480382 107.0406277
  64.8025288  34.9279284 106.4903311  65.5718099  35.1575709 107.7738225
  60.7886718  25.6501729 114.9624355  60.5447650  26.4043790 114.4258631
  61.0646649  26.0287077 115.7971602  62.7425181  32.1940341 113.6401621
  62.9542076  32.8372101 112.9636002  62.6954929  31.3602658 113.1723551
  60.3451410  24.8058162 110.5438193  59.4835889  25.1039416 110.8354931
  60.3713845  25.0228561 109.6119226  57.1612979  33.3500353 106.9511999
  57.6251325  33.6288056 106.1616621  56.8969777  32.4483797 106.7685089
  54.0537060  32.8971834 109.8891762  54.6238417  33.3259102 109.2509246
  54.6445172  32.6154419 110.5875948  56.0981865  29.4723505 103.7601564
  56.8005909  29.9244549 104.2275490  55.7662494  28.8307324 104.3881457
  54.5462227  28.0635262 118.1352773  53.9160888  28.7451542 118.3688170
  54.4398315  27.9518343 117.1905912  49.8407199  27.7307058 109.0618697
  49.0506253  27.9864586 108.5858808  50.3318447  28.5455395 109.1670738
  63.8571009  35.0712297 111.8123978  64.6788453  34.6692484 111.5306660
  63.8533412  34.9680531 112.7640094  51.7921945  28.0951637 106.0202174
  50.9953108  28.2070331 106.5385670  51.5647537  28.4338289 105.1543065
  57.6227612  34.6196340 113.9684689  57.6872045  35.0816747 114.8042861
  56.9138536  33.9893705 114.0966999  48.1244902  27.9837548 111.4933688
  48.3752941  28.8684558 111.7591264  48.6604451  27.8042150 110.7208780
  71.9477002  31.4151045 108.1608950  71.1940710  30.8458443 108.0052954
  72.0824543  31.3813710 109.1079584  57.3375630  36.2864448 103.8363669
  57.2021305  37.1315983 104.2648517  57.8785443  36.4883725 103.0729603
  50.7905027  33.8039886 104.4091594  51.3029548  34.5983136 104.5597159
  51.4427740  33.1066176 104.3425196  52.5999912  36.9205642 106.4914347
  52.7766540  37.8423607 106.3035331  53.3956746  36.6064061 106.9208727
  56.7410931  23.7813907 118.0898281  57.4820644  24.3821060 118.0102743
  56.9728853  23.0391544 117.5316323  51.8852269  28.9670274 116.3676511
  51.7705784  28.0655531 116.6683609  51.0296786  29.2133971 116.0161327
  58.9644106  36.9088014 117.9664011  58.5207961  36.1224393 117.6484916
  59.6261320  37.0967165 117.3007902  53.7231228  38.4383816 112.4924690
  54.2738653  38.3100879 111.7201684  52.8842703  38.7378705 112.1419582
  61.0625344  37.1890814 115.9945412  61.0443820  38.0099695 115.5025682
  61.9845265  37.0644889 116.2195554  57.5198399  34.7034944 116.8368921
  58.0526735  33.9423232 116.6068229  56.9912480  34.4108595 117.5793075
  60.6868094  19.8095009 112.3662563  60.3432363  20.6996651 112.2901673
  61.0547056  19.6196667 111.5032148  48.7553944  32.1328540 105.1851165
  49.5929166  32.5425548 104.9684872  48.9332212  31.1927982 105.1551359
  60.6518376  29.8003621 100.8734998  60.1365000  30.5708225 101.1123385
  60.3795685  29.1268757 101.4968059  58.2365487  24.6453321 105.9320236
  57.3807084  24.2560172 105.7525875  58.6492439  24.7245282 105.0720022
  59.7664634  22.1799665 110.3311796  59.2629430  22.1429800 109.5179601
  60.0595241  23.0892407 110.3908452  56.0107520  22.2638394 109.3377978
  56.8760517  22.0681203 108.9783867  56.0785029  22.0348746 110.2647334
  65.6252650  32.5535975 102.8088171  64.8482093  32.2147135 102.3643333
  66.3044131  32.5588598 102.1343136  60.4404679  27.6730713 102.6994779
  60.1354815  27.9876862 103.5504922  61.3935122  27.7512133 102.7422112
  58.8851111  33.8320936 104.3487733  58.3572473  33.0973696 104.0360970
  58.3838614  34.6095612 104.1027701  63.8643957  32.0269956 109.4654779
  63.2067632  32.7169218 109.5534908  64.6684357  32.4166388 109.8088765
  53.6169839  24.4940602 106.7094344  54.1913591  24.2715784 105.9767537
  54.2040821  24.5629297 107.4622946  62.6749416  30.3814329 107.5158721
  63.1881298  31.0144321 108.0180431  63.3250640  29.7815525 107.1502081
  53.9439426  26.5245063 100.7290230  53.1076738  26.8619750 101.0499504
  53.8044196  26.3894043  99.7917367  55.9192507  21.3681851 105.4369414
  55.2656919  21.0530868 104.8126029  55.8772981  20.7457592 106.1629237
  57.0303712  31.6501146  97.3522706  56.1230773  31.4190400  97.5513855
  57.5274743  30.8538765  97.5396687  59.9371790  40.3598653 100.2719392
  59.2633489  40.6630350 100.8804350  60.3237612  41.1627734  99.9224849
  59.1530247  27.8563785 109.7617061  58.2352808  28.0778732 109.6038749
  59.5690391  27.9310095 108.9028769  59.9365295  29.2555200 104.8919742
  60.6837114  29.7676598 104.5826864  60.2056884  28.9339253 105.7524135
  58.2091945  31.7513741 101.8746696  57.3003164  31.4672774 101.9719166
  58.2387029  32.1712820 101.0150003  63.4411212  35.3620331 105.6437864
  62.9873539  34.5211240 105.7003054  62.8105179  35.9981729 105.9812644
  62.3844132  26.2912317 106.8738531  61.6466889  25.7789703 107.2048774
  62.6370905  25.8512698 106.0621808  61.8844152  37.1996827 106.5787682
  62.1767126  37.7601884 105.8600047  62.3942772  37.4925388 107.3340841
  62.4855759  19.0688569 107.4680300  62.7914636  18.2085932 107.1806215
  63.2108364  19.6606189 107.2679294  48.7780115  29.4719255 105.8561898
  48.5804515  28.8788616 105.1312965  48.2226779  29.1671465 106.5737837
  56.7576839  29.3642362 107.9756491  56.8125449  28.4116198 107.8998968
  55.9468041  29.5201801 108.4597790  57.9068033  33.2922485  99.2134775
  57.4687463  32.5758344  98.7540412  58.6478474  33.5198600  98.6519866
  54.6969199  27.9819421 105.7346870  53.8837064  28.2813592 106.1412062
  55.1928193  27.5875110 106.4521352  56.8477777  37.9777178 107.6681135
  56.8053956  38.2038025 106.7389667  57.7640476  37.7440553 107.8166936
  60.2943411  28.4461246 114.5661764  60.6492798  28.6732719 115.4256230
  60.9415542  28.7779623 113.9439019  66.0241148  31.5679682 105.2711093
  65.8859046  31.7581278 104.3432282  65.6677366  32.3299065 105.7279144
  54.1883274  25.5537777 111.3508105  54.8282653  25.4126536 110.6531068
  53.3560804  25.2672290 110.9746707  66.0510527  33.6356209 110.2822365
  66.4847034  33.5431498 111.1305419  66.7642108  33.6113709 109.6442381
  54.9643578  34.8540207 107.4643098  55.7584176  34.3590528 107.2625673
  54.2535270  34.3258071 107.1010803  59.7838422  37.2358303 111.8155465
  59.8375444  37.8049239 112.5833181  58.9153203  37.4060188 111.4509502
  51.2726341  28.9983289 103.5402850  50.3423929  28.9367745 103.7572812
  51.3683813  28.4759242 102.7439492  51.1911890  25.5238102 106.1281092
  51.4518707  26.4383435 106.0190252  52.0129062  25.0562545 106.2777705
  52.6636815  26.9375859 113.2979916  53.3359869  26.7293221 112.6492565
  51.8366602  26.7397945 112.8585149  66.9126077  33.6779909 112.8155250
  67.1061967  34.5825720 113.0614525  66.8126695  33.2187329 113.6493835
  58.5662387  23.5637800 115.3145577  57.9190302  24.2627750 115.2210054
  59.3363403  23.9973944 115.6821826  61.9741185  33.8286652 118.3896131
  61.8226692  33.5997204 117.4726214  61.9645865  34.7857254 118.4027476
  58.7426522  31.4018565 113.3742397  59.6718582  31.5529725 113.2011364
  58.3217552  31.4902586 112.5191044  57.5414854  35.4269229 111.1440935
  57.4025939  35.0588014 112.0166873  56.7529450  35.9416869 110.9724892
  58.1363006  40.5278326 102.4866471  58.3114761  40.0566369 103.3012094
  57.4495794  41.1544092 102.7147732  59.0920069  34.8050832 108.5329772
  58.7569901  34.7651602 109.4287422  58.5924014  34.1395548 108.0600183
  53.0664313  30.2118462 114.0582354  52.9284111  29.4798701 114.6593893
  53.9769236  30.1227362 113.7766541  62.0279260  32.1506866  98.8066832
  61.4108431  31.4253695  98.7099885  61.5595749  32.9116227  98.4633906
  55.6946613  29.9238421 113.5466033  56.4046232  29.2831614 113.5052652
  55.6515922  30.1751316 114.4692214  63.6833392  36.8605775 116.4672612
  63.6245938  36.1764995 115.8003196  64.0852910  37.6024765 116.0153238
  54.4075547  26.9103639 115.3661673  53.8712904  26.4594378 116.0183269
  53.8192256  27.0449548 114.6232137  52.7024091  43.6767689 109.2606331
  52.9420689  44.3086213 109.9385350  51.8593287  43.3255729 109.5471691
  53.8177806  26.3692291  97.9288136  52.9407273  26.2481092  97.5650383
  54.2935559  25.5778369  97.6767025  63.6850799  34.8245359 114.6986592
  62.7977578  34.4871280 114.8212991  64.2549350  34.0928390 114.9355358
  45.3379946  31.1569450 108.0229644  46.0250986  30.8431180 107.4350659
  45.1828075  32.0610815 107.7496895  50.1414669  26.0459647 112.4514667
  50.0572857  25.4385317 111.7165077  49.3197375  26.5368665 112.4524164
  57.2151953  39.4846811 111.6647835  57.1422124  40.2901783 112.1767140
  56.7729346  39.6838777 110.8395857  57.0041732  38.7218581 105.1750657
  56.2209254  39.2640261 105.2688881  57.7034477  39.2392561 105.5744898
  60.3138382  24.5313211 107.8184862  60.8107082  23.7783173 107.4985933
  59.5425364  24.5677527 107.2528072  68.1668140  30.2353576 109.4603154
  68.1558016  31.1178292 109.0897087  67.2985519  29.8825127 109.2657691
  59.6750636  39.3833645 113.8205994  60.3878608  40.0181110 113.7481895
  59.1840665  39.4797511 113.0045996  61.3968163  33.2884898 105.3923286
  60.4624442  33.4086360 105.2227990  61.5744832  32.3857365 105.1283296
  56.8973351  26.6730594 107.5456547  56.5271139  26.1201634 108.2337452
  57.3932444  26.0688727 106.9931547  64.7840714  29.1302217 105.9273320
  65.2501167  29.9630209 105.8533622  65.2348215  28.6647199 106.6318578
  54.7262550  37.1328089 114.6411565  55.4272009  37.7664572 114.7940959
  54.2557665  37.4742820 113.8807204  62.8516946  35.4746038 102.9259472
  63.1276789  35.3602633 103.8353346  61.9821444  35.0763523 102.8871645
  62.7557377  21.4982804 109.9664221  61.8420457  21.7287031 110.1346428
  63.1850479  21.5821248 110.8178254  62.5263836  29.6872696 112.4664115
  61.8735286  29.9348603 111.8116568  62.9044216  28.8736834 112.1326592
  59.4871010  39.7232389 106.5692285  59.6693404  38.9054045 107.0320038
  60.3103996  39.9400081 106.1317175  59.8213175  38.6500574 103.8307334
  60.3500942  38.1393029 103.2177496  60.0841395  38.3343105 104.6952867
  58.5751409  30.4292507 118.9530152  57.8992046  30.3286636 119.6232527
  59.3979043  30.2731721 119.4166149  50.3230268  36.6664444 111.5742668
  50.9083705  35.9208132 111.7070572  50.1255106  36.9768400 112.4579331
  53.1768923  39.7015691 106.5905110  52.5079298  40.1861819 106.1069150
  53.0381793  39.9484911 107.5048488  44.9147923  29.2370044 110.2947111
  44.9532022  28.7033635 111.0884229  44.4088215  28.7105249 109.6758088
  57.3174192  41.7359435 113.1887768  57.8692500  41.8991056 113.9536853
  57.6580385  42.3263872 112.5167793  52.2938685  24.0834584 113.7909653
  52.3580011  24.9449415 113.3787051  52.2305805  23.4708586 113.0582011
  51.7690957  26.1557717 117.4382687  52.3962996  25.7734794 118.0520212
  50.9118876  25.9371919 117.8038380  62.1685066  36.5620692 119.0436423
  62.7124970  37.1750650 118.5491378  61.5871911  37.1200270 119.5603436
  48.5456500  27.9634146 103.3701042  48.8409941  27.0544824 103.3168096
  47.6444536  27.9421885 103.0482044  60.4542579  39.6841410 110.1751450
  60.3293718  38.8831150 109.6662396  61.1121670  40.1787603 109.6865420
  52.0750747  26.0390143 109.3528591  51.3537333  26.6526110 109.2136064
  52.8644003  26.5747907 109.2745237  62.5177487  37.4850430 111.8031001
  61.5707823  37.3655781 111.7309327  62.8660260  36.5972928 111.8857262
  54.8777061  23.3744569 115.6269242  55.4011462  23.6206866 116.3895552
  54.6589394  24.2064604 115.2072380  50.2744342  25.6448244 103.4940367
  49.9457048  24.7645623 103.3115473  50.6283712  25.5895912 104.3816756
  59.5223921  37.2803146 108.0035353  59.3748883  36.3519854 108.1842923
  60.3477414  37.3023237 107.5192428  53.3886165  25.9321213 103.8615845
  53.7282237  26.4607135 103.1394453  53.8358285  26.2701620 104.6374411
  63.1258042  38.1031705 109.0900226  64.0504590  37.8974566 108.9524677
  62.9573346  37.8548106 109.9989567  56.0829606  24.3158264 113.3118913
  55.7426426  23.5166077 113.7139593  55.3768612  24.6159975 112.7395746
  56.7346078  21.4007577 111.7646236  57.5572147  20.9268055 111.6425126
  56.9784141  22.1798060 112.2644922  55.3754312  24.4295835 102.0609138
  56.0962675  24.8077088 101.5572855  54.7519616  25.1484712 102.1644116
  59.5185435  25.1340984 102.9967470  59.7349049  26.0165622 102.6956298
  59.0379502  24.7427197 102.2673112  54.2584656  28.0926697 109.5738215
  54.1129237  28.4067000 110.4662496  53.7809860  28.7111598 109.0209113
  56.1181039  25.0829245 109.6219104  56.1042608  24.1870339 109.2851402
  56.8353467  25.0899909 110.2557390  57.9707170  25.5166585 111.6672232
  57.7124948  26.4383656 111.6656562  57.4392210  25.1197020 112.3572696
  62.9153359  38.6217373 104.4462317  63.0890236  38.0563795 103.6936169
  63.4082250  39.4218267 104.2641807  48.7330318  30.6332042 112.5125876
  48.1883787  31.4091850 112.6446150  49.6109668  30.9802846 112.3544997
  55.5217935  23.9643625 104.8906674  55.6433846  23.0360272 105.0897562
  55.2319977  23.9782311 103.9784990  58.3909125  21.6498536 108.0273394
  58.4130822  21.7137869 107.0725374  58.8077184  20.8103045 108.2213900
  68.7692750  31.3853795 106.0652617  69.2123896  30.6361121 105.6671740
  67.8919260  31.3763932 105.6826349  63.9028531  37.9384137 101.5459215
  64.5979436  38.5590830 101.7646530  64.2451681  37.0879488 101.8211593
  49.5196340  29.7601938 115.4056033  48.7778076  29.9084573 115.9920663
  49.1989085  30.0210203 114.5422782  65.8019954  35.3883842 103.0746546
  66.3271278  35.7271115 102.3495866  65.7142307  34.4530858 102.8909681
  57.4640003  39.3017916 115.2036423  57.7727129  39.0567063 116.0759122
  58.2615485  39.5064555 114.7155293  57.4860615  41.4555826 107.4341799
  57.0465605  40.9632204 108.1274656  58.2368732  40.9128793 107.1933874
  49.9652954  37.6467367 107.4366427  50.7910974  37.3471138 107.0565071
  49.6147006  36.8774989 107.8856216  54.9334487  36.9993835 109.5064101
  54.3114496  36.3364540 109.2066329  55.6039354  37.0254967 108.8237749
  48.1661559  35.5653693 108.3955361  47.3293467  35.1375867 108.2139362
  48.1385204  35.7586136 109.3326152  55.0059015  25.4775623 119.0996607
  55.0547170  26.3537746 118.7174376  55.5481529  24.9353016 118.5268250
  65.4913860  36.0216746 118.3797744  64.7009404  36.0040885 117.8402243
  65.2547215  36.5605040 119.1346781  65.6111735  32.8709212 115.6930473
  65.6609740  32.7059220 116.6345995  65.5025659  32.0036471 115.3028353
  54.4947994  35.5497758 102.9822561  54.6436114  36.2333223 102.3289234
  55.3014438  35.5302848 103.4972017  62.9015498  28.8540140 117.0089779
  63.8025360  28.7146605 116.7173777  62.9763472  29.0194595 117.9487957
  57.2358303  26.2306995 115.8542966  56.3661612  26.5240561 115.5825554
  57.4717783  26.8147440 116.5750229  67.1129932  35.2906154 115.9372494
  66.8214740  35.6536135 116.7735955  66.5002063  34.5773162 115.7585826
  68.3125614  32.8559034 108.4575064  69.1472506  33.2948838 108.6212625
  68.4484743  32.3797687 107.6383310  65.3617120  30.4138769 114.4052552
  65.8371242  30.6066415 113.5971403  64.4382686  30.4697954 114.1595936
  52.2500627  31.5762936 103.9883630  52.0046669  30.6725266 104.1863840
  52.4196542  31.5780086 103.0463108  59.9397337  22.4486612 113.3708386
  60.4579281  23.1847639 113.0454874  59.5852470  22.7550605 114.2055145
  51.5196275  27.3091293 101.4869792  50.8265519  27.3835648 100.8309828
  51.2748026  26.5451637 102.0091309  60.1909931  18.8686895 108.8909283
  60.4711685  18.2010084 109.5169709  60.9760538  19.0615990 108.3783946
  57.9943400  38.0445889 100.4534309  57.4217367  38.6636076 100.0004781
  58.5676193  38.5945250 100.9874231  64.0618789  27.2904529 112.6380858
  65.0136212  27.3902626 112.6593082  63.8922240  26.4982797 113.1478942
  62.0833169  24.3760112 112.8240259  61.4883101  24.6565125 112.1286747
  61.7982866  24.8654013 113.5957000  61.2140659  38.3283039 101.5842891
  62.1471333  38.2628600 101.7875767  61.1263872  39.1639306 101.1257424
  63.8428676  37.6448909  98.5446839  63.7642308  37.3108773  99.4382597
  64.6638343  38.1370677  98.5438311  66.5406867  30.5110648 111.7523157
  66.5083187  29.5726649 111.9382841  67.1507491  30.5894685 111.0188982
  58.3790198  29.3806701  97.7950361  59.3249303  29.2512909  97.8638779
  58.0004443  28.6421363  98.2719789  66.6901356  27.3021692 111.7981440
  66.1740404  26.5180148 111.6111369  67.5741304  26.9740408 111.9627960
  64.3512083  21.0462707 107.7577253  64.1536904  20.7377796 108.6420585
  64.9611788  21.7724346 107.8875183  72.3583417  31.5726655 110.8929194
  73.0886806  31.3111943 111.4536897  71.7490363  30.8355377 110.9331262
  70.4398714  29.7134518 111.4903645  69.7131878  29.5790483 110.8820137
  70.0246001  30.0211346 112.2960363  58.2628891  33.4324447 119.2551018
  59.1831900  33.6103046 119.4491065  58.2278474  32.4880493 119.1030718
  56.5633115  27.3056678  97.7305247  55.6564571  27.0089790  97.8067960
  56.8409096  27.0086496  96.8639533  47.4811056  28.6263041 108.1804293
  47.1613840  27.7728349 107.8878667  46.9344484  28.8411619 108.9362260
  51.2590963  31.3425482 111.8973799  51.4776973  32.2742590 111.9161833
  51.6716737  30.9833457 112.6828603  58.1795181  21.8493567 103.8849488
  57.3695909  21.5040652 104.2604734  58.8679598  21.5401111 104.4737099
  60.1085729  20.9271614 105.5073784  60.6616768  21.3467068 106.1663808
  60.3455816  20.0007362 105.5496740  56.1318828  26.9158688 121.2876548
  56.0315555  27.8653045 121.2188639  55.9140371  26.5876927 120.4152618
  55.3331900  24.1643613  97.8717226  56.1951064  24.4898511  98.1313043
  55.5182244  23.3775109  97.3590292  47.3499316  32.2465953 110.1497415
  46.6562787  31.8319905 109.6367369  48.0972307  32.2886489 109.5530833
  63.4864536  23.0372139 105.0152449  62.9063205  23.6956943 104.6330501
  63.2200469  22.2149484 104.6039866  61.9368103  22.4377197 107.2173769
  62.4367881  22.5493732 106.4088088  62.5803711  22.1338250 107.8574578
  55.9950099  30.3455827 120.1041610  55.5117180  31.1456187 120.3105499
  56.0811038  30.3563772 119.1509054  49.2636058  32.1784206 108.0263429
  49.2406746  32.2771894 107.0745313  49.5736695  33.0249357 108.3480596
  51.9223436  34.2360361 112.1410044  52.8766690  34.2044304 112.0739975
  51.7235960  33.7750985 112.9560270  52.5122818  32.8061478 114.7080841
  53.3315707  33.3005556 114.7315679  52.7859626  31.8893446 114.6798409
  62.2689414  25.1972230 104.0708797  61.3815269  25.4821880 103.8528992
  62.6843403  25.0365993 103.2236074  65.6203950  25.2218751 107.7863136
  66.3964341  25.7115203 108.0587753  64.8952085  25.6476805 108.2435006
  68.0576509  25.9346370 108.8437077  68.6521000  25.6942106 108.1330385
  68.1303093  25.2153501 109.4710613  50.2773665  39.7779981 109.1580242
  50.1428133  39.0180382 108.5918240  49.8605727  40.5020881 108.6909031
  61.4132628  34.9616904  98.1656817  62.1168478  35.1666907  98.7814473
  60.6895277  35.5293666  98.4305901  62.2430438  30.7126766 104.2859087
  62.1865639  31.1695317 103.4466720  62.7958781  29.9517450 104.1081930
  66.0535244  26.5016498 105.1109207  65.7972178  26.1013133 105.9417414
  65.4288112  27.2160292 104.9859346  70.3647582  29.2412571 107.6180498
  69.8047140  29.3105760 108.3912060  69.7591085  29.0653555 106.8979994
  53.4342791  40.6749298 109.3698684  53.3175175  41.6194730 109.2677375
  52.6135237  40.3722860 109.7584484  63.3219325  35.3999434 100.2155277
  64.1564929  34.9680632 100.0332752  63.1603668  35.2281447 101.1432172
  62.9765217  31.9031547 101.5811616  62.9214021  31.7375818 100.6400060
  62.3511273  32.6107580 101.7373806  47.7657732  27.1399611 115.4073039
  48.4116596  26.6298565 115.8960264  47.5574883  27.8768293 115.9816464
  60.2911125  34.2080459 120.9065179  61.1602284  34.3821111 120.5451814
  59.8117876  35.0274876 120.7840908  56.2861343  21.4039656 101.1596935
  56.2740013  22.3481496 101.3165206  57.1784765  21.2209801 100.8656396
  54.4597305  41.3277560 112.5854613  55.3624552  41.3601170 112.9021108
  54.2334675  40.3978011 112.6000949  56.2150907  40.0808546 109.2464691
  55.2646538  40.0810408 109.1329064  56.5183393  39.3341281 108.7300726
  60.1013462  17.9982433 105.4142872  59.3345858  17.4440919 105.5599554
  60.5124167  18.0704301 106.2757023  71.9503600  45.9169085 110.3110454
  72.5882010  45.7975832 109.6073794  71.8324443  46.8649929 110.3698406
  68.7593307  45.8696513 110.2471978  68.4211818  45.7537578 109.3592513
  69.6283075  45.4687678 110.2272985  64.6180122  47.7231989 106.2368869
  64.0544987  47.6321926 105.4685157  64.5032517  46.9031894 106.7171362
  69.2413090  47.0231365 116.2058184  69.2301730  46.6284163 115.3338688
  69.4033729  46.2897437 116.7991955  62.1644554  49.2183181 109.0753090
  62.9565846  48.8774006 108.6599389  62.4041204  49.3278156 109.9955243
  70.1979681  51.3902957 101.5483334  69.5467661  51.9757037 101.1617348
  70.9924044  51.9209152 101.6078372  64.1235308  48.4792094 101.9470469
  64.8966184  47.9321081 101.8083344  64.4760707  49.3436343 102.1584930
  65.9620351  49.8068476 115.1537368  65.6710217  50.7114107 115.0384034
  66.5977335  49.8485004 115.8681438  66.8876558  47.1845325 111.7438728
  67.4840130  46.9601347 111.0295691  66.9451529  46.4430070 112.3464175
  66.4601586  44.6384760  99.5788919  66.7127107  44.1166282  98.8172382
  65.5226145  44.4750906  99.6815602  71.5044869  43.6420539 107.3863662
  72.2907958  43.2239962 107.0354079  71.7683573  44.5466631 107.5545310
  71.6754946  49.0793389 102.0852319  71.0400779  49.1528015 102.7973223
  71.3452353  49.6686988 101.4071398  76.9053296  43.5795772 108.2896640
  77.6378468  43.0094989 108.5234470  76.1492652  43.1917372 108.7303146
  66.1797875  46.5412866 101.7813294  66.0634133  45.8657770 102.4494378
  66.2900135  46.0545240 100.9645447  68.5229416  46.0023013 105.4859983
  68.1587623  45.4753634 106.1972904  69.3796532  45.6121482 105.3126468
  74.4278716  37.2917346 112.7491249  74.0962041  38.1612757 112.5252464
  73.8324330  36.9753630 113.4285279  68.1634903  41.0312913 100.4821331
  68.3309305  41.8993149 100.8491802  67.9732072  41.1940195  99.5582621
  70.9210236  49.4929892 112.1487162  70.6210959  50.3954931 112.0402969
  70.5761295  49.2262075 113.0008315  64.3722717  45.9443689 108.1823866
  63.4473214  45.8119903 108.3901558  64.6207130  46.7237908 108.6793809
  74.3207380  42.0112432 109.8284599  73.4124257  41.9427841 109.5343360
  74.2694975  42.4884377 110.6566424  68.1424123  43.4870571 101.4667998
  68.0223749  43.9327621 102.3053478  67.4476712  43.8355888 100.9081536
  61.7331528  45.5876962 109.0167655  61.8623909  45.8411441 109.9307067
  61.0528980  46.1804670 108.6972310  65.9031016  56.2574212 105.1158129
  65.8255045  57.2082037 105.1946610  65.2992659  55.9120085 105.7733056
  68.3948245  43.4302078 117.7719496  67.6181579  43.9895998 117.7622361
  69.0338808  43.9158861 118.2934366  76.1869026  40.2128871 111.6062473
  75.5443406  40.5061404 110.9602268  75.6823955  40.0981791 112.4115670
  73.8409190  43.9592044 102.2948332  74.7527046  44.1919430 102.1196030
  73.3318837  44.5429088 101.7323411  66.6494618  46.2387531 117.3337463
  67.3909302  46.7772575 117.0572287  65.9431603  46.8653820 117.4909015
  72.1249957  48.3816672 115.9309625  72.5333313  47.9399082 115.1864257
  71.4027219  47.8069299 116.1843818  68.4781027  43.3189278 113.3043182
  69.3242223  43.7428692 113.4477831  68.4179665  42.6622903 113.9981745
  72.4478772  48.9417862 109.6861914  71.8187634  49.1063576 108.9837982
  72.0604434  49.3559472 110.4572878  76.3268004  49.8772300 107.0406277
  75.6419042  50.2571201 106.4903311  76.4111853  50.4867627 107.7738225
  71.6280473  40.9793647 114.9624355  71.3841405  41.7335707 114.4258631
  71.9040403  41.3578994 115.7971602  73.5818935  47.5232259 113.6401621
  73.7935831  48.1664019 112.9636002  73.5348684  46.6894576 113.1723551
  71.1845164  40.1350080 110.5438193  70.3229643  40.4331333 110.8354931
  71.2107599  40.3520479 109.6119226  68.0006734  48.6792270 106.9511999
  68.4645079  48.9579973 106.1616621  67.7363532  47.7775715 106.7685089
  64.8930815  48.2263752 109.8891762  65.4632172  48.6551020 109.2509246
  65.4838927  47.9446336 110.5875948  66.9375620  44.8015423 103.7601564
  67.6399663  45.2536466 104.2275490  66.6056248  44.1599241 104.3881457
  65.3855981  43.3927179 118.1352773  64.7554642  44.0743460 118.3688170
  65.2792069  43.2810261 117.1905912  60.6800954  43.0598975 109.0618697
  59.8900008  43.3156504 108.5858808  61.1712201  43.8747313 109.1670738
  74.6964763  50.4004214 111.8123978  75.5182207  49.9984402 111.5306660
  74.6927166  50.2972449 112.7640094  62.6315699  43.4243555 106.0202174
  61.8346863  43.5362249 106.5385670  62.4041291  43.7630207 105.1543065
  68.4621367  49.9488258 113.9684689  68.5265799  50.4108665 114.8042861
  67.7532291  49.3185623 114.0966999  58.9638657  43.3129466 111.4933688
  59.2146695  44.1976476 111.7591264  59.4998205  43.1334067 110.7208780
  82.7870756  46.7442963 108.1608950  82.0334465  46.1750361 108.0052954
  82.9218298  46.7105627 109.1079584  68.1769385  51.6156365 103.8363669
  68.0415059  52.4607901 104.2648517  68.7179197  51.8175643 103.0729603
  64.6636724  37.6947945 120.4978024  64.2703670  37.1414144 121.1725669
  65.4802864  38.0058524 120.8884542  61.6298782  49.1331803 104.4091594
  62.1423302  49.9275054 104.5597159  62.2821495  48.4358094 104.3425196
  63.4393667  52.2497560 106.4914347  63.6160295  53.1715524 106.3035331
  64.2350500  51.9355979 106.9208727  67.5804685  39.1105824 118.0898281
  68.3214399  39.7112977 118.0102743  67.8122608  38.3683462 117.5316323
  62.7246023  44.2962191 116.3676511  62.6099538  43.3947449 116.6683609
  61.8690541  44.5425888 116.0161327  69.8037861  52.2379932 117.9664011
  69.3601715  51.4516310 117.6484916  70.4655074  52.4259082 117.3007902
  64.5624982  53.7675733 112.4924690  65.1132407  53.6392797 111.7201684
  63.7236458  54.0670622 112.1419582  71.9019099  52.5182732 115.9945412
  71.8837574  53.3391613 115.5025682  72.8239019  52.3936807 116.2195554
  68.3592153  50.0326861 116.8368921  68.8920490  49.2715149 116.6068229
  67.8306234  49.7400513 117.5793075  71.5261848  35.1386927 112.3662563
  71.1826117  36.0288569 112.2901673  71.8940811  34.9488585 111.5032148
  59.5947699  47.4620458 105.1851165  60.4322921  47.8717466 104.9684872
  59.7725966  46.5219900 105.1551359  71.4912131  45.1295538 100.8734998
  70.9758754  45.9000143 101.1123385  71.2189439  44.4560674 101.4968059
  69.0759242  39.9745239 105.9320236  68.2200838  39.5852089 105.7525875
  69.4886194  40.0537200 105.0720022  70.6058388  37.5091582 110.3311796
  70.1023184  37.4721717 109.5179601  70.8988995  38.4184325 110.3908452
  66.8501274  37.5930312 109.3377978  67.7154271  37.3973121 108.9783867
  66.9178783  37.3640664 110.2647334  76.4646405  47.8827893 102.8088171
  75.6875848  47.5439052 102.3643333  77.1437886  47.8880516 102.1343136
  71.2798434  43.0022630 102.6994779  70.9748570  43.3168780 103.5504922
  72.2328876  43.0804050 102.7422112  69.7244866  49.1612854 104.3487733
  69.1966227  48.4265613 104.0360970  69.2232369  49.9387530 104.1027701
  74.7037712  47.3561874 109.4654779  74.0461386  48.0461136 109.5534908
  75.5078111  47.7458306 109.8088765  64.4563593  39.8232520 106.7094344
  65.0307345  39.6007701 105.9767537  65.0434576  39.8921214 107.4622946
  73.5143171  45.7106247 107.5158721  74.0275052  46.3436239 108.0180431
  74.1644395  45.1107442 107.1502081  64.7833181  41.8536981 100.7290230
  63.9470493  42.1911667 101.0499504  64.6437950  41.7185961  99.7917367
  66.7586261  36.6973769 105.4369414  66.1050673  36.3822786 104.8126029
  66.7166735  36.0749509 106.1629237  70.7765545  55.6890571 100.2719392
  70.1027244  55.9922268 100.8804350  71.1631367  56.4919651  99.9224849
  69.9924002  43.1855702 109.7617061  69.0746563  43.4070649 109.6038749
  70.4084145  43.2602013 108.9028769  70.7759049  44.5847118 104.8919742
  71.5230868  45.0968515 104.5826864  71.0450639  44.2631171 105.7524135
  69.0485699  47.0805659 101.8746696  68.1396919  46.7964692 101.9719166
  69.0780783  47.5004737 101.0150003  74.2804967  50.6912248 105.6437864
  73.8267294  49.8503158 105.7003054  73.6498934  51.3273647 105.9812644
  73.2237886  41.6204234 106.8738531  72.4860643  41.1081621 107.2048774
  73.4764660  41.1804616 106.0621808  72.7237906  52.5288745 106.5787682
  73.0160880  53.0893802 105.8600047  73.2336527  52.8217306 107.3340841
  73.3249514  34.3980486 107.4680300  73.6308391  33.5377850 107.1806215
  74.0502119  34.9898107 107.2679294  59.6173870  44.8011173 105.8561898
  59.4198270  44.2080534 105.1312965  59.0620534  44.4963383 106.5737837
  67.5970593  44.6934279 107.9756491  67.6519203  43.7408116 107.8998968
  66.7861796  44.8493718 108.4597790  68.7461787  48.6214402  99.2134775
  68.3081217  47.9050261  98.7540412  69.4872228  48.8490517  98.6519866
  65.5362953  43.3111339 105.7346870  64.7230819  43.6105510 106.1412062
  66.0321948  42.9167028 106.4521352  67.6871531  53.3069096 107.6681135
  67.6447710  53.5329942 106.7389667  68.6034230  53.0732471 107.8166936
  71.1337165  43.7753164 114.5661764  71.4886553  44.0024637 115.4256230
  71.7809296  44.1071540 113.9439019  76.8634902  46.8971599 105.2711093
  76.7252801  47.0873195 104.3432282  76.5071121  47.6590982 105.7279144
  65.0277028  40.8829695 111.3508105  65.6676407  40.7418454 110.6531068
  64.1954559  40.5964208 110.9746707  76.8904282  48.9648126 110.2822365
  77.3240788  48.8723416 111.1305419  77.6035862  48.9405627 109.6442381
  65.8037332  50.1832125 107.4643098  66.5977931  49.6882445 107.2625673
  65.0929024  49.6549988 107.1010803  70.6232177  52.5650221 111.8155465
  70.6769199  53.1341157 112.5833181  69.7546958  52.7352106 111.4509502
  62.1120096  44.3275207 103.5402850  61.1817684  44.2659662 103.7572812
  62.2077568  43.8051160 102.7439492  62.0305645  40.8530020 106.1281092
  62.2912462  41.7675353 106.0190252  62.8522817  40.3854462 106.2777705
  63.5030570  42.2667777 113.2979916  64.1753623  42.0585139 112.6492565
  62.6760356  42.0689863 112.8585149  77.7519831  49.0071827 112.8155250
  77.9455721  49.9117638 113.0614525  77.6520449  48.5479246 113.6493835
  69.4056142  38.8929718 115.3145577  68.7584057  39.5919667 115.2210054
  70.1757157  39.3265862 115.6821826  72.8134940  49.1578570 118.3896131
  72.6620446  48.9289122 117.4726214  72.8039619  50.1149171 118.4027476
  69.5820276  46.7310483 113.3742397  70.5112336  46.8821642 113.2011364
  69.1611306  46.8194503 112.5191044  68.3808608  50.7561147 111.1440935
  68.2419694  50.3879931 112.0166873  67.5923204  51.2708786 110.9724892
  68.9756760  55.8570244 102.4866471  69.1508516  55.3858287 103.3012094
  68.2889548  56.4836010 102.7147732  69.9313823  50.1342750 108.5329772
  69.5963656  50.0943520 109.4287422  69.4317769  49.4687466 108.0600183
  63.9058067  45.5410380 114.0582354  63.7677865  44.8090619 114.6593893
  64.8162991  45.4519280 113.7766541  66.5340368  45.2530339 113.5466033
  67.2439986  44.6123531 113.5052652  66.4909676  45.5043234 114.4692214
  74.5227147  52.1897692 116.4672612  74.4639693  51.5056913 115.8003196
  74.9246665  52.9316682 116.0153238  65.2469302  42.2395557 115.3661673
  64.7106659  41.7886295 116.0183269  64.6586010  42.3741466 114.6232137
  63.5417845  59.0059606 109.2606331  63.7814444  59.6378130 109.9385350
  62.6987042  58.6547646 109.5471691  64.6571561  41.6984208  97.9288136
  63.7801027  41.5773009  97.5650383  65.1329314  40.9070287  97.6767025
  74.5244554  50.1537276 114.6986592  73.6371333  49.8163198 114.8212991
  75.0943105  49.4220308 114.9355358  56.1773701  46.4861368 108.0229644
  56.8644741  46.1723098 107.4350659  56.0221830  47.3902733 107.7496895
  60.9808423  41.3751565 112.4514667  60.8966612  40.7677234 111.7165077
  60.1591129  41.8660583 112.4524164  68.0545707  54.8138729 111.6647835
  67.9815879  55.6193700 112.1767140  67.6123100  55.0130695 110.8395857
  67.8435487  54.0510499 105.1750657  67.0603009  54.5932179 105.2688881
  68.5428232  54.5684478 105.5744898  71.1532137  39.8605128 107.8184862
  71.6500836  39.1075091 107.4985933  70.3819118  39.8969445 107.2528072
  79.0061894  45.5645494 109.4603154  78.9951771  46.4470209 109.0897087
  78.1379274  45.2117045 109.2657691  70.5144391  54.7125563 113.8205994
  71.2272363  55.3473028 113.7481895  70.0234419  54.8089429 113.0045996
  72.2361918  48.6176815 105.3923286  71.3018196  48.7378278 105.2227990
  72.4138586  47.7149282 105.1283296  67.7367106  42.0022511 107.5456547
  67.3664893  41.4493552 108.2337452  68.2326198  41.3980645 106.9931547
  75.6234469  44.4594135 105.9273320  76.0894921  45.2922126 105.8533622
  76.0741969  43.9939116 106.6318578  65.5656304  52.4620006 114.6411565
  66.2665764  53.0956489 114.7940959  65.0951419  52.8034738 113.8807204
  73.6910700  50.8037956 102.9259472  73.9670544  50.6894551 103.8353346
  72.8215199  50.4055441 102.8871645  73.5951132  36.8274722 109.9664221
  72.6814212  37.0578949 110.1346428  74.0244233  36.9113166 110.8178254
  73.3657590  45.0164614 112.4664115  72.7129040  45.2640521 111.8116568
  73.7437970  44.2028752 112.1326592  70.3264764  55.0524307 106.5692285
  70.5087159  54.2345963 107.0320038  71.1497750  55.2691999 106.1317175
  70.6606930  53.9792492 103.8307334  71.1894696  53.4684947 103.2177496
  70.9235149  53.6635022 104.6952867  69.4145163  45.7584425 118.9530152
  68.7385800  45.6578554 119.6232527  70.2372797  45.6023638 119.4166149
  61.1624022  51.9956361 111.5742668  61.7477459  51.2500049 111.7070572
  60.9648861  52.3060318 112.4579331  64.0162678  55.0307609 106.5905110
  63.3473053  55.5153736 106.1069150  63.8775547  55.2776829 107.5048488
  55.7541677  44.5661961 110.2947111  55.7925777  44.0325552 111.0884229
  55.2481970  44.0397167 109.6758088  68.1567946  57.0651352 113.1887768
  68.7086254  57.2282974 113.9536853  68.4974140  57.6555790 112.5167793
  63.1332439  39.4126502 113.7909653  63.1973766  40.2741333 113.3787051
  63.0699560  38.8000504 113.0582011  62.6084712  41.4849635 117.4382687
  63.2356751  41.1026712 118.0520212  61.7512631  41.2663836 117.8038380
  73.0078820  51.8912610 119.0436423  73.5518724  52.5042568 118.5491378
  72.4265665  52.4492188 119.5603436  59.3850255  43.2926064 103.3701042
  59.6803696  42.3836742 103.3168096  58.4838290  43.2713803 103.0482044
  71.2936333  55.0133328 110.1751450  71.1687473  54.2123068 109.6662396
  71.9515424  55.5079521 109.6865420  62.9144502  41.3682060 109.3528591
  62.1931087  41.9818028 109.2136064  63.7037757  41.9039825 109.2745237
  73.3571242  52.8142348 111.8031001  72.4101577  52.6947699 111.7309327
  73.7054015  51.9264846 111.8857262  65.7170815  38.7036487 115.6269242
  66.2405217  38.9498783 116.3895552  65.4983148  39.5356522 115.2072380
  61.1138096  40.9740161 103.4940367  60.7850802  40.0937540 103.3115473
  61.4677467  40.9187830 104.3816756  70.3617675  52.6095064 108.0035353
  70.2142637  51.6811771 108.1842923  71.1871169  52.6315155 107.5192428
  64.2279919  41.2613131 103.8615845  64.5675992  41.7899052 103.1394453
  64.6752040  41.5993537 104.6374411  73.9651797  53.4323623 109.0900226
  74.8898344  53.2266484 108.9524677  73.7967100  53.1840024 109.9989567
  66.9223360  39.6450182 113.3118913  66.5820181  38.8457995 113.7139593
  66.2162366  39.9451893 112.7395746  67.5739832  36.7299494 111.7646236
  68.3965901  36.2559972 111.6425126  67.8177896  37.5089978 112.2644922
  66.2148066  39.7587753 102.0609138  66.9356429  40.1369005 101.5572855
  65.5913371  40.4776630 102.1644116  70.3579189  40.4632902 102.9967470
  70.5742804  41.3457540 102.6956298  69.8773257  40.0719115 102.2673112
  65.0978411  43.4218615 109.5738215  64.9522991  43.7358918 110.4662496
  64.6203614  44.0403515 109.0209113  66.9574794  40.4121163 109.6219104
  66.9436362  39.5162256 109.2851402  67.6747222  40.4191827 110.2557390
  68.8100924  40.8458503 111.6672232  68.5518702  41.7675574 111.6656562
  68.2785965  40.4488938 112.3572696  73.7547113  53.9509290 104.4462317
  73.9283991  53.3855713 103.6936169  74.2476004  54.7510185 104.2641807
  59.5724073  45.9623959 112.5125876  59.0277541  46.7383767 112.6446150
  60.4503423  46.3094764 112.3544997  66.3611690  39.2935543 104.8906674
  66.4827601  38.3652189 105.0897562  66.0713732  39.3074229 103.9784990
  69.2302880  36.9790454 108.0273394  69.2524577  37.0429787 107.0725374
  69.6470939  36.1394962 108.2213900  79.6086504  46.7145713 106.0652617
  80.0517650  45.9653038 105.6671740  78.7313015  46.7055850 105.6826349
  74.7422286  53.2676055 101.5459215  75.4373190  53.8882747 101.7646530
  75.0845436  52.4171406 101.8211593  60.3590095  45.0893856 115.4056033
  59.6171831  45.2376491 115.9920663  60.0382839  45.3502121 114.5422782
  76.6413709  50.7175760 103.0746546  77.1665033  51.0563033 102.3495866
  76.5536061  49.7822775 102.8909681  68.3033757  54.6309834 115.2036423
  68.6120884  54.3858981 116.0759122  69.1009239  54.8356472 114.7155293
  68.3254369  56.7847743 107.4341799  67.8859360  56.2924122 108.1274656
  69.0762486  56.2420711 107.1933874  60.8046708  52.9759284 107.4366427
  61.6304728  52.6763056 107.0565071  60.4540760  52.2066907 107.8856216
  65.7728242  52.3285752 109.5064101  65.1508251  51.6656458 109.2066329
  66.4433109  52.3546884 108.8237749  59.0055314  50.8945611 108.3955361
  58.1687222  50.4667785 108.2139362  58.9778959  51.0878054 109.3326152
  65.8452769  40.8067541 119.0996607  65.8940925  41.6829663 118.7174376
  66.3875283  40.2644934 118.5268250  76.3307615  51.3508664 118.3797744
  75.5403158  51.3332803 117.8402243  76.0940969  51.8896957 119.1346781
  76.4505490  48.2001130 115.6930473  76.5003495  48.0351138 116.6345995
  76.3419413  47.3328389 115.3028353  65.3341749  50.8789676 102.9822561
  65.4829869  51.5625140 102.3289234  66.1408192  50.8594766 103.4972017
  73.7409252  44.1832058 117.0089779  74.6419115  44.0438523 116.7173777
  73.8157227  44.3486513 117.9487957  68.0752058  41.5598913 115.8542966
  67.2055367  41.8532479 115.5825554  68.3111538  42.1439358 116.5750229
  77.9523687  50.6198072 115.9372494  77.6608495  50.9828052 116.7735955
  77.3395818  49.9065080 115.7585826  79.1519369  48.1850951 108.4575064
  79.9866260  48.6240756 108.6212625  79.2878498  47.7089605 107.6383310
  76.2010875  45.7430686 114.4052552  76.6764997  45.9358333 113.5971403
  75.2776440  45.7989872 114.1595936  63.0894382  46.9054853 103.9883630
  62.8440423  46.0017183 104.1863840  63.2590296  46.9072004 103.0463108
  70.7791091  37.7778530 113.3708386  71.2973035  38.5139557 113.0454874
  70.4246224  38.0842523 114.2055145  62.3590029  42.6383211 101.4869792
  61.6659274  42.7127566 100.8309828  62.1141781  41.8743555 102.0091309
  71.0303686  34.1978812 108.8909283  71.3105439  33.5302001 109.5169709
  71.8154292  34.3907908 108.3783946  68.8337154  53.3737806 100.4534309
  68.2611121  53.9927993 100.0004781  69.4069948  53.9237168 100.9874231
  74.9012544  42.6196446 112.6380858  75.8529967  42.7194544 112.6593082
  74.7315994  41.8274715 113.1478942  72.9226923  39.7052030 112.8240259
  72.3276855  39.9857042 112.1286747  72.6376620  40.1945931 113.5957000
  72.0534414  53.6574956 101.5842891  72.9865087  53.5920518 101.7875767
  71.9657627  54.4931223 101.1257424  74.6822431  52.9740827  98.5446839
  74.6036062  52.6400690  99.4382597  75.5032097  53.4662595  98.5438311
  77.3800622  45.8402566 111.7523157  77.3476942  44.9018567 111.9382841
  77.9901245  45.9186603 111.0188982  77.5295110  42.6313609 111.7981440
  77.0134159  41.8472066 111.6111369  78.4135059  42.3032326 111.9627960
  75.1905837  36.3754625 107.7577253  74.9930658  36.0669713 108.6420585
  75.8005543  37.1016264 107.8875183  83.1977172  46.9018573 110.8929194
  83.9280560  46.6403861 111.4536897  82.5884117  46.1647295 110.9331262
  81.2792469  45.0426435 111.4903645  80.5525632  44.9082400 110.8820137
  80.8639756  45.3503264 112.2960363  69.1022645  48.7616365 119.2551018
  70.0225655  48.9394964 119.4491065  69.0672228  47.8172411 119.1030718
  67.4026870  42.6348595  97.7305247  66.4958325  42.3381708  97.8067960
  67.6802851  42.3378414  96.8639533  58.3204810  43.9554959 108.1804293
  58.0007594  43.1020267 107.8878667  57.7738238  44.1703537 108.9362260
  62.0984718  46.6717400 111.8973799  62.3170727  47.6034508 111.9161833
  62.5110491  46.3125374 112.6828603  69.0188935  37.1785485 103.8849488
  68.2089664  36.8332570 104.2604734  69.7073352  36.8693029 104.4737099
  70.9479484  36.2563532 105.5073784  71.5010522  36.6758985 106.1663808
  71.1849570  35.3299280 105.5496740  66.9712583  42.2450606 121.2876548
  66.8709310  43.1944963 121.2188639  66.7534125  41.9168844 120.4152618
  66.1725654  39.4935531  97.8717226  67.0344818  39.8190429  98.1313043
  66.3575998  38.7067027  97.3590292  58.1893070  47.5757870 110.1497415
  57.4956542  47.1611823 109.6367369  58.9366061  47.6178407 109.5530833
  74.3258291  38.3664057 105.0152449  73.7456960  39.0248861 104.6330501
  74.0594223  37.5441402 104.6039866  72.7761857  37.7669115 107.2173769
  73.2761636  37.8785649 106.4088088  73.4197465  37.4630168 107.8574578
  66.8343853  45.6747744 120.1041610  66.3510935  46.4748105 120.3105499
  66.9204792  45.6855689 119.1509054  60.1029813  47.5076124 108.0263429
  60.0800501  47.6063811 107.0745313  60.4130449  48.3541275 108.3480596
  62.7617191  49.5652279 112.1410044  63.7160444  49.5336221 112.0739975
  62.5629714  49.1042903 112.9560270  63.3516573  48.1353395 114.7080841
  64.1709462  48.6297474 114.7315679  63.6253380  47.2185363 114.6798409
  73.1083169  40.5264147 104.0708797  72.2209024  40.8113798 103.8528992
  73.5237158  40.3657911 103.2236074  76.4597705  40.5510668 107.7863136
  77.2358095  41.0407121 108.0587753  75.7345839  40.9768723 108.2435006
  78.8970264  41.2638288 108.8437077  79.4914754  41.0234024 108.1330385
  78.9696847  40.5445418 109.4710613  61.1167419  55.1071899 109.1580242
  60.9821887  54.3472300 108.5918240  60.6999482  55.8312798 108.6909031
  72.2526382  50.2908822  98.1656817  72.9562232  50.4958825  98.7814473
  71.5289031  50.8585584  98.4305901  73.0824193  46.0418683 104.2859087
  73.0259394  46.4987235 103.4466720  73.6352535  45.2809368 104.1081930
  76.8928998  41.8308415 105.1109207  76.6365933  41.4305051 105.9417414
  76.2681867  42.5452209 104.9859346  81.2041336  44.5704489 107.6180498
  80.6440894  44.6397678 108.3912060  80.5984840  44.3945473 106.8979994
  64.2736545  56.0041216 109.3698684  64.1568929  56.9486648 109.2677375
  63.4528991  55.7014777 109.7584484  74.1613080  50.7291351 100.2155277
  74.9958684  50.2972550 100.0332752  73.9997423  50.5573365 101.1432172
  73.8158972  47.2323465 101.5811616  73.7607776  47.0667736 100.6400060
  73.1905027  47.9399498 101.7373806  58.6051487  42.4691529 115.4073039
  59.2510350  41.9590483 115.8960264  58.3968638  43.2060211 115.9816464
  71.1304879  49.5372377 120.9065179  71.9996039  49.7113029 120.5451814
  70.6511631  50.3566793 120.7840908  67.1255097  36.7331574 101.1596935
  67.1133767  37.6773414 101.3165206  68.0178519  36.5501719 100.8656396
  65.2991059  56.6569478 112.5854613  66.2018306  56.6893088 112.9021108
  65.0728429  55.7269928 112.6000949  67.0544661  55.4100464 109.2464691
  66.1040292  55.4102326 109.1329064  67.3577147  54.6633199 108.7300726
  70.9407217  33.3274350 105.4142872  70.1739613  32.7732837 105.5599554
  71.3517922  33.3996219 106.2757023  62.9448978  39.6159146 119.5048053
  63.8080439  39.2595951 119.7151377  62.3714389  39.2773041 120.1923457
  82.7897355  61.2461002 110.3110454  83.4275765  61.1267750 109.6073794
  82.6718198  62.1941846 110.3698406  79.5987061  61.1988431 110.2471978
  79.2605573  61.0829495 109.3592513  80.4676829  60.7979596 110.2272985
  75.4573877  63.0523907 106.2368869  74.8938742  62.9613844 105.4685157
  75.3426272  62.2323811 106.7171362  80.0806844  62.3523282 116.2058184
  80.0695485  61.9576081 115.3338688  80.2427484  61.6189355 116.7991955
  73.0038309  64.5475099 109.0753090  73.7959601  64.2065923 108.6599389
  73.2434959  64.6570074 109.9955243  81.0373436  66.7194875 101.5483334
  80.3861415  67.3048955 101.1617348  81.8317798  67.2501070 101.6078372
  74.9629063  63.8084012 101.9470469  75.7359939  63.2612999 101.8083344
  75.3154462  64.6728261 102.1584930  76.8014105  65.1360394 115.1537368
  76.5103971  66.0406025 115.0384034  77.4371090  65.1776922 115.8681438
  77.7270312  62.5137243 111.7438728  78.3233884  62.2893265 111.0295691
  77.7845284  61.7721988 112.3464175  77.2995340  59.9676678  99.5788919
  77.5520861  59.4458199  98.8172382  76.3619900  59.8042823  99.6815602
  82.3438623  58.9712456 107.3863662  83.1301713  58.5531879 107.0354079
  82.6077328  59.8758549 107.5545310  82.5148701  64.4085307 102.0852319
  81.8794534  64.4819933 102.7973223  82.1846107  64.9978905 101.4071398
  87.7447050  58.9087690 108.2896640  88.4772222  58.3386906 108.5234470
  86.9886406  58.5209290 108.7303146  77.0191629  61.8704784 101.7813294
  76.9027887  61.1949687 102.4494378  77.1293889  61.3837158 100.9645447
  79.3623170  61.3314931 105.4859983  78.9981377  60.8045552 106.1972904
  80.2190286  60.9413400 105.3126468  85.2672471  52.6209264 112.7491249
  84.9355796  53.4904675 112.5252464  84.6718084  52.3045548 113.4285279
  79.0028657  56.3604831 100.4821331  79.1703059  57.2285067 100.8491802
  78.8125826  56.5232112  99.5582621  81.7603990  64.8221810 112.1487162
  81.4604713  65.7246848 112.0402969  81.4155050  64.5553993 113.0008315
  75.2116472  61.2735606 108.1823866  74.2866968  61.1411821 108.3901558
  75.4600885  62.0529826 108.6793809  85.1601134  57.3404350 109.8284599
  84.2518011  57.2719758 109.5343360  85.1088730  57.8176295 110.6566424
  78.9817878  58.8162488 101.4667998  78.8617503  59.2619539 102.3053478
  78.2870466  59.1647806 100.9081536  72.5725283  60.9168880 109.0167655
  72.7017664  61.1703359 109.9307067  71.8922734  61.5096588 108.6972310
  76.7424770  71.5866130 105.1158129  76.6648800  72.5373955 105.1946610
  76.1386414  71.2412002 105.7733056  79.2342000  58.7593995 117.7719496
  78.4575334  59.3187916 117.7622361  79.8732563  59.2450778 118.2934366
  87.0262780  55.5420788 111.6062473  86.3837161  55.8353321 110.9602268
  86.5217709  55.4273709 112.4115670  84.6802944  59.2883961 102.2948332
  85.5920800  59.5211348 102.1196030  84.1712591  59.8721006 101.7323411
  77.4888372  61.5679449 117.3337463  78.2303057  62.1064493 117.0572287
  76.7825358  62.1945738 117.4909015  82.9643712  63.7108589 115.9309625
  83.3727068  63.2691000 115.1864257  82.2420973  63.1361217 116.1843818
  79.3174782  58.6481196 113.3043182  80.1635977  59.0720610 113.4477831
  79.2573420  57.9914820 113.9981745  83.2872526  64.2709780 109.6861914
  82.6581389  64.4355494 108.9837982  82.8998189  64.6851389 110.4572878
  87.1661758  65.2064218 107.0406277  86.4812797  65.5863119 106.4903311
  87.2505608  65.8159544 107.7738225  82.4674227  56.3085564 114.9624355
  82.2235159  57.0627625 114.4258631  82.7434158  56.6870912 115.7971602
  84.4212690  62.8524177 113.6401621  84.6329585  63.4955937 112.9636002
  84.3742438  62.0186493 113.1723551  82.0238919  55.4641997 110.5438193
  81.1623398  55.7623251 110.8354931  82.0501354  55.6812396 109.6119226
  78.8400488  64.0084188 106.9511999  79.3038834  64.2871891 106.1616621
  78.5757286  63.1067633 106.7685089  75.7324569  63.5555669 109.8891762
  76.3025926  63.9842938 109.2509246  76.3232681  63.2738254 110.5875948
  77.7769374  60.1307340 103.7601564  78.4793418  60.5828384 104.2275490
  77.4450003  59.4891159 104.3881457  76.2249736  58.7219097 118.1352773
  75.5948396  59.4035378 118.3688170  76.1185824  58.6102179 117.1905912
  71.5194708  58.3890893 109.0618697  70.7293762  58.6448422 108.5858808
  72.0105956  59.2039231 109.1670738  85.5358518  65.7296132 111.8123978
  86.3575962  65.3276319 111.5306660  85.5320921  65.6264366 112.7640094
  73.4709454  58.7535472 106.0202174  72.6740617  58.8654166 106.5385670
  73.2435046  59.0922124 105.1543065  79.3015121  65.2780175 113.9684689
  79.3659554  65.7400583 114.8042861  78.5926045  64.6477540 114.0966999
  69.8032411  58.6421383 111.4933688  70.0540450  59.5268393 111.7591264
  70.3391960  58.4625985 110.7208780  93.6264511  62.0734881 108.1608950
  92.8728219  61.5042279 108.0052954  93.7612052  62.0397545 109.1079584
  79.0163139  66.9448283 103.8363669  78.8808814  67.7899819 104.2648517
  79.5572952  67.1467561 103.0729603  75.5030479  53.0239863 120.4978024
  75.1097424  52.4706061 121.1725669  76.3196619  53.3350441 120.8884542
  72.4692536  64.4623721 104.4091594  72.9817057  65.2566971 104.5597159
  73.1215249  63.7650011 104.3425196  74.2787421  67.5789477 106.4914347
  74.4554049  68.5007442 106.3035331  75.0744255  67.2647896 106.9208727
  78.4198440  54.4397742 118.0898281  79.1608153  55.0404895 118.0102743
  78.6516362  53.6975380 117.5316323  73.5639778  59.6254109 116.3676511
  73.4493293  58.7239366 116.6683609  72.7084295  59.8717806 116.0161327
  80.6431615  67.5671849 117.9664011  80.1995470  66.7808228 117.6484916
  81.3048829  67.7551000 117.3007902  75.4018737  69.0967651 112.4924690
  75.9526162  68.9684714 111.7201684  74.5630212  69.3962540 112.1419582
  82.7412853  67.8474649 115.9945412  82.7231329  68.6683530 115.5025682
  83.6632774  67.7228725 116.2195554  79.1985908  65.3618779 116.8368921
  79.7314244  64.6007067 116.6068229  78.6699989  65.0692431 117.5793075
  82.3655603  50.4678845 112.3662563  82.0219872  51.3580486 112.2901673
  82.7334565  50.2780502 111.5032148  70.4341453  62.7912375 105.1851165
  71.2716675  63.2009384 104.9684872  70.6119721  61.8511817 105.1551359
  82.3305885  60.4587456 100.8734998  81.8152509  61.2292061 101.1123385
  82.0583194  59.7852592 101.4968059  79.9152996  55.3037157 105.9320236
  79.0594593  54.9144007 105.7525875  80.3279948  55.3829117 105.0720022
  81.4452143  52.8383500 110.3311796  80.9416939  52.8013635 109.5179601
  81.7382750  53.7476243 110.3908452  77.6895029  52.9222230 109.3377978
  78.5548026  52.7265038 108.9783867  77.7572538  52.6932581 110.2647334
  87.3040159  63.2119811 102.8088171  86.5269602  62.8730970 102.3643333
  87.9831640  63.2172434 102.1343136  82.1192188  58.3314548 102.6994779
  81.8142324  58.6460697 103.5504922  83.0722631  58.4095968 102.7422112
  80.5638620  64.4904771 104.3487733  80.0359982  63.7557531 104.0360970
  80.0626123  65.2679448 104.1027701  85.5431466  62.6853792 109.4654779
  84.8855141  63.3753053 109.5534908  86.3471866  63.0750224 109.8088765
  75.2957348  55.1524438 106.7094344  75.8701100  54.9299619 105.9767537
  75.8828330  55.2213132 107.4622946  84.3536925  61.0398165 107.5158721
  84.8668807  61.6728156 108.0180431  85.0038149  60.4399360 107.1502081
  75.6226935  57.1828899 100.7290230  74.7864247  57.5203585 101.0499504
  75.4831705  57.0477878  99.7917367  77.5980016  52.0265687 105.4369414
  76.9444428  51.7114704 104.8126029  77.5560490  51.4041427 106.1629237
  78.7091220  62.3084982  97.3522706  77.8018282  62.0774235  97.5513855
  79.2062252  61.5122601  97.5396687  81.6159299  71.0182489 100.2719392
  80.9420998  71.3214186 100.8804350  82.0025121  71.8211569  99.9224849
  80.8317756  58.5147620 109.7617061  79.9140317  58.7362567 109.6038749
  81.2477900  58.5893931 108.9028769  81.6152804  59.9139036 104.8919742
  82.3624623  60.4260433 104.5826864  81.8844393  59.5923088 105.7524135
  79.8879454  62.4097576 101.8746696  78.9790673  62.1256609 101.9719166
  79.9174538  62.8296655 101.0150003  85.1198721  66.0204166 105.6437864
  84.6661048  65.1795076 105.7003054  84.4892688  66.6565564 105.9812644
  84.0631641  56.9496152 106.8738531  83.3254398  56.4373538 107.2048774
  84.3158414  56.5096534 106.0621808  83.5631661  67.8580663 106.5787682
  83.8554635  68.4185720 105.8600047  84.0730281  68.1509224 107.3340841
  84.1643268  49.7272404 107.4680300  84.4702145  48.8669767 107.1806215
  84.8895873  50.3190024 107.2679294  70.4567624  60.1303091 105.8561898
  70.2592024  59.5372451 105.1312965  69.9014288  59.8255301 106.5737837
  78.4364348  60.0226197 107.9756491  78.4912958  59.0700033 107.8998968
  77.6255550  60.1785636 108.4597790  79.5855542  63.9506320  99.2134775
  79.1474972  63.2342179  98.7540412  80.3265983  64.1782435  98.6519866
  76.3756708  58.6403257 105.7346870  75.5624573  58.9397427 106.1412062
  76.8715702  58.2458946 106.4521352  78.5265286  68.6361014 107.6681135
  78.4841465  68.8621860 106.7389667  79.4427985  68.4024388 107.8166936
  81.9730920  59.1045081 114.5661764  82.3280307  59.3316554 115.4256230
  82.6203051  59.4363458 113.9439019  87.7028657  62.2263517 105.2711093
  87.5646555  62.4165113 104.3432282  87.3464875  62.9882900 105.7279144
  75.8670783  56.2121612 111.3508105  76.5070162  56.0710371 110.6531068
  75.0348313  55.9256126 110.9746707  87.7298036  64.2940044 110.2822365
  88.1634543  64.2015333 111.1305419  88.4429617  64.2697545 109.6442381
  76.6431087  65.5124043 107.4643098  77.4371685  65.0174363 107.2625673
  75.9322779  64.9841906 107.1010803  81.4625931  67.8942138 111.8155465
  81.5162953  68.4633075 112.5833181  80.5940712  68.0644023 111.4509502
  72.9513850  59.6567124 103.5402850  72.0211438  59.5951580 103.7572812
  73.0471322  59.1343077 102.7439492  72.8699399  56.1821937 106.1281092
  73.1306216  57.0967271 106.0190252  73.6916571  55.7146380 106.2777705
  74.3424324  57.5959694 113.2979916  75.0147378  57.3877057 112.6492565
  73.5154111  57.3981780 112.8585149  88.5913586  64.3363745 112.8155250
  88.7849476  65.2409555 113.0614525  88.4914204  63.8771164 113.6493835
  80.2449896  54.2221635 115.3145577  79.5977811  54.9211585 115.2210054
  81.0150912  54.6557779 115.6821826  83.6528694  64.4870488 118.3896131
  83.5014201  64.2581039 117.4726214  83.6433374  65.4441089 118.4027476
  80.4214031  62.0602400 113.3742397  81.3506091  62.2113560 113.2011364
  80.0005061  62.1486421 112.5191044  79.2202363  66.0853065 111.1440935
  79.0813448  65.7171849 112.0166873  78.4316959  66.6000704 110.9724892
  79.8150515  71.1862161 102.4866471  79.9902270  70.7150204 103.3012094
  79.1283303  71.8127927 102.7147732  80.7707578  65.4634667 108.5329772
  80.4357410  65.4235437 109.4287422  80.2711523  64.7979383 108.0600183
  74.7451822  60.8702297 114.0582354  74.6071620  60.1382536 114.6593893
  75.6556745  60.7811198 113.7766541  83.7066769  62.8090702  98.8066832
  83.0895940  62.0837530  98.7099885  83.2383258  63.5700062  98.4633906
  77.3734122  60.5822257 113.5466033  78.0833741  59.9415449 113.5052652
  77.3303430  60.8335152 114.4692214  85.3620901  67.5189610 116.4672612
  85.3033447  66.8348830 115.8003196  85.7640419  68.2608600 116.0153238
  76.0863056  57.5687475 115.3661673  75.5500413  57.1178213 116.0183269
  75.4979765  57.7033384 114.6232137  74.3811600  74.3351524 109.2606331
  74.6208198  74.9670048 109.9385350  73.5380796  73.9839564 109.5471691
  75.4965315  57.0276126  97.9288136  74.6194782  56.9064927  97.5650383
  75.9723068  56.2362204  97.6767025  85.3638308  65.4829194 114.6986592
  84.4765087  65.1455116 114.8212991  85.9336859  64.7512225 114.9355358
  67.0167455  61.8153286 108.0229644  67.7038495  61.5015016 107.4350659
  66.8615584  62.7194650 107.7496895  71.8202178  56.7043482 112.4514667
  71.7360366  56.0969152 111.7165077  70.9984884  57.1952501 112.4524164
  78.8939462  70.1430646 111.6647835  78.8209633  70.9485618 112.1767140
  78.4516855  70.3422612 110.8395857  78.6829241  69.3802416 105.1750657
  77.8996763  69.9224097 105.2688881  79.3821986  69.8976396 105.5744898
  81.9925891  55.1897046 107.8184862  82.4894591  54.4367008 107.4985933
  81.2212873  55.2261363 107.2528072  89.8455649  60.8937411 109.4603154
  89.8345525  61.7762127 109.0897087  88.9773028  60.5408962 109.2657691
  81.3538145  70.0417480 113.8205994  82.0666117  70.6764945 113.7481895
  80.8628174  70.1381346 113.0045996  83.0755672  63.9468733 105.3923286
  82.1411951  64.0670196 105.2227990  83.2532341  63.0441200 105.1283296
  78.5760860  57.3314429 107.5456547  78.2058648  56.7785469 108.2337452
  79.0719953  56.7272562 106.9931547  86.4628223  59.7886052 105.9273320
  86.9288676  60.6214044 105.8533622  86.9135724  59.3231034 106.6318578
  76.4050059  67.7911924 114.6411565  77.1059518  68.4248407 114.7940959
  75.9345174  68.1326655 113.8807204  84.5304455  66.1329874 102.9259472
  84.8064298  66.0186468 103.8353346  83.6608953  65.7347359 102.8871645
  84.4344886  52.1566639 109.9664221  83.5207966  52.3870866 110.1346428
  84.8637988  52.2405083 110.8178254  84.2051345  60.3456531 112.4664115
  83.5522795  60.5932439 111.8116568  84.5831725  59.5320670 112.1326592
  81.1658519  70.3816225 106.5692285  81.3480913  69.5637880 107.0320038
  81.9891505  70.5983917 106.1317175  81.5000684  69.3084410 103.8307334
  82.0288450  68.7976864 103.2177496  81.7628904  68.9926940 104.6952867
  80.2538918  61.0876342 118.9530152  79.5779555  60.9870472 119.6232527
  81.0766552  60.9315556 119.4166149  72.0017777  67.3248279 111.5742668
  72.5871214  66.5791967 111.7070572  71.8042615  67.6352236 112.4579331
  74.8556432  70.3599526 106.5905110  74.1866807  70.8445654 106.1069150
  74.7169302  70.6068747 107.5048488  66.5935432  59.8953879 110.2947111
  66.6319531  59.3617470 111.0884229  66.0875724  59.3689085 109.6758088
  78.9961701  72.3943270 113.1887768  79.5480009  72.5574891 113.9536853
  79.3367894  72.9847708 112.5167793  73.9726194  54.7418420 113.7909653
  74.0367520  55.6033251 113.3787051  73.9093314  54.1292421 113.0582011
  73.4478466  56.8141552 117.4382687  74.0750505  56.4318630 118.0520212
  72.5906385  56.5955754 117.8038380  83.8472575  67.2204527 119.0436423
  84.3912479  67.8334486 118.5491378  83.2659420  67.7784106 119.5603436
  70.2244009  58.6217981 103.3701042  70.5197450  57.7128660 103.3168096
  69.3232045  58.6005721 103.0482044  82.1330088  70.3425245 110.1751450
  82.0081227  69.5414985 109.6662396  82.7909179  70.8371439 109.6865420
  73.7538256  56.6973978 109.3528591  73.0324842  57.3109946 109.2136064
  74.5431512  57.2331743 109.2745237  84.1964996  68.1434265 111.8031001
  83.2495332  68.0239617 111.7309327  84.5447769  67.2556764 111.8857262
  76.5564570  54.0328404 115.6269242  77.0798971  54.2790701 116.3895552
  76.3376903  54.8648439 115.2072380  71.9531851  56.3032079 103.4940367
  71.6244557  55.4229458 103.3115473  72.3071221  56.2479748 104.3816756
  81.2011430  67.9386982 108.0035353  81.0536392  67.0103689 108.1842923
  82.0264923  67.9607072 107.5192428  75.0673674  56.5905049 103.8615845
  75.4069746  57.1190970 103.1394453  75.5145794  56.9285455 104.6374411
  84.8045551  68.7615540 109.0900226  85.7292099  68.5558402 108.9524677
  84.6360855  68.5131942 109.9989567  77.7617115  54.9742100 113.3118913
  77.4213935  54.1749913 113.7139593  77.0556121  55.2743810 112.7395746
  78.4133586  52.0591412 111.7646236  79.2359656  51.5851890 111.6425126
  78.6571650  52.8381896 112.2644922  77.0541821  55.0879670 102.0609138
  77.7750183  55.4660923 101.5572855  76.4307125  55.8068547 102.1644116
  81.1972944  55.7924819 102.9967470  81.4136558  56.6749457 102.6956298
  80.7167011  55.4011033 102.2673112  75.9372165  58.7510533 109.5738215
  75.7916746  59.0650836 110.4662496  75.4597369  59.3695433 109.0209113
  77.7968548  55.7413081 109.6219104  77.7830117  54.8454174 109.2851402
  78.5140976  55.7483744 110.2557390  79.6494679  56.1750421 111.6672232
  79.3912457  57.0967491 111.6656562  79.1179719  55.7780855 112.3572696
  84.5940868  69.2801208 104.4462317  84.7677745  68.7147630 103.6936169
  85.0869759  70.0802103 104.2641807  70.4117827  61.2915877 112.5125876
  69.8671295  62.0675685 112.6446150  71.2897177  61.6386681 112.3544997
  77.2005444  54.6227461 104.8906674  77.3221355  53.6944107 105.0897562
  76.9107486  54.6366147 103.9784990  80.0696634  52.3082371 108.0273394
  80.0918331  52.3721704 107.0725374  80.4864693  51.4686880 108.2213900
  90.4480259  62.0437631 106.0652617  90.8911405  61.2944956 105.6671740
  89.5706769  62.0347767 105.6826349  85.5816040  68.5967972 101.5459215
  86.2766945  69.2174665 101.7646530  85.9239190  67.7463324 101.8211593
  71.1983849  60.4185773 115.4056033  70.4565585  60.5668409 115.9920663
  70.8776594  60.6794039 114.5422782  87.4807463  66.0467678 103.0746546
  88.0058787  66.3854951 102.3495866  87.3929816  65.1114693 102.8909681
  79.1427512  69.9601751 115.2036423  79.4514638  69.7150898 116.0759122
  79.9402994  70.1648390 114.7155293  79.1648124  72.1139661 107.4341799
  78.7253114  71.6216040 108.1274656  79.9156241  71.5712629 107.1933874
  71.6440463  68.3051202 107.4366427  72.4698483  68.0054974 107.0565071
  71.2934515  67.5358824 107.8856216  76.6121996  67.6577670 109.5064101
  75.9902005  66.9948375 109.2066329  77.2826863  67.6838802 108.8237749
  69.8449068  66.2237528 108.3955361  69.0080976  65.7959703 108.2139362
  69.8172713  66.4169972 109.3326152  76.6846524  56.1359458 119.0996607
  76.7334679  57.0121581 118.7174376  77.2269038  55.5936851 118.5268250
  87.1701369  66.6800581 118.3797744  86.3796913  66.6624720 117.8402243
  86.9334724  67.2188875 119.1346781  87.2899244  63.5293048 115.6930473
  87.3397249  63.3643055 116.6345995  87.1813168  62.6620307 115.3028353
  76.1735503  66.2081594 102.9822561  76.3223623  66.8917058 102.3289234
  76.9801946  66.1886684 103.4972017  84.5803007  59.5123976 117.0089779
  85.4812869  59.3730441 116.7173777  84.6550981  59.6778431 117.9487957
  78.9145812  56.8890831 115.8542966  78.0449121  57.1824397 115.5825554
  79.1505292  57.4731276 116.5750229  88.7917441  65.9489989 115.9372494
  88.5002249  66.3119970 116.7735955  88.1789572  65.2356998 115.7585826
  89.9913123  63.5142869 108.4575064  90.8260015  63.9532673 108.6212625
  90.1272252  63.0381522 107.6383310  87.0404629  61.0722604 114.4052552
  87.5158751  61.2650250 113.5971403  86.1170195  61.1281790 114.1595936
  73.9288136  62.2346771 103.9883630  73.6834178  61.3309101 104.1863840
  74.0984051  62.2363922 103.0463108  81.6184846  53.1070448 113.3708386
  82.1366790  53.8431474 113.0454874  81.2639979  53.4134441 114.2055145
  73.1983784  57.9675129 101.4869792  72.5053028  58.0419484 100.8309828
  72.9535535  57.2035472 102.0091309  81.8697440  49.5270730 108.8909283
  82.1499194  48.8593919 109.5169709  82.6548047  49.7199826 108.3783946
  79.6730909  68.7029724 100.4534309  79.1004876  69.3219911 100.0004781
  80.2463702  69.2529086 100.9874231  85.7406298  57.9488364 112.6380858
  86.6923721  58.0486462 112.6593082  85.5709749  57.1566633 113.1478942
  83.7620678  55.0343947 112.8240259  83.1670610  55.3148960 112.1286747
  83.4770375  55.5237848 113.5957000  82.8928168  68.9866874 101.5842891
  83.8258841  68.9212436 101.7875767  82.8051381  69.8223141 101.1257424
  85.5216185  68.3032744  98.5446839  85.4429817  67.9692608  99.4382597
  86.3425852  68.7954512  98.5438311  88.2194376  61.1694484 111.7523157
  88.1870696  60.2310484 111.9382841  88.8295000  61.2478520 111.0188982
  80.0577707  60.0390537  97.7950361  81.0036812  59.9096745  97.8638779
  79.6791952  59.3005199  98.2719789  88.3688865  57.9605527 111.7981440
  87.8527913  57.1763984 111.6111369  89.2528813  57.6324244 111.9627960
  86.0299592  51.7046543 107.7577253  85.8324413  51.3961631 108.6420585
  86.6399297  52.4308182 107.8875183  94.0370926  62.2310491 110.8929194
  94.7674315  61.9695779 111.4536897  93.4277872  61.4939213 110.9331262
  92.1186223  60.3718353 111.4903645  91.3919387  60.2374318 110.8820137
  91.7033510  60.6795182 112.2960363  79.9416400  64.0908283 119.2551018
  80.8619409  64.2686882 119.4491065  79.9065983  63.1464328 119.1030718
  78.2420624  57.9640513  97.7305247  77.3352080  57.6673626  97.8067960
  78.5196605  57.6670331  96.8639533  69.1598565  59.2846877 108.1804293
  68.8401349  58.4312185 107.8878667  68.6131993  59.4995455 108.9362260
  72.9378472  62.0009318 111.8973799  73.1564482  62.9326425 111.9161833
  73.3504246  61.6417292 112.6828603  79.8582690  52.5077403 103.8849488
  79.0483418  52.1624488 104.2604734  80.5467107  52.1984947 104.4737099
  81.7873238  51.5855450 105.5073784  82.3404277  52.0050903 106.1663808
  82.0243325  50.6591198 105.5496740  77.8106337  57.5742523 121.2876548
  77.7103064  58.5236880 121.2188639  77.5927879  57.2460762 120.4152618
  77.0119409  54.8227448  97.8717226  77.8738573  55.1482347  98.1313043
  77.1969753  54.0358944  97.3590292  69.0286825  62.9049788 110.1497415
  68.3350296  62.4903741 109.6367369  69.7759816  62.9470325 109.5530833
  85.1652045  53.6955975 105.0152449  84.5850714  54.3540779 104.6330501
  84.8987978  52.8733319 104.6039866  83.6155612  53.0961032 107.2173769
  84.1155390  53.2077567 106.4088088  84.2591220  52.7922085 107.8574578
  77.6737608  61.0039662 120.1041610  77.1904689  61.8040022 120.3105499
  77.7598547  61.0147607 119.1509054  70.9423567  62.8368042 108.0263429
  70.9194255  62.9355729 107.0745313  71.2524204  63.6833193 108.3480596
  73.6010945  64.8944197 112.1410044  74.5554199  64.8628139 112.0739975
  73.4023469  64.4334821 112.9560270  74.1910327  63.4645313 114.7080841
  75.0103216  63.9589392 114.7315679  74.4647135  62.5477281 114.6798409
  83.9476923  55.8556065 104.0708797  83.0602778  56.1405716 103.8528992
  84.3630912  55.6949829 103.2236074  87.2991459  55.8802586 107.7863136
  88.0751850  56.3699039 108.0587753  86.5739594  56.3060640 108.2435006
  89.7364018  56.5930205 108.8437077  90.3308509  56.3525941 108.1330385
  89.8090602  55.8737336 109.4710613  71.9561174  70.4363816 109.1580242
  71.8215642  69.6764217 108.5918240  71.5393236  71.1604716 108.6909031
  83.0920137  65.6200740  98.1656817  83.7955987  65.8250742  98.7814473
  82.3682786  66.1877502  98.4305901  83.9217947  61.3710601 104.2859087
  83.8653148  61.8279153 103.4466720  84.4746290  60.6101286 104.1081930
  87.7322753  57.1600333 105.1109207  87.4759687  56.7596969 105.9417414
  87.1075621  57.8744127 104.9859346  92.0435091  59.8996406 107.6180498
  91.4834649  59.9689596 108.3912060  91.4378594  59.7237391 106.8979994
  75.1130300  71.3333133 109.3698684  74.9962684  72.2778566 109.2677375
  74.2922746  71.0306695 109.7584484  85.0006834  66.0583269 100.2155277
  85.8352438  65.6264468 100.0332752  84.8391177  65.8865283 101.1432172
  84.6552726  62.5615382 101.5811616  84.6001530  62.3959654 100.6400060
  84.0298782  63.2691415 101.7373806  69.4445241  57.7983447 115.4073039
  70.0904105  57.2882401 115.8960264  69.2362392  58.5352128 115.9816464
  81.9698634  64.8664294 120.9065179  82.8389793  65.0404946 120.5451814
  81.4905385  65.6858711 120.7840908  77.9648852  52.0623491 101.1596935
  77.9527522  53.0065331 101.3165206  78.8572274  51.8793637 100.8656396
  76.1384814  71.9861395 112.5854613  77.0412060  72.0185005 112.9021108
  75.9122184  71.0561846 112.6000949  77.8938416  70.7392382 109.2464691
  76.9434047  70.7394243 109.1329064  78.1970902  69.9925116 108.7300726
  81.7800971  48.6566268 105.4142872  81.0133367  48.1024755 105.5599554
  82.1911676  48.7288137 106.2757023  73.7842732  54.9451064 119.5048053
  74.6474194  54.5887869 119.7151377  73.2108143  54.6064959 120.1923457
  93.6291109  76.5752920 110.3110454  94.2669519  76.4559668 109.6073794
  93.5111952  77.5233764 110.3698406  90.4380816  76.5280348 110.2471978
  90.0999327  76.4121413 109.3592513  91.3070584  76.1271513 110.2272985
  86.2967631  78.3815825 106.2368869  85.7332496  78.2905762 105.4685157
  86.1820026  77.5615729 106.7171362  90.9200599  77.6815200 116.2058184
  90.9089239  77.2867998 115.3338688  91.0821238  76.9481273 116.7991955
  83.8432063  79.8767016 109.0753090  84.6353355  79.5357841 108.6599389
  84.0828713  79.9861991 109.9955243  87.6407860  80.4652312 115.1537368
  87.3497726  81.3697943 115.0384034  88.2764844  80.5068839 115.8681438
  88.5664067  77.8429160 111.7438728  89.1627639  77.6185183 111.0295691
  88.6239038  77.1013906 112.3464175  88.1389095  75.2968596  99.5788919
  88.3914616  74.7750117  98.8172382  87.2013654  75.1334741  99.6815602
  93.1832378  74.3004374 107.3863662  93.9695467  73.8823797 107.0354079
  93.4471082  75.2050466 107.5545310  98.5840805  74.2379607 108.2896640
  99.3165977  73.6678824 108.5234470  97.8280161  73.8501208 108.7303146
  90.2016925  76.6606849 105.4859983  89.8375132  76.1337470 106.1972904
  91.0584041  76.2705318 105.3126468  96.1066225  67.9501181 112.7491249
  95.7749550  68.8196592 112.5252464  95.5111839  67.6337465 113.4285279
  89.8422412  71.6896748 100.4821331  90.0096814  72.5576985 100.8491802
  89.6519581  71.8524030  99.5582621  92.5997745  80.1513727 112.1487162
  92.2998468  81.0538766 112.0402969  92.2548804  79.8845911 113.0008315
  86.0510226  76.6027524 108.1823866  85.1260723  76.4703738 108.3901558
  86.2994639  77.3821743 108.6793809  95.9994889  72.6696267 109.8284599
  95.0911766  72.6011676 109.5343360  95.9482484  73.1468212 110.6566424
  89.8211632  74.1454406 101.4667998  89.7011258  74.5911457 102.3053478
  89.1264221  74.4939724 100.9081536  83.4119037  76.2460798 109.0167655
  83.5411418  76.4995277 109.9307067  82.7316489  76.8388506 108.6972310
  90.0735754  74.0885913 117.7719496  89.2969088  74.6479833 117.7622361
  90.7126317  74.5742696 118.2934366  97.8656535  70.8712706 111.6062473
  97.2230915  71.1645239 110.9602268  97.3611463  70.7565626 112.4115670
  95.5196699  74.6175879 102.2948332  96.4314555  74.8503266 102.1196030
  95.0106346  75.2012923 101.7323411  88.3282127  76.8971366 117.3337463
  89.0696811  77.4356410 117.0572287  87.6219112  77.5237655 117.4909015
  93.8037466  79.0400507 115.9309625  94.2120822  78.5982917 115.1864257
  93.0814728  78.4653134 116.1843818  90.1568536  73.9773114 113.3043182
  91.0029732  74.4012527 113.4477831  90.0967174  73.3206738 113.9981745
  94.1266281  79.6001698 109.6861914  93.4975143  79.7647412 108.9837982
  93.7391943  80.0143307 110.4572878  98.0055513  80.5356135 107.0406277
  97.3206551  80.9155037 106.4903311  98.0899362  81.1451462 107.7738225
  93.3067982  71.6377482 114.9624355  93.0628914  72.3919543 114.4258631
  93.5827912  72.0162830 115.7971602  95.2606444  78.1816094 113.6401621
  95.4723340  78.8247854 112.9636002  95.2136193  77.3478411 113.1723551
  92.8632673  70.7933915 110.5438193  92.0017152  71.0915169 110.8354931
  92.8895108  71.0104314 109.6119226  86.5718324  78.8847587 109.8891762
  87.1419681  79.3134856 109.2509246  87.1626436  78.6030172 110.5875948
  88.6163129  75.4599258 103.7601564  89.3187172  75.9120302 104.2275490
  88.2843757  74.8183077 104.3881457  87.0643490  74.0511015 118.1352773
  86.4342151  74.7327295 118.3688170  86.9579578  73.9394096 117.1905912
  82.3588463  73.7182811 109.0618697  81.5687517  73.9740339 108.5858808
  82.8499710  74.5331149 109.1670738  96.3752272  81.0588050 111.8123978
  97.1969716  80.6568237 111.5306660  96.3714675  80.9556284 112.7640094
  84.3103208  74.0827390 106.0202174  83.5134371  74.1946084 106.5385670
  84.0828800  74.4214042 105.1543065  90.1408876  80.6072093 113.9684689
  90.2053308  81.0692500 114.8042861  89.4319800  79.9769458 114.0966999
  80.6426166  73.9713301 111.4933688  80.8934204  74.8560311 111.7591264
  81.1785714  73.7917903 110.7208780 104.4658265  77.4026798 108.1608950
 103.7121974  76.8334196 108.0052954 104.6005807  77.3689463 109.1079584
  86.3424233  68.3531780 120.4978024  85.9491179  67.7997979 121.1725669
  87.1590373  68.6642359 120.8884542  89.2592194  69.7689660 118.0898281
  90.0001907  70.3696813 118.0102743  89.4910117  69.0267297 117.5316323
  84.4033532  74.9546027 116.3676511  84.2887047  74.0531284 116.6683609
  83.5478050  75.2009724 116.0161327  91.4825370  82.8963767 117.9664011
  91.0389224  82.1100146 117.6484916  92.1442583  83.0842918 117.3007902
  86.2412491  84.4259569 112.4924690  86.7919916  84.2976632 111.7201684
  85.4023967  84.7254458 112.1419582  93.5806608  83.1766567 115.9945412
  93.5625083  83.9975448 115.5025682  94.5026528  83.0520642 116.2195554
  90.0379662  80.6910697 116.8368921  90.5707999  79.9298985 116.6068229
  89.5093743  80.3984348 117.5793075  93.2049357  65.7970762 112.3662563
  92.8613626  66.6872404 112.2901673  93.5728320  65.6072420 111.5032148
  93.1699640  75.7879374 100.8734998  92.6546263  76.5583978 101.1123385
  92.8976948  75.1144510 101.4968059  90.7546751  70.6329074 105.9320236
  89.8988347  70.2435925 105.7525875  91.1673703  70.7121035 105.0720022
  92.2845897  68.1675418 110.3311796  91.7810693  68.1305553 109.5179601
  92.5776504  69.0768160 110.3908452  88.5288783  68.2514147 109.3377978
  89.3941780  68.0556956 108.9783867  88.5966292  68.0224499 110.2647334
  98.1433914  78.5411728 102.8088171  97.3663357  78.2022888 102.3643333
  98.8225395  78.5464351 102.1343136  92.9585943  73.6606466 102.6994779
  92.6536079  73.9752615 103.5504922  93.9116385  73.7387886 102.7422112
  96.3825221  78.0145709 109.4654779  95.7248895  78.7044971 109.5534908
  97.1865620  78.4042141 109.8088765  86.1351102  70.4816355 106.7094344
  86.7094854  70.2591537 105.9767537  86.7222085  70.5505050 107.4622946
  95.1930680  76.3690082 107.5158721  95.7062561  77.0020074 108.0180431
  95.8431904  75.7691278 107.1502081  86.4620690  72.5120816 100.7290230
  85.6258002  72.8495503 101.0499504  86.3225459  72.3769796  99.7917367
  88.4373770  67.3557604 105.4369414  87.7838182  67.0406621 104.8126029
  88.3954244  66.7333345 106.1629237  89.5484975  77.6376899  97.3522706
  88.6412037  77.4066153  97.5513855  90.0456007  76.8414519  97.5396687
  91.6711510  73.8439538 109.7617061  90.7534072  74.0654485 109.6038749
  92.0871654  73.9185848 108.9028769  92.4546558  75.2430953 104.8919742
  93.2018377  75.7552351 104.5826864  92.7238148  74.9215006 105.7524135
  94.9025395  72.2788070 106.8738531  94.1648152  71.7665456 107.2048774
  95.1552169  71.8388451 106.0621808  95.0037023  65.0564322 107.4680300
  95.3095900  64.1961685 107.1806215  95.7289628  65.6481942 107.2679294
  81.2961379  75.4595008 105.8561898  81.0985779  74.8664369 105.1312965
  80.7408043  75.1547218 106.5737837  89.2758102  75.3518115 107.9756491
  89.3306712  74.3991951 107.8998968  88.4649304  75.5077554 108.4597790
  90.4249296  79.2798238  99.2134775  89.9868726  78.5634097  98.7540412
  91.1659737  79.5074353  98.6519866  87.2150462  73.9695174 105.7346870
  86.4018328  74.2689345 106.1412062  87.7109457  73.5750863 106.4521352
  92.8124674  74.4336999 114.5661764  93.1674062  74.6608472 115.4256230
  93.4596805  74.7655376 113.9439019  98.5422411  77.5555435 105.2711093
  98.4040310  77.7457031 104.3432282  98.1858630  78.3174818 105.7279144
  86.7064537  71.5413530 111.3508105  87.3463916  71.4002289 110.6531068
  85.8742068  71.2548043 110.9746707  98.5691791  79.6231962 110.2822365
  99.0028297  79.5307251 111.1305419  99.2823371  79.5989462 109.6442381
  83.7907605  74.9859042 103.5402850  82.8605193  74.9243498 103.7572812
  83.8865077  74.4634995 102.7439492  83.7093154  71.5113855 106.1281092
  83.9699971  72.4259188 106.0190252  84.5310326  71.0438298 106.2777705
  85.1818079  72.9251612 113.2979916  85.8541132  72.7168974 112.6492565
  84.3547865  72.7273698 112.8585149  99.4307340  79.6655663 112.8155250
  99.6243230  80.5701473 113.0614525  99.3307958  79.2063082 113.6493835
  91.0843651  69.5513553 115.3145577  90.4371566  70.2503503 115.2210054
  91.8544666  69.9849697 115.6821826  94.4922449  79.8162405 118.3896131
  94.3407955  79.5872957 117.4726214  94.4827128  80.7733007 118.4027476
  91.2607785  77.3894318 113.3742397  92.1899845  77.5405478 113.2011364
  90.8398815  77.4778339 112.5191044  85.5845576  76.1994215 114.0582354
  85.4465374  75.4674454 114.6593893  86.4950500  76.1103115 113.7766541
  94.5460524  78.1382619  98.8066832  93.9289694  77.4129448  98.7099885
  94.0777012  78.8991980  98.4633906  88.2127877  75.9114174 113.5466033
  88.9227495  75.2707367 113.5052652  88.1697185  76.1627069 114.4692214
  96.2014655  82.8481528 116.4672612  96.1427202  82.1640748 115.8003196
  96.6034174  83.5900518 116.0153238  86.9256811  72.8979392 115.3661673
  86.3894168  72.4470131 116.0183269  86.3373519  73.0325301 114.6232137
  86.3359070  72.3568044  97.9288136  85.4588536  72.2356845  97.5650383
  86.8116823  71.5654122  97.6767025  96.2032063  80.8121112 114.6986592
  95.3158842  80.4747034 114.8212991  96.7730614  80.0804143 114.9355358
  77.8561210  77.1445203 108.0229644  78.5432250  76.8306934 107.4350659
  77.7009339  78.0486568 107.7496895  82.6595932  72.0335400 112.4514667
  82.5754121  71.4261070 111.7165077  81.8378638  72.5244418 112.4524164
  92.8319646  70.5188964 107.8184862  93.3288345  69.7658926 107.4985933
  92.0606627  70.5553280 107.2528072 100.6849403  76.2229329 109.4603154
 100.6739280  77.1054045 109.0897087  99.8166783  75.8700880 109.2657691
  92.1931900  85.3709398 113.8205994  92.9059872  86.0056863 113.7481895
  91.7021928  85.4673264 113.0045996  89.4154615  72.6606347 107.5456547
  89.0452402  72.1077387 108.2337452  89.9113707  72.0564480 106.9931547
  97.3021978  75.1177970 105.9273320  97.7682430  75.9505962 105.8533622
  97.7529478  74.6522952 106.6318578  87.2443813  83.1203842 114.6411565
  87.9453273  83.7540325 114.7940959  86.7738928  83.4618573 113.8807204
  95.2738641  67.4858557 109.9664221  94.3601720  67.7162784 110.1346428
  95.7031742  67.5697001 110.8178254  95.0445099  75.6748449 112.4664115
  94.3916549  75.9224356 111.8116568  95.4225479  74.8612587 112.1326592
  91.0932672  76.4168260 118.9530152  90.4173309  76.3162389 119.6232527
  91.9160306  76.2607474 119.4166149  82.8411531  82.6540197 111.5742668
  83.4264968  81.9083885 111.7070572  82.6436370  82.9644153 112.4579331
  77.4329186  75.2245797 110.2947111  77.4713286  74.6909388 111.0884229
  76.9269479  74.6981002 109.6758088  89.8355455  87.7235188 113.1887768
  90.3873763  87.8866809 113.9536853  90.1761649  88.3139625 112.5167793
  84.8119948  70.0710337 113.7909653  84.8761275  70.9325168 113.3787051
  84.7487069  69.4584339 113.0582011  84.2872221  72.1433470 117.4382687
  84.9144260  71.7610547 118.0520212  83.4300140  71.9247672 117.8038380
  94.6866329  82.5496445 119.0436423  95.2306233  83.1626403 118.5491378
  94.1053174  83.1076023 119.5603436  81.0637764  73.9509899 103.3701042
  81.3591205  73.0420577 103.3168096  80.1625799  73.9297638 103.0482044
  84.5932011  72.0265896 109.3528591  83.8718596  72.6401863 109.2136064
  85.3825266  72.5623660 109.2745237  87.3958324  69.3620322 115.6269242
  87.9192726  69.6082619 116.3895552  87.1770657  70.1940357 115.2072380
  82.7925605  71.6323997 103.4940367  82.4638311  70.7521376 103.3115473
  83.1464976  71.5771665 104.3816756  85.9067428  71.9196966 103.8615845
  86.2463501  72.4482888 103.1394453  86.3539549  72.2577373 104.6374411
  88.6010869  70.3034017 113.3118913  88.2607690  69.5041830 113.7139593
  87.8949875  70.6035728 112.7395746  89.2527341  67.3883330 111.7646236
  90.0753410  66.9143808 111.6425126  89.4965405  68.1673813 112.2644922
  87.8935575  70.4171588 102.0609138  88.6143938  70.7952841 101.5572855
  87.2700880  71.1360465 102.1644116  92.0366698  71.1216737 102.9967470
  92.2530313  72.0041375 102.6956298  91.5560766  70.7302950 102.2673112
  86.7765920  74.0802450 109.5738215  86.6310500  74.3942753 110.4662496
  86.2991123  74.6987351 109.0209113  88.6362303  71.0704998 109.6219104
  88.6223871  70.1746092 109.2851402  89.3534731  71.0775662 110.2557390
  90.4888433  71.5042338 111.6672232  90.2306211  72.4259409 111.6656562
  89.9573474  71.1072773 112.3572696  81.2511582  76.6207795 112.5125876
  80.7065050  77.3967603 112.6446150  82.1290932  76.9678599 112.3544997
  88.0399199  69.9519379 104.8906674  88.1615110  69.0236025 105.0897562
  87.7501241  69.9658064 103.9784990  90.9090389  67.6374289 108.0273394
  90.9312086  67.7013622 107.0725374  91.3258448  66.7978798 108.2213900
 101.2874013  77.3729548 106.0652617 101.7305159  76.6236874 105.6671740
 100.4100524  77.3639685 105.6826349  82.0377604  75.7477691 115.4056033
  81.2959340  75.8960326 115.9920663  81.7170348  76.0085957 114.5422782
  89.9821266  85.2893669 115.2036423  90.2908393  85.0442816 116.0759122
  90.7796748  85.4940308 114.7155293  82.4834217  83.6343120 107.4366427
  83.3092237  83.3346891 107.0565071  82.1328269  82.8650742 107.8856216
  80.6842822  81.5529446 108.3955361  79.8474731  81.1251620 108.2139362
  80.6566468  81.7461889 109.3326152  87.5240278  71.4651376 119.0996607
  87.5728434  72.3413499 118.7174376  88.0662792  70.9228769 118.5268250
  98.0095124  82.0092499 118.3797744  97.2190667  81.9916638 117.8402243
  97.7728478  82.5480793 119.1346781  98.1292999  78.8584965 115.6930473
  98.1791004  78.6934973 116.6345995  98.0206922  77.9912225 115.3028353
  95.4196761  74.8415894 117.0089779  96.3206624  74.7022358 116.7173777
  95.4944736  75.0070348 117.9487957  89.7539567  72.2182748 115.8542966
  88.8842876  72.5116314 115.5825554  89.9899047  72.8023193 116.5750229
  99.6311196  81.2781907 115.9372494  99.3396004  81.6411888 116.7735955
  99.0183327  80.5648915 115.7585826 100.8306878  78.8434787 108.4575064
 101.6653769  79.2824591 108.6212625 100.9666007  78.3673440 107.6383310
  97.8798384  76.4014522 114.4052552  98.3552505  76.5942168 113.5971403
  96.9563949  76.4573707 114.1595936  84.7681890  77.5638689 103.9883630
  84.5227932  76.6601019 104.1863840  84.9377805  77.5655839 103.0463108
  92.4578600  68.4362365 113.3708386  92.9760544  69.1723392 113.0454874
  92.1033733  68.7426358 114.2055145  84.0377538  73.2967046 101.4869792
  83.3446783  73.3711401 100.8309828  83.7929290  72.5327390 102.0091309
  92.7091195  64.8562648 108.8909283  92.9892948  64.1885837 109.5169709
  93.4941801  65.0491743 108.3783946  96.5800053  73.2780282 112.6380858
  97.5317476  73.3778379 112.6593082  96.4103503  72.4858550 113.1478942
  94.6014432  70.3635865 112.8240259  94.0064364  70.6440878 112.1286747
  94.3164129  70.8529766 113.5957000  99.0588131  76.4986401 111.7523157
  99.0264451  75.5602402 111.9382841  99.6688754  76.5770438 111.0188982
  90.8971462  75.3682454  97.7950361  91.8430566  75.2388662  97.8638779
  90.5185706  74.6297116  98.2719789  99.2082619  73.2897445 111.7981440
  98.6921668  72.5055901 111.6111369 100.0922568  72.9616161 111.9627960
  96.8693346  67.0338460 107.7577253  96.6718167  66.7253549 108.6420585
  97.4793052  67.7600099 107.8875183 104.8764681  77.5602408 110.8929194
 105.6068069  77.2987696 111.4536897 104.2671626  76.8231130 110.9331262
 102.9579978  75.7010271 111.4903645 102.2313141  75.5666236 110.8820137
 102.5427265  76.0087099 112.2960363  90.7810154  79.4200201 119.2551018
  91.7013164  79.5978800 119.4491065  90.7459737  78.4756246 119.1030718
  89.0814379  73.2932431  97.7305247  88.1745834  72.9965543  97.8067960
  89.3590360  72.9962249  96.8639533  79.9992319  74.6138794 108.1804293
  79.6795103  73.7604102 107.8878667  79.4525747  74.8287372 108.9362260
  83.7772227  77.3301235 111.8973799  83.9958236  78.2618343 111.9161833
  84.1898000  76.9709210 112.6828603  90.6976444  67.8369320 103.8849488
  89.8877173  67.4916405 104.2604734  91.3860861  67.5276864 104.4737099
  92.6266993  66.9147367 105.5073784  93.1798031  67.3342821 106.1663808
  92.8637079  65.9883115 105.5496740  88.6500092  72.9034441 121.2876548
  88.5496819  73.8528798 121.2188639  88.4321634  72.5752680 120.4152618
  87.8513163  70.1519366  97.8717226  88.7132327  70.4774264  98.1313043
  88.0363507  69.3650862  97.3590292  79.8680579  78.2341706 110.1497415
  79.1744051  77.8195658 109.6367369  80.6153570  78.2762242 109.5530833
  96.0045800  69.0247892 105.0152449  95.4244469  69.6832696 104.6330501
  95.7381732  68.2025237 104.6039866  94.4549366  68.4252950 107.2173769
  94.9549145  68.5369485 106.4088088  95.0984974  68.1214003 107.8574578
  88.5131362  76.3331580 120.1041610  88.0298444  77.1331940 120.3105499
  88.5992301  76.3439525 119.1509054  81.7817322  78.1659959 108.0263429
  81.7588010  78.2647647 107.0745313  82.0917958  79.0125110 108.3480596
  84.4404699  80.2236114 112.1410044  85.3947953  80.1920057 112.0739975
  84.2417223  79.7626738 112.9560270  85.0304082  78.7937231 114.7080841
  85.8496971  79.2881309 114.7315679  85.3040889  77.8769199 114.6798409
  94.7870678  71.1847983 104.0708797  93.8996533  71.4697633 103.8528992
  95.2024667  71.0241746 103.2236074  98.1385214  71.2094504 107.7863136
  98.9145604  71.6990956 108.0587753  97.4133348  71.6352558 108.2435006
 100.5757773  71.9222123 108.8437077 101.1702263  71.6817859 108.1330385
 100.6484356  71.2029254 109.4710613  82.7954928  85.7655734 109.1580242
  82.6609396  85.0056135 108.5918240  82.3786991  86.4896634 108.6909031
  94.7611702  76.7002519 104.2859087  94.7046903  77.1571070 103.4466720
  95.3140044  75.9393203 104.1081930  98.5716507  72.4892251 105.1109207
  98.3153442  72.0888886 105.9417414  97.9469376  73.2036045 104.9859346
 102.8828845  75.2288324 107.6180498 102.3228403  75.2981513 108.3912060
 102.2772349  75.0529309 106.8979994  80.2838996  73.1275364 115.4073039
  80.9297859  72.6174318 115.8960264  80.0756147  73.8644046 115.9816464
  92.8092388  80.1956212 120.9065179  93.6783548  80.3696864 120.5451814
  92.3299140  81.0150629 120.7840908  88.8042606  67.3915409 101.1596935
  88.7921276  68.3357249 101.3165206  89.6966028  67.2085554 100.8656396
  86.9778568  87.3153313 112.5854613  87.8805815  87.3476923 112.9021108
  86.7515938  86.3853764 112.6000949  92.6194726  63.9858186 105.4142872
  91.8527122  63.4316672 105.5599554  93.0305431  64.0580054 106.2757023
  84.6236487  70.2742981 119.5048053  85.4867948  69.9179786 119.7151377
  84.0501898  69.9356876 120.1923457 104.4684864  91.9044838 110.3110454
 105.1063274  91.7851585 109.6073794 104.3505707  92.8525682 110.3698406
 101.2774570  91.8572266 110.2471978 100.9393082  91.7413331 109.3592513
 102.1464338  91.4563431 110.2272985  97.1361386  93.7107742 106.2368869
  96.5726251  93.6197679 105.4685157  97.0213781  92.8907647 106.7171362
 101.7594353  93.0107118 116.2058184 101.7482994  92.6159916 115.3338688
 101.9214993  92.2773190 116.7991955  94.6825818  95.2058934 109.0753090
  95.4747110  94.8649759 108.6599389  94.9222468  95.3153909 109.9955243
 102.7160944  97.3778710 101.5483334 102.0648924  97.9632790 101.1617348
 103.5105307  97.9084905 101.6078372  98.4801614  95.7944229 115.1537368
  98.1891480  96.6989860 115.0384034  99.1158599  95.8360757 115.8681438
  99.4057821  93.1721078 111.7438728 100.0021393  92.9477100 111.0295691
  99.4632793  92.4305823 112.3464175 104.0226132  89.6296292 107.3863662
 104.8089221  89.2115715 107.0354079 104.2864837  90.5342384 107.5545310
 104.1936210  95.0669142 102.0852319 103.5582043  95.1403769 102.7973223
 103.8633616  95.6562741 101.4071398 109.4234559  89.5671525 108.2896640
 110.1559731  88.9970742 108.5234470 108.6673915  89.1793125 108.7303146
 101.0410679  91.9898766 105.4859983 100.6768886  91.4629387 106.1972904
 101.8977795  91.5997235 105.3126468 106.9459980  83.2793099 112.7491249
 106.6143305  84.1488510 112.5252464 106.3505593  82.9629383 113.4285279
 103.4391499  95.4805645 112.1487162 103.1392222  96.3830684 112.0402969
 103.0942559  95.2137828 113.0008315  96.8903981  91.9319442 108.1823866
  95.9654477  91.7995656 108.3901558  97.1388394  92.7113661 108.6793809
 106.8388643  87.9988185 109.8284599 105.9305520  87.9303594 109.5343360
 106.7876239  88.4760130 110.6566424  94.2512792  91.5752715 109.0167655
  94.3805173  91.8287194 109.9307067  93.5710243  92.1680423 108.6972310
 100.9129509  89.4177831 117.7719496 100.1362843  89.9771751 117.7622361
 101.5520072  89.9034614 118.2934366 108.7050289  86.2004624 111.6062473
 108.0624670  86.4937157 110.9602268 108.2005218  86.0857544 112.4115670
 106.3590453  89.9467797 102.2948332 107.2708309  90.1795184 102.1196030
 105.8500100  90.5304841 101.7323411  99.1675881  92.2263284 117.3337463
  99.9090566  92.7648328 117.0572287  98.4612867  92.8529573 117.4909015
 104.6431221  94.3692425 115.9309625 105.0514577  93.9274835 115.1864257
 103.9208482  93.7945052 116.1843818 100.9962291  89.3065031 113.3043182
 101.8423486  89.7304445 113.4477831 100.9360929  88.6498656 113.9981745
 104.9660035  94.9293615 109.6861914 104.3368898  95.0939329 108.9837982
 104.5785698  95.3435225 110.4572878 108.8449267  95.8648053 107.0406277
 108.1600305  96.2446954 106.4903311 108.9293117  96.4743380 107.7738225
 104.1461736  86.9669400 114.9624355 103.9022668  87.7211460 114.4258631
 104.4221667  87.3454747 115.7971602 106.1000199  93.5108012 113.6401621
 106.3117094  94.1539772 112.9636002 106.0529947  92.6770329 113.1723551
 103.7026428  86.1225833 110.5438193 102.8410907  86.4207086 110.8354931
 103.7288863  86.3396232 109.6119226 100.5187997  94.6668023 106.9511999
 100.9826343  94.9455726 106.1616621 100.2544795  93.7651468 106.7685089
  97.4112078  94.2139505 109.8891762  97.9813435  94.6426773 109.2509246
  98.0020190  93.9322090 110.5875948  97.9037245  89.3802932 118.1352773
  97.2735905  90.0619213 118.3688170  97.7973333  89.2686014 117.1905912
 107.2146027  96.3879968 111.8123978 108.0363471  95.9860155 111.5306660
 107.2108430  96.2848202 112.7640094 100.9802630  95.9364011 113.9684689
 101.0447063  96.3984418 114.8042861 100.2713554  95.3061376 114.0966999
  91.4819920  89.3005219 111.4933688  91.7327959  90.1852229 111.7591264
  92.0179469  89.1209820 110.7208780 115.3052020  92.7318716 108.1608950
 114.5515728  92.1626114 108.0052954 115.4399561  92.6981380 109.1079584
 100.6950648  97.6032118 103.8363669 100.5596323  98.4483654 104.2648517
 101.2360460  97.8051396 103.0729603  97.1817988  83.6823698 120.4978024
  96.7884933  83.1289897 121.1725669  97.9984128  83.9934277 120.8884542
 100.0985949  85.0981577 118.0898281 100.8395662  85.6988730 118.0102743
 100.3303871  84.3559215 117.5316323  95.2427287  90.2837944 116.3676511
  95.1280802  89.3823202 116.6683609  94.3871804  90.5301641 116.0161327
 102.3219124  98.2255685 117.9664011 101.8782979  97.4392063 117.6484916
 102.9836338  98.4134835 117.3007902  97.0806246  99.7551486 112.4924690
  97.6313671  99.6268550 111.7201684  96.2417721 100.0546375 112.1419582
 104.4200362  98.5058485 115.9945412 104.4018838  99.3267366 115.5025682
 105.3420282  98.3812560 116.2195554 100.8773417  96.0202614 116.8368921
 101.4101753  95.2590902 116.6068229 100.3487498  95.7276266 117.5793075
 104.0443112  81.1262680 112.3662563 103.7007381  82.0164322 112.2901673
 104.4122074  80.9364338 111.5032148 101.5940505  85.9620992 105.9320236
 100.7382102  85.5727842 105.7525875 102.0067457  86.0412953 105.0720022
 103.1239652  83.4967335 110.3311796 102.6204448  83.4597470 109.5179601
 103.4170259  84.4060078 110.3908452 108.9827668  93.8703646 102.8088171
 108.2057111  93.5314805 102.3643333 109.6619149  93.8756269 102.1343136
 103.7979697  88.9898383 102.6994779 103.4929833  89.3044533 103.5504922
 104.7510140  89.0679803 102.7422112 102.2426129  95.1488607 104.3487733
 101.7147491  94.4141366 104.0360970 101.7413632  95.9263283 104.1027701
 107.2218975  93.3437627 109.4654779 106.5642650  94.0336889 109.5534908
 108.0259375  93.7334059 109.8088765 106.0324434  91.6982000 107.5158721
 106.5456316  92.3311992 108.0180431 106.6825658  91.0983195 107.1502081
  99.2767525  82.6849522 105.4369414  98.6231937  82.3698539 104.8126029
  99.2347999  82.0625262 106.1629237 103.2946808 101.6766324 100.2719392
 102.6208507 101.9798021 100.8804350 103.6812630 102.4795404  99.9224849
 102.5105265  89.1731455 109.7617061 101.5927826  89.3946402 109.6038749
 102.9265409  89.2477766 108.9028769 103.2940313  90.5722871 104.8919742
 104.0412132  91.0844268 104.5826864 103.5631902  90.2506924 105.7524135
 101.5666963  93.0681412 101.8746696 100.6578182  92.7840445 101.9719166
 101.5962047  93.4880490 101.0150003 106.7986230  96.6788001 105.6437864
 106.3448557  95.8378911 105.7003054 106.1680197  97.3149400 105.9812644
 105.7419150  87.6079987 106.8738531 105.0041907  87.0957374 107.2048774
 105.9945923  87.1680369 106.0621808 105.2419170  98.5164498 106.5787682
 105.5342144  99.0769555 105.8600047 105.7517790  98.8093059 107.3340841
 105.8430777  80.3856239 107.4680300 106.1489654  79.5253603 107.1806215
 106.5683382  80.9773860 107.2679294 100.1151857  90.6810032 107.9756491
 100.1700467  89.7283869 107.8998968  99.3043059  90.8369472 108.4597790
 100.2052795  99.2944849 107.6681135 100.1628974  99.5205695 106.7389667
 101.1215494  99.0608224 107.8166936 103.6518429  89.7628917 114.5661764
 104.0067816  89.9900390 115.4256230 104.2990560  90.0947293 113.9439019
 109.3816165  92.8847353 105.2711093 109.2434064  93.0748948 104.3432282
 109.0252384  93.6466735 105.7279144 109.4085545  94.9523880 110.2822365
 109.8422052  94.8599169 111.1305419 110.1217126  94.9281380 109.6442381
  98.3218596  96.1707878 107.4643098  99.1159194  95.6758198 107.2625673
  97.6110288  95.6425741 107.1010803 103.1413440  98.5525974 111.8155465
 103.1950462  99.1216910 112.5833181 102.2728221  98.7227859 111.4509502
 110.2701095  94.9947580 112.8155250 110.4636985  95.8993391 113.0614525
 110.1701713  94.5354999 113.6493835 101.9237405  84.8805471 115.3145577
 101.2765320  85.5795420 115.2210054 102.6938421  85.3141615 115.6821826
 105.3316203  95.1454323 118.3896131 105.1801710  94.9164875 117.4726214
 105.3220883  96.1024924 118.4027476 102.1001540  92.7186236 113.3742397
 103.0293600  92.8697395 113.2011364 101.6792570  92.8070256 112.5191044
 100.8989872  96.7436900 111.1440935 100.7600957  96.3755684 112.0166873
 100.1104468  97.2584540 110.9724892 101.4938024 101.8445997 102.4866471
 101.6689779 101.3734040 103.3012094 100.8070812 102.4711763 102.7147732
 102.4495087  96.1218503 108.5329772 102.1144919  96.0819273 109.4287422
 101.9499032  95.4563219 108.0600183  96.4239331  91.5286133 114.0582354
  96.2859129  90.7966372 114.6593893  97.3344254  91.4395033 113.7766541
  99.0521631  91.2406092 113.5466033  99.7621250  90.5999284 113.5052652
  99.0090939  91.4918987 114.4692214 107.0408410  98.1773445 116.4672612
 106.9820956  97.4932666 115.8003196 107.4427928  98.9192435 116.0153238
 107.0425817  96.1413029 114.6986592 106.1552596  95.8038951 114.8212991
 107.6124368  95.4096061 114.9355358 100.5726971 100.8014482 111.6647835
 100.4997142 101.6069453 112.1767140 100.1304364 101.0006448 110.8395857
 100.3616750 100.0386252 105.1750657  99.5784272 100.5807932 105.2688881
 101.0609495 100.5560231 105.5744898 103.6713400  85.8480881 107.8184862
 104.1682100  85.0950844 107.4985933 102.9000382  85.8845198 107.2528072
 111.5243158  91.5521247 109.4603154 111.5133034  92.4345962 109.0897087
 110.6560537  91.1992798 109.2657691 103.0325654 100.7001316 113.8205994
 103.7453626 101.3348781 113.7481895 102.5415683 100.7965182 113.0045996
 104.7543181  94.6052568 105.3923286 103.8199460  94.7254031 105.2227990
 104.9319850  93.7025035 105.1283296 108.1415732  90.4469888 105.9273320
 108.6076185  91.2797879 105.8533622 108.5923233  89.9814869 106.6318578
  98.0837568  98.4495759 114.6411565  98.7847027  99.0832242 114.7940959
  97.6132683  98.7910491 113.8807204 106.2091964  96.7913709 102.9259472
 106.4851807  96.6770304 103.8353346 105.3396462  96.3931194 102.8871645
 106.1132395  82.8150475 109.9664221 105.1995475  83.0454702 110.1346428
 106.5425497  82.8988919 110.8178254 105.8838854  91.0040367 112.4664115
 105.2310304  91.2516274 111.8116568 106.2619234  90.1904505 112.1326592
 102.8446028 101.0400060 106.5692285 103.0268422 100.2221716 107.0320038
 103.6679014 101.2567752 106.1317175 103.1788193  99.9668245 103.8307334
 103.7075959  99.4560700 103.2177496 103.4416413  99.6510775 104.6952867
 101.9326427  91.7460178 118.9530152 101.2567064  91.6454307 119.6232527
 102.7554061  91.5899392 119.4166149  93.6805286  97.9832114 111.5742668
  94.2658723  97.2375802 111.7070572  93.4830124  98.2936071 112.4579331
 100.6749210 103.0527105 113.1887768 101.2267518 103.2158727 113.9536853
 101.0155403 103.6431543 112.5167793  95.1265975  87.4725388 117.4382687
  95.7538014  87.0902465 118.0520212  94.2693894  87.2539589 117.8038380
 105.5260084  97.8788363 119.0436423 106.0699988  98.4918321 118.5491378
 104.9446929  98.4367941 119.5603436 103.8117597 101.0009081 110.1751450
 103.6868736 100.1998821 109.6662396 104.4696688 101.4955274 109.6865420
 105.8752505  98.8018101 111.8031001 104.9282841  98.6823452 111.7309327
 106.2235278  97.9140599 111.8857262  98.2352079  84.6912240 115.6269242
  98.7586480  84.9374536 116.3895552  98.0164412  85.5232275 115.2072380
 102.8798939  98.5970817 108.0035353 102.7323901  97.6687524 108.1842923
 103.7052432  98.6190908 107.5192428 106.4833060  99.4199376 109.0900226
 107.4079608  99.2142237 108.9524677 106.3148364  99.1715777 109.9989567
 100.0921095  82.7175247 111.7646236 100.9147165  82.2435725 111.6425126
 100.3359159  83.4965731 112.2644922 102.8760453  86.4508655 102.9967470
 103.0924067  87.3333293 102.6956298 102.3954520  86.0594868 102.2673112
 101.3282188  86.8334256 111.6672232 101.0699966  87.7551327 111.6656562
 100.7967228  86.4364691 112.3572696 106.2728377  99.9385043 104.4462317
 106.4465254  99.3731466 103.6936169 106.7657268 100.7385938 104.2641807
  92.0905336  91.9499712 112.5125876  91.5458804  92.7259520 112.6446150
  92.9684686  92.2970517 112.3544997 101.7484143  82.9666207 108.0273394
 101.7705840  83.0305540 107.0725374 102.1652202  82.1270715 108.2213900
 112.1267768  92.7021466 106.0652617 112.5698914  91.9528791 105.6671740
 111.2494278  92.6931603 105.6826349 107.2603549  99.2551808 101.5459215
 107.9554454  99.8758500 101.7646530 107.6026699  98.4047159 101.8211593
  92.8771358  91.0769609 115.4056033  92.1353094  91.2252244 115.9920663
  92.5564103  91.3377874 114.5422782 109.1594972  96.7051513 103.0746546
 109.6846296  97.0438786 102.3495866 109.0717325  95.7698528 102.8909681
 100.8215021 100.6185587 115.2036423 101.1302147 100.3734734 116.0759122
 101.6190503 100.8232225 114.7155293 100.8435633 102.7723496 107.4341799
 100.4040623 102.2799875 108.1274656 101.5943750 102.2296464 107.1933874
  98.2909505  98.3161506 109.5064101  97.6689514  97.6532211 109.2066329
  98.9614372  98.3422637 108.8237749  98.3634033  86.7943294 119.0996607
  98.4122188  87.6705416 118.7174376  98.9056547  86.2520687 118.5268250
 108.8488878  97.3384417 118.3797744 108.0584422  97.3208556 117.8402243
 108.6122233  97.8772710 119.1346781 108.9686753  94.1876883 115.6930473
 109.0184758  94.0226891 116.6345995 108.8600677  93.3204142 115.3028353
 106.2590516  90.1707811 117.0089779 107.1600378  90.0314276 116.7173777
 106.3338490  90.3362266 117.9487957 100.5933321  87.5474666 115.8542966
  99.7236630  87.8408232 115.5825554 100.8292801  88.1315111 116.5750229
 110.4704950  96.6073825 115.9372494 110.1789758  96.9703805 116.7735955
 109.8577081  95.8940833 115.7585826 111.6700632  94.1726704 108.4575064
 112.5047524  94.6116509 108.6212625 111.8059761  93.6965358 107.6383310
 108.7192138  91.7306439 114.4052552 109.1946260  91.9234086 113.5971403
 107.7957704  91.7865625 114.1595936 103.2972355  83.7654283 113.3708386
 103.8154299  84.5015310 113.0454874 102.9427488  84.0718276 114.2055145
 103.5484949  80.1854565 108.8909283 103.8286703  79.5177754 109.5169709
 104.3335556  80.3783661 108.3783946 107.4193807  88.6072199 112.6380858
 108.3711230  88.7070297 112.6593082 107.2497258  87.8150468 113.1478942
 105.4408187  85.6927783 112.8240259 104.8458119  85.9732795 112.1286747
 105.1557884  86.1821684 113.5957000 104.5715677  99.6450709 101.5842891
 105.5046350  99.5796271 101.7875767 104.4838890 100.4806976 101.1257424
 107.2003694  98.9616580  98.5446839 107.1217326  98.6276443  99.4382597
 108.0213361  99.4538348  98.5438311 109.8981885  91.8278319 111.7523157
 109.8658205  90.8894320 111.9382841 110.5082509  91.9062356 111.0188982
 110.0476374  88.6189363 111.7981440 109.5315422  87.8347819 111.6111369
 110.9316322  88.2908079 111.9627960 107.7087101  82.3630378 107.7577253
 107.5111922  82.0545466 108.6420585 108.3186806  83.0892017 107.8875183
 115.7158435  92.8894326 110.8929194 116.4461823  92.6279614 111.4536897
 115.1065380  92.1523048 110.9331262 113.7973732  91.0302189 111.4903645
 113.0706896  90.8958153 110.8820137 113.3821019  91.3379017 112.2960363
 101.6203909  94.7492118 119.2551018 102.5406918  94.9270717 119.4491065
 101.5853492  93.8048164 119.1030718  94.6165981  92.6593153 111.8973799
  94.8351991  93.5910261 111.9161833  95.0291755  92.3001127 112.6828603
 101.5370199  83.1661238 103.8849488 100.7270927  82.8208323 104.2604734
 102.2254616  82.8568782 104.4737099 103.4660747  82.2439285 105.5073784
 104.0191786  82.6634738 106.1663808 103.7030834  81.3175033 105.5496740
  99.4893846  88.2326359 121.2876548  99.3890573  89.1820716 121.2188639
  99.2715388  87.9044598 120.4152618 106.8439554  84.3539810 105.0152449
 106.2638223  85.0124614 104.6330501 106.5775487  83.5317155 104.6039866
 105.2943121  83.7544868 107.2173769 105.7942899  83.8661402 106.4088088
 105.9378729  83.4505921 107.8574578  99.3525116  91.6623497 120.1041610
  98.8692198  92.4623858 120.3105499  99.4386056  91.6731442 119.1509054
  95.2798454  95.5528032 112.1410044  96.2341708  95.5211974 112.0739975
  95.0810978  95.0918656 112.9560270  95.8697836  94.1229148 114.7080841
  96.6890725  94.6173227 114.7315679  96.1434644  93.2061116 114.6798409
 105.6264432  86.5139901 104.0708797 104.7390287  86.7989551 103.8528992
 106.0418421  86.3533664 103.2236074 108.9778968  86.5386421 107.7863136
 109.7539359  87.0282874 108.0587753 108.2527103  86.9644476 108.2435006
 111.4151527  87.2514041 108.8437077 112.0096018  87.0109777 108.1330385
 111.4878111  86.5321171 109.4710613 105.6005456  92.0294436 104.2859087
 105.5440657  92.4862988 103.4466720 106.1533799  91.2685121 104.1081930
 109.4110262  87.8184168 105.1109207 109.1547196  87.4180804 105.9417414
 108.7863130  88.5327962 104.9859346 113.7222600  90.5580242 107.6180498
 113.1622158  90.6273431 108.3912060 113.1166103  90.3821226 106.8979994
 106.6794343  96.7167104 100.2155277 107.5139947  96.2848303 100.0332752
 106.5178686  96.5449118 101.1432172 106.3340235  93.2199218 101.5811616
 106.2789039  93.0543489 100.6400060 105.7086291  93.9275251 101.7373806
  91.1232750  88.4567282 115.4073039  91.7691614  87.9466236 115.8960264
  90.9149901  89.1935964 115.9816464 103.6486143  95.5248130 120.9065179
 104.5177302  95.6988782 120.5451814 103.1692894  96.3442546 120.7840908
  97.8172323 102.6445231 112.5854613  98.7199569 102.6768841 112.9021108
  97.5909693 101.7145682 112.6000949  99.5725925 101.3976217 109.2464691
  98.6221556 101.3978079 109.1329064  99.8758411 100.6508952 108.7300726
 103.4588480  79.3150103 105.4142872 102.6920876  78.7608590 105.5599554
 103.8699185  79.3871972 106.2757023  95.4630241  85.6034899 119.5048053
  96.3261703  85.2471704 119.7151377  94.8895652  85.2648794 120.1923457
 115.3078618 107.2336756 110.3110454 115.9457028 107.1143503 109.6073794
 115.1899461 108.1817599 110.3698406 112.1168325 107.1864184 110.2471978
 111.7786836 107.0705248 109.3592513 112.9858093 106.7855349 110.2272985
 107.9755140 109.0399660 106.2368869 107.4120005 108.9489597 105.4685157
 107.8607535 108.2199564 106.7171362 105.5219572 110.5350852 109.0753090
 106.3140864 110.1941676 108.6599389 105.7616222 110.6445827 109.9955243
 113.5554699 112.7070628 101.5483334 112.9042679 113.2924708 101.1617348
 114.3499062 113.2376823 101.6078372 107.4810326 109.7959765 101.9470469
 108.2541202 109.2488752 101.8083344 107.8335725 110.6604014 102.1584930
 110.2451576 108.5012996 111.7438728 110.8415148 108.2769018 111.0295691
 110.3026547 107.7597741 112.3464175 109.8176604 105.9552431  99.5788919
 110.0702125 105.4333952  98.8172382 108.8801163 105.7918576  99.6815602
 114.8619887 104.9588209 107.3863662 115.6482976 104.5407633 107.0354079
 115.1258591 105.8634302 107.5545310 115.0329964 110.3961060 102.0852319
 114.3975797 110.4695686 102.7973223 114.7027371 110.9854658 101.4071398
 120.2628314 104.8963443 108.2896640 120.9953486 104.3262659 108.5234470
 119.5067670 104.5085043 108.7303146 109.5372893 107.8580537 101.7813294
 109.4209151 107.1825440 102.4494378 109.6475153 107.3712911 100.9645447
 111.8804434 107.3190684 105.4859983 111.5162641 106.7921305 106.1972904
 112.7371550 106.9289153 105.3126468 117.7853734  98.6085017 112.7491249
 117.4537059  99.4780428 112.5252464 117.1899348  98.2921301 113.4285279
 111.5209921 102.3480584 100.4821331 111.6884323 103.2160820 100.8491802
 111.3307090 102.5107865  99.5582621 107.7297735 107.2611359 108.1823866
 106.8048232 107.1287574 108.3901558 107.9782148 108.0405579 108.6793809
 117.6782398 103.3280103 109.8284599 116.7699275 103.2595511 109.5343360
 117.6269993 103.8052048 110.6566424 111.4999141 104.8038241 101.4667998
 111.3798767 105.2495292 102.3053478 110.8051730 105.1523559 100.9081536
 105.0906546 106.9044633 109.0167655 105.2198927 107.1579112 109.9307067
 104.4103998 107.4972341 108.6972310 109.2606034 117.5741883 105.1158129
 109.1830063 118.5249708 105.1946610 108.6567677 117.2287755 105.7733056
 119.5444044 101.5296541 111.6062473 118.9018424 101.8229074 110.9602268
 119.0398972 101.4149462 112.4115670 117.1984208 105.2759714 102.2948332
 118.1102064 105.5087101 102.1196030 116.6893855 105.8596759 101.7323411
 111.8356045 104.6356949 113.3043182 112.6817241 105.0596363 113.4477831
 111.7754683 103.9790573 113.9981745 114.5420182 101.4517750 110.5438193
 113.6804661 101.7499004 110.8354931 114.5682617 101.6688149 109.6119226
 111.3581752 109.9959941 106.9511999 111.8220097 110.2747644 106.1616621
 111.0938550 109.0943386 106.7685089 108.2505833 109.5431423 109.8891762
 108.8207190 109.9718691 109.2509246 108.8413945 109.2614007 110.5875948
 110.2950638 106.1183093 103.7601564 110.9974681 106.5704137 104.2275490
 109.9631266 105.4766912 104.3881457 104.0375972 104.3766646 109.0618697
 103.2475026 104.6324175 108.5858808 104.5287219 105.1914984 109.1670738
 105.9890717 104.7411225 106.0202174 105.1921880 104.8529919 106.5385670
 105.7616309 105.0797877 105.1543065 102.3213675 104.6297136 111.4933688
 102.5721713 105.5144146 111.7591264 102.8573223 104.4501738 110.7208780
 111.5344402 112.9324036 103.8363669 111.3990077 113.7775572 104.2648517
 112.0754215 113.1343314 103.0729603 104.9873800 110.4499474 104.4091594
 105.4998320 111.2442724 104.5597159 105.6396513 109.7525764 104.3425196
 106.7968685 113.5665230 106.4914347 106.9735313 114.4883195 106.3035331
 107.5925518 113.2523649 106.9208727 106.0821041 105.6129862 116.3676511
 105.9674556 104.7115119 116.6683609 105.2265559 105.8593559 116.0161327
 114.8836866  96.4554598 112.3662563 114.5401135  97.3456240 112.2901673
 115.2515829  96.2656255 111.5032148 102.9522717 108.7788128 105.1851165
 103.7897939 109.1885137 104.9684872 103.1300984 107.8387570 105.1551359
 114.8487149 106.4463209 100.8734998 114.3333772 107.2167814 101.1123385
 114.5764457 105.7728345 101.4968059 112.4334260 101.2912910 105.9320236
 111.5775856 100.9019760 105.7525875 112.8461212 101.3704871 105.0720022
 113.9633406  98.8259253 110.3311796 113.4598202  98.7889388 109.5179601
 114.2564013  99.7351996 110.3908452 110.2076292  98.9097983 109.3377978
 111.0729289  98.7140791 108.9783867 110.2753801  98.6808334 110.2647334
 119.8221423 109.1995564 102.8088171 119.0450866 108.8606723 102.3643333
 120.5012904 109.2048187 102.1343136 114.6373452 104.3190301 102.6994779
 114.3323588 104.6336450 103.5504922 115.5903894 104.3971721 102.7422112
 113.0819884 110.4780524 104.3487733 112.5541245 109.7433284 104.0360970
 112.5807387 111.2555201 104.1027701 107.8138611 101.1400191 106.7094344
 108.3882363 100.9175372 105.9767537 108.4009594 101.2088885 107.4622946
 116.8718189 107.0273918 107.5158721 117.3850070 107.6603909 108.0180431
 117.5219412 106.4275113 107.1502081 108.1408199 103.1704652 100.7290230
 107.3045511 103.5079338 101.0499504 108.0012968 103.0353631  99.7917367
 110.1161279  98.0141440 105.4369414 109.4625691  97.6990457 104.8126029
 110.0741753  97.3917180 106.1629237 111.2272484 108.2960735  97.3522706
 110.3199546 108.0649988  97.5513855 111.7243516 107.4998354  97.5396687
 114.1340563 117.0058242 100.2719392 113.4602262 117.3089939 100.8804350
 114.5206385 117.8087322  99.9224849 113.3499019 104.5023373 109.7617061
 112.4321581 104.7238320 109.6038749 113.7659163 104.5769684 108.9028769
 114.1334067 105.9014789 104.8919742 114.8805886 106.4136186 104.5826864
 114.4025657 105.5798841 105.7524135 112.4060717 108.3973329 101.8746696
 111.4971937 108.1132362 101.9719166 112.4355801 108.8172408 101.0150003
 117.6379985 112.0079919 105.6437864 117.1842312 111.1670829 105.7003054
 117.0073952 112.6441317 105.9812644 116.5812904 102.9371905 106.8738531
 115.8435661 102.4249291 107.2048774 116.8339678 102.4972287 106.0621808
 116.0812924 113.8456416 106.5787682 116.3735898 114.4061473 105.8600047
 116.5911545 114.1384977 107.3340841 116.6824532  95.7148157 107.4680300
 116.9883409  94.8545520 107.1806215 117.4077137  96.3065777 107.2679294
 102.9748888 106.1178844 105.8561898 102.7773288 105.5248204 105.1312965
 102.4195552 105.8131054 106.5737837 110.9545611 106.0101950 107.9756491
 111.0094221 105.0575786 107.8998968 110.1436813 106.1661389 108.4597790
 112.1036805 109.9382073  99.2134775 111.6656235 109.2217932  98.7540412
 112.8447246 110.1658188  98.6519866 108.8937971 104.6279010 105.7346870
 108.0805837 104.9273180 106.1412062 109.3896966 104.2334699 106.4521352
 111.0446549 114.6236767 107.6681135 111.0022728 114.8497613 106.7389667
 111.9609248 114.3900141 107.8166936 120.2209920 108.2139270 105.2711093
 120.0827819 108.4040866 104.3432282 119.8646139 108.9758653 105.7279144
 108.3852046 102.1997365 111.3508105 109.0251425 102.0586124 110.6531068
 107.5529577 101.9131879 110.9746707 109.1612350 111.4999796 107.4643098
 109.9552949 111.0050116 107.2625673 108.4504042 110.9717659 107.1010803
 105.4695113 105.6442878 103.5402850 104.5392702 105.5827333 103.7572812
 105.5652585 105.1218830 102.7439492 105.3880663 102.1697690 106.1281092
 105.6487480 103.0843024 106.0190252 106.2097835 101.7022133 106.2777705
 106.8605588 103.5835448 113.2979916 107.5328641 103.3752810 112.6492565
 106.0335374 103.3857534 112.8585149 112.7631160 100.2097388 115.3145577
 112.1159075 100.9087338 115.2210054 113.5332175 100.6433532 115.6821826
 112.3331778 117.1737914 102.4866471 112.5083534 116.7025957 103.3012094
 111.6464566 117.8003680 102.7147732 113.2888841 111.4510420 108.5329772
 112.9538674 111.4111190 109.4287422 112.7892787 110.7855136 108.0600183
 107.2633085 106.8578050 114.0582354 107.1252883 106.1258289 114.6593893
 108.1738009 106.7686951 113.7766541 116.2248033 108.7966455  98.8066832
 115.6077203 108.0713283  98.7099885 115.7564521 109.5575815  98.4633906
 109.8915386 106.5698010 113.5466033 110.6015004 105.9291202 113.5052652
 109.8484694 106.8210905 114.4692214 108.6044320 103.5563228 115.3661673
 108.0681677 103.1053966 116.0183269 108.0161028 103.6909137 114.6232137
  99.5348719 107.8029039 108.0229644 100.2219759 107.4890769 107.4350659
  99.3796848 108.7070403 107.7496895 104.3383441 102.6919235 112.4514667
 104.2541630 102.0844905 111.7165077 103.5166147 103.1828254 112.4524164
 111.2010505 115.3678169 105.1750657 110.4178027 115.9099850 105.2688881
 111.9003250 115.8852149 105.5744898 114.5107155 101.1772799 107.8184862
 115.0075854 100.4242761 107.4985933 113.7394136 101.2137116 107.2528072
 115.5936936 109.9344486 105.3923286 114.6593214 110.0545949 105.2227990
 115.7713604 109.0316953 105.1283296 111.0942124 103.3190182 107.5456547
 110.7239911 102.7661222 108.2337452 111.5901216 102.7148315 106.9931547
 118.9809487 105.7761805 105.9273320 119.4469939 106.6089797 105.8533622
 119.4316987 105.3106787 106.6318578 117.0485718 112.1205627 102.9259472
 117.3245562 112.0062221 103.8353346 116.1790217 111.7223112 102.8871645
 116.9526150  98.1442392 109.9664221 116.0389229  98.3746619 110.1346428
 117.3819251  98.2280836 110.8178254 113.6839782 116.3691978 106.5692285
 113.8662177 115.5513633 107.0320038 114.5072768 116.5859670 106.1317175
 114.0181948 115.2960163 103.8307334 114.5469714 114.7852617 103.2177496
 114.2810167 114.9802693 104.6952867 104.5199040 113.3124032 111.5742668
 105.1052477 112.5667720 111.7070572 104.3223879 113.6227989 112.4579331
 107.3737695 116.3475279 106.5905110 106.7048071 116.8321407 106.1069150
 107.2350565 116.5944500 107.5048488  99.1116695 105.8829632 110.2947111
  99.1500795 105.3493223 111.0884229  98.6056988 105.3564838 109.6758088
 106.4907457 100.7294173 113.7909653 106.5548784 101.5909004 113.3787051
 106.4274578 100.1168174 113.0582011 105.9659730 102.8017305 117.4382687
 106.5931769 102.4194383 118.0520212 105.1087649 102.5831507 117.8038380
 102.7425273 104.6093734 103.3701042 103.0378714 103.7004413 103.3168096
 101.8413308 104.5881474 103.0482044 106.2719520 102.6849731 109.3528591
 105.5506105 103.2985699 109.2136064 107.0612775 103.2207496 109.2745237
 109.0745833 100.0204157 115.6269242 109.5980235 100.2666454 116.3895552
 108.8558166 100.8524192 115.2072380 104.4713114 102.2907832 103.4940367
 104.1425820 101.4105211 103.3115473 104.8252485 102.2355501 104.3816756
 113.7192693 113.9262735 108.0035353 113.5717655 112.9979442 108.1842923
 114.5446187 113.9482825 107.5192428 107.5854937 102.5780802 103.8615845
 107.9251010 103.1066723 103.1394453 108.0327058 102.9161208 104.6374411
 110.2798378 100.9617853 113.3118913 109.9395198 100.1625666 113.7139593
 109.5737384 101.2619563 112.7395746 110.9314850  98.0467165 111.7646236
 111.7540919  97.5727643 111.6425126 111.1752913  98.8257649 112.2644922
 109.5723084 101.0755423 102.0609138 110.2931447 101.4536676 101.5572855
 108.9488389 101.7944300 102.1644116 113.7154207 101.7800572 102.9967470
 113.9317822 102.6625210 102.6956298 113.2348274 101.3886786 102.2673112
 108.4553429 104.7386286 109.5738215 108.3098009 105.0526589 110.4662496
 107.9778632 105.3571186 109.0209113 110.3149812 101.7288834 109.6219104
 110.3011380 100.8329927 109.2851402 111.0322240 101.7359497 110.2557390
 112.1675942 102.1626174 111.6672232 111.9093720 103.0843244 111.6656562
 111.6360983 101.7656608 112.3572696 117.1122131 115.2676961 104.4462317
 117.2859009 114.7023383 103.6936169 117.6051022 116.0677856 104.2641807
 102.9299091 107.2791630 112.5125876 102.3852559 108.0551438 112.6446150
 103.8078441 107.6262434 112.3544997 109.7186708 100.6103214 104.8906674
 109.8402619  99.6819860 105.0897562 109.4288750 100.6241900 103.9784990
 112.5877898  98.2958124 108.0273394 112.6099595  98.3597457 107.0725374
 113.0045957  97.4562633 108.2213900 122.9661522 108.0313384 106.0652617
 123.4092668 107.2820709 105.6671740 122.0888033 108.0223520 105.6826349
 118.0997304 114.5843725 101.5459215 118.7948208 115.2050418 101.7646530
 118.4420454 113.7339077 101.8211593 103.7165113 106.4061526 115.4056033
 102.9746849 106.5544162 115.9920663 103.3957857 106.6669792 114.5422782
 119.9988727 112.0343431 103.0746546 120.5240051 112.3730704 102.3495866
 119.9111079 111.0990446 102.8909681 104.1621726 114.2926955 107.4366427
 104.9879746 113.9930727 107.0565071 103.8115778 113.5234577 107.8856216
 109.1303260 113.6453423 109.5064101 108.5083269 112.9824128 109.2066329
 109.8008126 113.6714555 108.8237749 102.3630331 112.2113281 108.3955361
 101.5262240 111.7835456 108.2139362 102.3353977 112.4045725 109.3326152
 108.6916766 112.1957347 102.9822561 108.8404887 112.8792811 102.3289234
 109.4983210 112.1762437 103.4972017 106.4469399 108.2222524 103.9883630
 106.2015441 107.3184854 104.1863840 106.6165314 108.2239675 103.0463108
 114.1366109  99.0946201 113.3708386 114.6548053  99.8307227 113.0454874
 113.7821242  99.4010194 114.2055145 114.3878704  95.5146483 108.8909283
 114.6680457  94.8469672 109.5169709 115.1729310  95.7075579 108.3783946
 112.1912172 114.6905477 100.4534309 111.6186139 115.3095664 100.0004781
 112.7644966 115.2404839 100.9874231 116.2801941 101.0219700 112.8240259
 115.6851873 101.3024713 112.1286747 115.9951638 101.5113601 113.5957000
 115.4109432 114.9742627 101.5842891 116.3440105 114.9088189 101.7875767
 115.3232645 115.8098894 101.1257424 118.0397448 114.2908497  98.5446839
 117.9611080 113.9568361  99.4382597 118.8607115 114.7830265  98.5438311
 112.5758971 106.0266290  97.7950361 113.5218075 105.8972498  97.8638779
 112.1973215 105.2880952  98.2719789 118.5480855  97.6922296 107.7577253
 118.3505676  97.3837384 108.6420585 119.1580561  98.4183935 107.8875183
 110.7601888 103.9516266  97.7305247 109.8533343 103.6549379  97.8067960
 111.0377869 103.6546084  96.8639533 101.6779828 105.2722630 108.1804293
 101.3582612 104.4187938 107.8878667 101.1313256 105.4871208 108.9362260
 105.4559736 107.9885071 111.8973799 105.6745745 108.9202178 111.9161833
 105.8685509 107.6293045 112.6828603 112.3763953  98.4953156 103.8849488
 111.5664682  98.1500241 104.2604734 113.0648370  98.1860700 104.4737099
 114.3054502  97.5731203 105.5073784 114.8585540  97.9926656 106.1663808
 114.5424588  96.6466951 105.5496740 109.5300672 100.8103201  97.8717226
 110.3919836 101.1358100  98.1313043 109.7151016 100.0234697  97.3590292
 101.5468088 108.8925541 110.1497415 100.8531559 108.4779494 109.6367369
 102.2941079 108.9346078 109.5530833 117.6833309  99.6831728 105.0152449
 117.1031978 100.3416532 104.6330501 117.4169241  98.8609072 104.6039866
 116.1336875  99.0836786 107.2173769 116.6336654  99.1953320 106.4088088
 116.7772483  98.7797838 107.8574578 103.4604831 108.8243795 108.0263429
 103.4375519 108.9231482 107.0745313 103.7705467 109.6708946 108.3480596
 106.1192208 110.8819950 112.1410044 107.0735462 110.8503892 112.0739975
 105.9204732 110.4210574 112.9560270 116.4658187 101.8431818 104.0708797
 115.5784042 102.1281469 103.8528992 116.8812176 101.6825582 103.2236074
 119.8172723 101.8678339 107.7863136 120.5933113 102.3574792 108.0587753
 119.0920857 102.2936393 108.2435006 122.2545282 102.5805958 108.8437077
 122.8489772 102.3401694 108.1330385 122.3271865 101.8613089 109.4710613
 104.4742437 116.4239569 109.1580242 104.3396905 115.6639970 108.5918240
 104.0574500 117.1480469 108.6909031 115.6101400 111.6076493  98.1656817
 116.3137250 111.8126495  98.7814473 114.8864049 112.1753255  98.4305901
 116.4399211 107.3586354 104.2859087 116.3834412 107.8154906 103.4466720
 116.9927553 106.5977039 104.1081930 120.2504016 103.1476086 105.1109207
 119.9940951 102.7472722 105.9417414 119.6256884 103.8619880 104.9859346
 124.5616354 105.8872159 107.6180498 124.0015912 105.9565349 108.3912060
 123.9559858 105.7113144 106.8979994 117.5188098 112.0459022 100.2155277
 118.3533702 111.6140221 100.0332752 117.3572441 111.8741036 101.1432172
 117.1733990 108.5491135 101.5811616 117.1182794 108.3835407 100.6400060
 116.5480045 109.2567168 101.7373806 101.9626505 103.7859200 115.4073039
 102.6085368 103.2758154 115.8960264 101.7543656 104.5227881 115.9816464
 110.4830115  98.0499244 101.1596935 110.4708785  98.9941084 101.3165206
 111.3753537  97.8669390 100.8656396 114.2982235  94.6442021 105.4142872
 113.5314631  94.0900508 105.5599554 114.7092940  94.7163890 106.2757023
 120.6570358 121.2844349  99.5788919 120.9095879 120.7625870  98.8172382
 119.7194918 121.1210494  99.6815602 122.3603675 117.6772501 100.4821331
 122.5278077 118.5452738 100.8491802 122.1700844 117.8399783  99.5582621
 118.9801953 118.4996569 100.7290230 118.1439265 118.8371256 101.0499504
 118.8406723 118.3645549  99.7917367 120.9555034 113.3433357 105.4369414
 120.3019446 113.0282374 104.8126029 120.9135508 112.7209098 106.1629237
 122.0666238 123.6252652  97.3522706 121.1593300 123.3941906  97.5513855
 122.5637270 122.8290272  97.5396687 116.3088868 120.9734795 103.5402850
 115.3786456 120.9119251 103.7572812 116.4046340 120.4510748 102.7439492
 118.8540333 118.3443797  97.9288136 117.9769800 118.2232598  97.5650383
 119.3298086 117.5529875  97.6767025 113.5819027 119.9385652 103.3701042
 113.8772468 119.0296330 103.3168096 112.6807063 119.9173391 103.0482044
 115.3106869 117.6199750 103.4940367 114.9819575 116.7397129 103.3115473
 115.6646239 117.5647418 104.3816756 120.4116839 116.4047341 102.0609138
 121.1325201 116.7828594 101.5572855 119.7882143 117.1236218 102.1644116
 120.5580462 115.9395132 104.8906674 120.6796373 115.0111778 105.0897562
 120.2682504 115.9533818 103.9784990 116.5558801 119.2842799 101.4869792
 115.8628046 119.3587154 100.8309828 116.3110553 118.5203143 102.0091309
 123.4152725 121.3558207  97.7950361 124.3611830 121.2264416  97.8638779
 123.0366970 120.6172869  98.2719789 121.5995642 119.2808184  97.7305247
 120.6927098 118.9841297  97.8067960 121.8771623 118.9838002  96.8639533
 123.2157708 113.8245074 103.8849488 122.4058436 113.4792158 104.2604734
 123.9042125 113.5152617 104.4737099 120.3694427 116.1395119  97.8717226
 121.2313591 116.4650017  98.1313043 120.5544771 115.3526615  97.3590292
 121.3223870 113.3791162 101.1596935 121.3102540 114.3233002 101.3165206
 122.2147292 113.1961307 100.8656396 125.1375989 109.9733939 105.4142872
 124.3708385 109.4192425 105.5599554 125.5486694 110.0455807 106.2757023
  50.2716093  -7.7352628  97.0355760  50.9094503  -7.8545881  96.3319101
  50.1536935  -6.7871784  97.0943713  47.0805799  -7.7825200  96.9717285
  46.7424310  -7.8984135  96.0837820  47.9495567  -8.1834035  96.9518291
  42.9392615  -5.9289723  92.9614176  42.3757480  -6.0199787  92.1930464
  42.8245010  -6.7489819  93.4416669  40.4857046  -4.4338532  95.7998397
  41.2778338  -4.7747707  95.3844696  40.7253697  -4.3243557  96.7200550
  48.5192173  -2.2618756  88.2728641  47.8680153  -1.6764675  87.8862655
  49.3136536  -1.7312561  88.3323678  42.4447800  -5.1729619  88.6715775
  43.2178676  -5.7200632  88.5328651  42.7973199  -4.3085369  88.8830237
  45.2089050  -6.4676388  98.4684034  45.8052622  -6.6920365  97.7540997
  45.2664021  -7.2091642  99.0709482  44.7814078  -9.0136952  86.3034225
  45.0339599  -9.5355431  85.5417688  43.8438637  -9.1770807  86.4060909
  49.9967438  -4.5728324  88.8097625  49.3613271  -4.4993697  89.5218530
  49.6664845  -3.9834725  88.1316705  44.5010367  -7.1108847  88.5058600
  44.3846625  -7.7863943  89.1739685  44.6112627  -7.5976473  87.6890753
  46.8441908  -7.6498699  92.2105289  46.4800115  -8.1768078  92.9218211
  47.7009024  -8.0400230  92.0371775  49.2422728  -4.1591821  98.8732468
  48.9423451  -3.2566782  98.7648276  48.8973788  -4.4259638  99.7253621
  42.6935210  -7.7078024  94.9069173  41.7685706  -7.8401810  95.1146865
  42.9419623  -6.9283805  95.4039115  46.4636616 -10.1651142  88.1913305
  46.3436241  -9.7194091  89.0298785  45.7689204  -9.8165825  87.6326843
  44.2243508   2.6052500  91.8403436  44.1467538   3.5560325  91.9191917
  43.6205151   2.2598372  92.4978362  50.7691264  -4.7103851  96.4107220
  50.1400127  -4.5458136  95.7083288  50.3816926  -4.2962241  97.1818184
  54.6480496  -3.7749413  93.7651584  53.9631534  -3.3950511  93.2148617
  54.7324345  -3.1654086  94.4983532  51.9031428  -6.1289454 100.3646928
  52.1148323  -5.4857694  99.6881309  51.8561176  -6.9627137  99.8968858
  46.3219226  -4.9729442  93.6757305  46.7857572  -4.6941740  92.8861928
  46.0576024  -5.8745998  93.4930396  43.2143307  -5.4257961  96.6137069
  43.7844664  -4.9970693  95.9754553  43.8051419  -5.7075376  97.3121254
  45.2588112  -8.8506290  90.4846871  45.9612156  -8.3985246  90.9520797
  44.9268741  -9.4922471  91.1126764  53.0177256  -3.2517498  98.5369285
  53.8394699  -3.6537311  98.2551967  53.0139659  -3.3549264  99.4885401
  46.7833859  -3.7033455 100.6929995  46.8478292  -3.2413048 101.5288167
  46.0744783  -4.3336090 100.8212305  46.4981877  -2.0365348  90.5608976
  46.3627552  -1.1913812  90.9893824  47.0391689  -1.8346070  89.7974910
  39.9511274  -4.5189909  91.1336901  40.4635795  -3.7246659  91.2842466
  40.6033987  -5.2163619  91.0670502  41.7606159  -1.4024153  93.2159654
  41.9372787  -0.4806188  93.0280638  42.5562992  -1.7165734  93.6454034
  42.8837474   0.1154021  99.2169996  43.4344899  -0.0128916  98.4446990
  42.0448950   0.4148910  98.8664889  50.2231591  -1.1338981 102.7190719
  50.2050067  -0.3130100 102.2270988  51.1451511  -1.2584906 102.9440860
  49.8124623  -8.5226175  87.5980304  49.2971247  -7.7521570  87.8368692
  49.5401932  -9.1961038  88.2213366  54.7858897  -5.7693820  89.5333478
  54.0088340  -6.1082660  89.0888640  55.4650378  -5.7641197  88.8588443
  48.0457358  -4.4908859  91.0733039  47.5178720  -5.2256100  90.7606277
  47.5444861  -3.7134183  90.8273008  53.0250204  -6.2959839  96.1900086
  52.3673879  -5.6060577  96.2780214  53.8290603  -5.9063407  96.5334072
  51.8355663  -7.9415466  94.2404028  52.3487545  -7.3085474  94.7425737
  52.4856887  -8.5414270  93.8747388  46.1909958  -6.6728649  84.0768012
  45.2837020  -6.9039395  84.2759161  46.6880990  -7.4691030  84.2641994
  49.0978037   2.0368858  86.9964699  48.4239736   2.3400555  87.6049656
  49.4843859   2.8397939  86.6470156  48.3136494 -10.4666010  96.4862368
  47.3959055 -10.2451063  96.3284056  48.7296637 -10.3919700  95.6274075
  49.0971542  -9.0674595  91.6165048  49.8443360  -8.5553197  91.3072170
  49.3663131  -9.3890542  92.4769442  47.3698192  -6.5716054  88.5992003
  46.4609411  -6.8557021  88.6964472  47.3993276  -6.1516975  87.7395309
  52.6017459  -2.9609464  92.3683170  52.1479786  -3.8018555  92.4248361
  51.9711426  -2.3248066  92.7057950  51.0450398  -1.1232968  93.3032988
  51.3373373  -0.5627911  92.5845354  51.5549019  -0.8304407  94.0586147
  45.9183086  -8.9587433  94.7001798  45.9731696  -9.9113597  94.6244275
  45.1074288  -8.8027994  95.1843096  47.0674280  -5.0307310  85.9380081
  46.6293709  -5.7471451  85.4785719  47.8084720  -4.8031195  85.3765173
  46.0084024  -0.3452617  94.3926442  45.9660202  -0.1191770  93.4634974
  46.9246722  -0.5789242  94.5412243  55.1847394  -6.7550113  91.9956400
  55.0465293  -6.5648517  91.0677589  54.8283613  -5.9930730  92.4524451
  55.2116774  -4.6873586  97.0067671  55.6453281  -4.7798297  97.8550725
  55.9248355  -4.7116086  96.3687687  44.1249824  -3.4689588  94.1888404
  44.9190423  -3.9639268  93.9870979  43.4141517  -3.9971725  93.8256110
  48.9444669  -1.0871492  98.5400772  48.9981691  -0.5180556  99.3078488
  48.0759450  -0.9169607  98.1754809  56.0732323  -4.6449886  99.5400557
  56.2668214  -3.7404075  99.7859832  55.9732942  -5.1042467 100.3739142
  47.9032769  -6.9211230 100.0987704  48.8324829  -6.7700071  99.9256671
  47.4823799  -6.8327209  99.2436350  46.7021100  -2.8960566  97.8686241
  46.5632186  -3.2641781  98.7412179  45.9135697  -2.3812926  97.6970199
  47.2969252   2.2048531  89.2111778  47.4721008   1.7336574  90.0257401
  46.6102040   2.8314297  89.4393039  48.2526315  -3.5178963  95.2575079
  47.9176148  -3.5578193  96.1532729  47.7530261  -4.1834247  94.7845489
  51.1885507  -6.1722929  85.5312139  50.5714678  -6.8976100  85.4345191
  50.7201996  -5.4113568  85.1879213  52.8439639  -1.4624020 103.1917919
  52.7852185  -2.1464800 102.5248502  53.2459157  -0.7205030 102.7398545
  41.8630338   5.3537894  95.9851638  42.1026936   5.9856418  96.6630657
  41.0199534   5.0025934  96.2716997  52.8457046  -3.4984436 101.4231899
  51.9583825  -3.8358515 101.5458298  53.4155597  -4.2301405 101.6600664
  46.3758199   1.1617016  98.3893142  46.3028371   1.9671987  98.9012447
  45.9335593   1.3608982  97.5641163  46.1647979   0.3988786  91.8995964
  45.3815501   0.9410466  91.9934188  46.8640724   0.9162766  92.2990205
  48.8356883   1.0603850 100.5451301  49.5484855   1.6951315 100.4727202
  48.3446912   1.1567716  99.7291302  50.5574410  -5.0344897  92.1168592
  49.6230689  -4.9143435  91.9473297  50.7351078  -5.9372431  91.8528602
  43.8868797  -1.1901707 101.3656871  44.5878256  -0.5565224 101.5186266
  43.4163912  -0.8486975 100.6052511  52.0123192  -2.8483757  89.6504779
  52.2883036  -2.9627162  90.5598653  51.1427691  -3.2466272  89.6116952
  51.6870082  -8.6357099  99.1909422  51.0341533  -8.3881192  98.5361875
  52.0650462  -9.4492961  98.8571899  48.6477256   1.4002594  93.2937592
  48.8299651   0.5824250  93.7565344  49.4710242   1.6170286  92.8562482
  48.9819422   0.3270779  90.5552641  49.5107188  -0.1836766  89.9422803
  49.2447641   0.0113309  91.4198174  39.4836515  -1.6565351  98.2987974
  40.0689951  -2.4021664  98.4315878  39.2861353  -1.3461395  99.1824638
  42.3375170   1.3785896  93.3150417  41.6685545   1.8632024  92.8314457
  42.1988039   1.6255116  94.2293795  46.4780438   3.4129639  99.9133075
  47.0298746   3.5761261 100.6782160  46.8186632   4.0034077  99.2413100
  49.6148826   1.3611615  96.8996757  49.4899965   0.5601355  96.3907703
  50.2727917   1.8557808  96.4110727  51.6783734  -0.8379365  98.5276307
  50.7314070  -0.9574014  98.4554634  52.0266507  -1.7256867  98.6102569
  48.6830167  -1.0426649  94.7280659  48.5355130  -1.9709941  94.9088229
  49.5083661  -1.0206558  94.2437735  52.2864289  -0.2198090  95.8145532
  53.2110837  -0.4255229  95.6769983  52.1179593  -0.4681689  96.7234874
  52.0759605   0.2987577  91.1707624  52.2496483  -0.2666000  90.4181476
  52.5688497   1.0988472  90.9887114  53.0634778  -0.3845658  88.2704522
  53.7585683   0.2361035  88.4891837  53.4057928  -1.2350307  88.5456900
  54.9626201  -2.9345953  89.7991853  55.4877525  -2.5958680  89.0741173
  54.8748554  -3.8698937  89.6154987  46.6246250   0.9788121 101.9281729
  46.9333376   0.7337268 102.8004429  47.4221732   1.1834759 101.4400600
  46.6466862   3.1326031  94.1587106  46.2071852   2.6402409  94.8519963
  47.3974979   2.5898998  93.9179181  39.1259201  -0.6762428  94.1611734
  39.9517221  -0.9758657  93.7810377  38.7753253  -1.4454806  94.6101523
  44.0940734  -1.3235960  96.2309408  43.4720743  -1.9865255  95.9311635
  44.7645601  -1.2974828  95.5483055  37.3267806  -2.7576102  95.1200668
  36.4899714  -3.1853928  94.9384669  37.2991451  -2.5643659  96.0571459
  54.6520107  -2.3013049 105.1043051  53.8615651  -2.3188910 104.5647550
  54.4153462  -1.7624755 105.8592087  54.7717982  -5.4520583 102.4175779
  54.8215987  -5.6170575 103.3591302  54.6631905  -6.3193324 102.0273660
  43.6554241  -2.7732037  89.7067868  43.8042361  -2.0896573  89.0534541
  44.4620684  -2.7926947  90.2217324  56.2736179  -3.0323641 102.6617801
  55.9820987  -2.6693661 103.4981262  55.6608310  -3.7456633 102.4831133
  57.4731861  -5.4670761  95.1820371  58.3078753  -5.0280957  95.3457931
  57.6090990  -5.9432108  94.3628617  54.5223367  -7.9091026 101.1297859
  54.9977489  -7.7163380 100.3216710  53.5988933  -7.8531841 100.8841242
  41.4106874  -6.7466859  90.7128937  41.1652916  -7.6504529  90.9109147
  41.5802788  -6.7449709  89.7708415  47.1549646  -0.2783906  87.1779615
  46.5823613   0.3406281  86.7250087  47.7282440   0.2715455  87.7119537
  50.3746906   0.0053244  88.3088198  51.3077579  -0.0601195  88.5121073
  50.2870119   0.8409511  87.8502730  53.0034923  -0.6780886  85.2692145
  52.9248554  -1.0121022  86.1627903  53.8244590  -0.1859118  85.2683618
  47.5396445  -8.9423094  84.5195668  48.4855550  -9.0716886  84.5884086
  47.1610690  -9.6808432  84.9965096  38.4242305  -6.1445589  94.7508736
  38.4012993  -6.0457901  93.7990619  38.7342941  -5.2980438  95.0725902
  39.4379912   1.4550186  95.8825548  39.3034379   0.6950587  95.3163546
  39.0211974   2.1791086  95.4154337  50.5738875  -3.3612891  84.8902124
  51.2774725  -3.1562888  85.5059779  49.8501523  -2.7936129  85.1551207
  51.4036685  -7.6103029  91.0104394  51.3471886  -7.1534478  90.1712026
  51.9565027  -8.3712345  90.8327237  42.5949037   2.3519503  96.0943991
  42.4781422   3.2964935  95.9922681  41.7741484   2.0493064  96.4829790
  52.4825572  -2.9230361  86.9400584  53.3171176  -3.3549163  86.7578058
  52.3209915  -3.0948348  87.8677478  52.1371464  -6.4198248  88.3056923
  52.0820268  -6.5853977  87.3645367  51.5117519  -5.7122215  88.4619113
  43.6203552   3.0047765  99.3099919  44.5230798   3.0371375  99.6266414
  43.3940922   2.0748216  99.3246255  45.3757154   1.7578751  95.9709998
  44.4252785   1.7580613  95.8574370  45.6789640   1.0111486  95.4546033
  61.1109847   7.5939290  97.0355760  61.7488257   7.4746037  96.3319101
  60.9930690   8.5420134  97.0943713  57.9199553   7.5466718  96.9717285
  57.5818065   7.4307783  96.0837820  58.7889322   7.1457883  96.9518291
  53.7786369   9.4002194  92.9614176  53.2151234   9.3092131  92.1930464
  53.6638764   8.5802099  93.4416669  58.4019336   8.7001570 102.9303491
  58.3907977   8.3054368 102.0583994  58.5639976   7.9667642 103.5237262
  51.3250801  10.8953386  95.7998397  52.1172093  10.5544210  95.3844696
  51.5647451  11.0048361  96.7200550  59.3585928  13.0673162  88.2728641
  58.7073908  13.6527242  87.8862655  60.1530291  13.5979357  88.3323678
  53.2841555  10.1562299  88.6715775  54.0572431   9.6091286  88.5328651
  53.6366954  11.0206548  88.8830237  55.1226597  11.4838681 101.8782675
  54.8316463  12.3884312 101.7629341  55.7583582  11.5255209 102.5926744
  56.0482804   8.8615530  98.4684034  56.6446377   8.6371552  97.7540997
  56.1057776   8.1200275  99.0709482  55.6207833   6.3154965  86.3034225
  55.8733353   5.7936486  85.5417688  54.6832392   6.1521111  86.4060909
  60.6651116   5.3190744  94.1108968  61.4514205   4.9010167  93.7599385
  60.9289820   6.2236836  94.2790617  60.8361193  10.7563594  88.8097625
  60.2007026  10.8298220  89.5218530  60.5058599  11.3457193  88.1316705
  66.0659543   5.2565977  95.0141947  66.7984715   4.6865194  95.2479776
  65.3098898   4.8687577  95.4548453  55.3404121   8.2183071  88.5058600
  55.2240380   7.5427975  89.1739685  55.4506381   7.7315445  87.6890753
  57.6835662   7.6793218  92.2105289  57.3193870   7.1523839  92.9218211
  58.5402778   7.2891687  92.0371775  63.5884963  -1.0312449  99.4736556
  63.2568288  -0.1617038  99.2497771  62.9930576  -1.3476165 100.1530586
  57.3241149   2.7083118  87.2066638  57.4915552   3.5763354  87.5737109
  57.1338318   2.8710400  86.2827927  60.0816483  11.1700097  98.8732468
  59.7817206  12.0725136  98.7648276  59.7367542  10.9032280  99.7253621
  53.5328964   7.6213894  94.9069173  52.6079461   7.4890108  95.1146865
  53.7813377   8.4008113  95.4039115  63.4813626   3.6882637  96.5529906
  62.5730504   3.6198045  96.2588667  63.4301222   4.1654582  97.3811731
  57.3030370   5.1640775  88.1913305  57.1829995   5.6097826  89.0298785
  56.6082959   5.5126093  87.6326843  50.8937775   7.2647167  95.7412962
  51.0230156   7.5181646  96.6552374  50.2135226   7.8574875  95.4217617
  55.0637262  17.9344417  91.8403436  54.9861292  18.8852242  91.9191917
  54.4598906  17.5890290  92.4978362  57.5554492   5.1072283 104.4964803
  56.7787826   5.6666203 104.4867668  58.1945055   5.5929066 105.0179673
  65.3475273   1.8899075  98.3307780  64.7049653   2.1831609  97.6847574
  64.8430201   1.7751996  99.1360976  63.0015436   5.6362249  89.0193639
  63.9133293   5.8689635  88.8441336  62.4925083   6.2199293  88.4568717
  55.8100864   7.9157736 104.0582770  56.5515549   8.4542780 103.7817594
  55.1037850   8.5424025 104.2154322  61.2856204  10.0586876 102.6554931
  61.6939560   9.6169287 101.9109564  60.5633466   9.4839504 102.9089124
  57.6387274   4.9959483 100.0288488  58.4848469   5.4198897 100.1723137
  57.5785912   4.3393108 100.7227051  61.6085019  10.6188067  96.4107220
  60.9793881  10.7833781  95.7083288  61.2210681  11.0329677  97.1818184
  65.4874251  11.5542505  93.7651584  64.8025289  11.9341406  93.2148617
  65.5718100  12.1637832  94.4983532  60.7886719   2.6563852 101.6869662
  60.5447651   3.4105912 101.1503938  61.0646650   3.0349199 102.5216909
  62.7425182   9.2002464 100.3646928  62.9542077   9.8434224  99.6881309
  62.6954930   8.3664781  99.8968858  60.3451411   1.8120285  97.2683500
  59.4835890   2.1101538  97.5600237  60.3713846   2.0290684  96.3364532
  57.1612981  10.3562475  93.6757305  57.6251326  10.6350178  92.8861928
  56.8969779   9.4545920  93.4930396  54.0537062   9.9033957  96.6137069
  54.6238419  10.3321225  95.9754553  54.6445174   9.6216541  97.3121254
  56.0981867   6.4785628  90.4846871  56.8005910   6.9306671  90.9520797
  55.7662495   5.8369446  91.1126764  54.5462228   5.0697384 104.8598080
  53.9160889   5.7513665 105.0933477  54.4398316   4.9580466 103.9151218
  49.8407201   4.7369180  95.7864004  49.0506255   4.9926709  95.3104115
  50.3318448   5.5517518  95.8916045  63.8571010  12.0774419  98.5369285
  64.6788454  11.6754607  98.2551967  63.8533413  11.9742654  99.4885401
  51.7921946   5.1013759  92.7447481  50.9953109   5.2132454  93.2630976
  51.5647538   5.4400412  91.8788371  57.6227614  11.6258463 100.6929995
  57.6872046  12.0878870 101.5288167  56.9138538  10.9955828 100.8212305
  48.1244904   4.9899671  98.2178995  48.3752942   5.8746681  98.4836571
  48.6604452   4.8104272  97.4454087  71.9477003   8.4213168  94.8854256
  71.1940712   7.8520566  94.7298261  72.0824544   8.3875832  95.8324891
  57.3375631  13.2926570  90.5608976  57.2021306  14.1378106  90.9893824
  57.8785444  13.4945848  89.7974910  50.7905029  10.8102008  91.1336901
  51.3029549  11.6045258  91.2842466  51.4427742  10.1128299  91.0670502
  52.5999913  13.9267764  93.2159654  52.7766542  14.8485729  93.0280638
  53.3956747  13.6126184  93.6454034  56.7410932   0.7876029 104.8143588
  57.4820645   1.3883182 104.7348050  56.9728855   0.0453667 104.2561630
  51.8852270   5.9732396 103.0921817  51.7705785   5.0717654 103.3928916
  51.0296788   6.2196093 102.7406634  58.9644108  13.9150137 104.6909318
  58.5207962  13.1286515 104.3730222  59.6261321  14.1029287 104.0253209
  53.7231229  15.4445938  99.2169996  54.2738654  15.3163002  98.4446990
  52.8842705  15.7440827  98.8664889  61.0625346  14.1952937 102.7190719
  61.0443821  15.0161818 102.2270988  61.9845266  14.0707012 102.9440860
  57.5198400  11.7097066 103.5614227  58.0526737  10.9485354 103.3313535
  56.9912481  11.4170718 104.3038382  60.6868095  -3.1842868  99.0907869
  60.3432364  -2.2941226  99.0146980  61.0547057  -3.3741210  98.2277454
  48.7553945   9.1390663  91.9096471  49.5929167   9.5487671  91.6930179
  48.9332213   8.1990105  91.8796665  60.6518378   6.8065743  87.5980304
  60.1365001   7.5770348  87.8368692  60.3795686   6.1330879  88.2213366
  58.2365489   1.6515444  92.6565543  57.3807085   1.2622294  92.4771181
  58.6492440   1.7307405  91.7965328  59.7664635  -0.8138213  97.0557102
  59.2629431  -0.8508078  96.2424908  60.0595242   0.0954530  97.1153759
  56.0107521  -0.7299483  96.0623284  56.8760518  -0.9256674  95.7029174
  56.0785030  -0.9589131  96.9892641  65.6252652   9.5598098  89.5333478
  64.8482094   9.2209257  89.0888640  66.3044133   9.5650721  88.8588443
  60.4404681   4.6792835  89.4240085  60.1354816   4.9938984  90.2750229
  61.3935123   4.7574255  89.4667418  58.8851113  10.8383059  91.0733039
  58.3572474  10.1035818  90.7606277  58.3838615  11.6157735  90.8273008
  63.8643959   9.0332079  96.1900086  63.2067633   9.7231340  96.2780214
  64.6684358   9.4228511  96.5334072  53.6169840   1.5002725  93.4339651
  54.1913592   1.2777906  92.7012844  54.2040823   1.5691419  94.1868252
  62.6749417   7.3876452  94.2404028  63.1881299   8.0206444  94.7425737
  63.3250641   6.7877647  93.8747388  53.9439427   3.5307186  87.4535536
  53.1076740   3.8681872  87.7744811  53.8044197   3.3956166  86.5162673
  55.9192508  -1.6256026  92.1614720  55.2656920  -1.9407009  91.5371335
  55.8772982  -2.2480286  92.8874543  57.0303713   8.6563269  84.0768012
  56.1230775   8.4252522  84.2759161  57.5274745   7.8600888  84.2641994
  59.9371792  17.3660776  86.9964699  59.2633490  17.6692473  87.6049656
  60.3237614  18.1689856  86.6470156  59.1530248   4.8625907  96.4862368
  58.2352810   5.0840854  96.3284056  59.5690392   4.9372218  95.6274075
  59.9365296   6.2617323  91.6165048  60.6837115   6.7738720  91.3072170
  60.2056886   5.9401376  92.4769442  58.2091946   8.7575864  88.5992003
  57.3003165   8.4734897  88.6964472  58.2387030   9.1774942  87.7395309
  63.4411214  12.3682453  92.3683170  62.9873541  11.5273363  92.4248361
  62.8105180  13.0043852  92.7057950  62.3844133   3.2974439  93.5983838
  61.6466890   2.7851825  93.9294080  62.6370907   2.8574821  92.7867114
  61.8844153  14.2058950  93.3032988  62.1767127  14.7664007  92.5845354
  62.3942773  14.4987511  94.0586147  62.4855761  -3.9249309  94.1925607
  62.7914637  -4.7851945  93.9051522  63.2108365  -3.3331689  93.9924601
  48.7780117   6.4781378  92.5807205  48.5804516   5.8850739  91.8558271
  48.2226781   6.1733588  93.2983144  56.7576840   6.3704484  94.7001798
  56.8125450   5.4178321  94.6244275  55.9468042   6.5263923  95.1843096
  57.9068034  10.2984607  85.9380081  57.4687464   9.5820466  85.4785719
  58.6478475  10.5260722  85.3765173  54.6969200   4.9881544  92.4592177
  53.8837066   5.2875715  92.8657369  55.1928194   4.5937233  93.1766659
  56.8477778  14.9839301  94.3926442  56.8053957  15.2100147  93.4634974
  57.7640477  14.7502676  94.5412243  60.2943412   5.4523369 101.2907071
  60.6492800   5.6794842 102.1501536  60.9415543   5.7841745 100.6684326
  66.0241149   8.5741804  91.9956400  65.8859047   8.7643400  91.0677589
  65.6677368   9.3361187  92.4524451  54.1883275   2.5599900  98.0753412
  54.8282654   2.4188659  97.3776375  53.3560805   2.2734413  97.6992014
  66.0510528  10.6418331  97.0067671  66.4847035  10.5493621  97.8550725
  66.7642109  10.6175832  96.3687687  54.9643579  11.8602330  94.1888404
  55.7584177  11.3652650  93.9870979  54.2535271  11.3320193  93.8256110
  59.7838423  14.2420426  98.5400772  59.8375446  14.8111362  99.3078488
  58.9153205  14.4122311  98.1754809  51.2726342   6.0045412  90.2648157
  50.3423930   5.9429867  90.4818119  51.3683814   5.4821364  89.4684798
  51.1911891   2.5300225  92.8526399  51.4518709   3.4445558  92.7435559
  52.0129064   2.0624667  93.0023011  52.6636817   3.9437982 100.0225223
  53.3359870   3.7355344  99.3737872  51.8366603   3.7460068  99.5830455
  66.9126078  10.6842032  99.5400557  67.1061968  11.5887843  99.7859832
  66.8126696  10.2249451 100.3739142  58.5662389   0.5699923 102.0390884
  57.9190304   1.2689872 101.9455360  59.3363404   1.0036067 102.4067132
  61.9741187  10.8348775 105.1141437  61.8226693  10.6059327 104.1971521
  61.9645866  11.7919376 105.1272782  58.7426523   8.4080688 100.0987704
  59.6718583   8.5591847  99.9256671  58.3217553   8.4964708  99.2436350
  57.5414855  12.4331352  97.8686241  57.4025941  12.0650136  98.7412179
  56.7529451  12.9478991  97.6970199  58.1363007  17.5340448  89.2111778
  58.3114762  17.0628492  90.0257401  57.4495795  18.1606215  89.4393039
  59.0920070  11.8112955  95.2575079  58.7569903  11.7713725  96.1532729
  58.5924016  11.1457671  94.7845489  53.0664314   7.2180585 100.7827660
  52.9284112   6.4860824 101.3839199  53.9769237   7.1289485 100.5011848
  62.0279262   9.1568989  85.5312139  61.4108432   8.4315817  85.4345191
  61.5595750   9.9178349  85.1879213  55.6946615   6.9300544 100.2711340
  56.4046233   6.2893736 100.2297958  55.6515923   7.1813439 101.1937521
  63.6833393  13.8667897 103.1917919  63.6245939  13.1827118 102.5248502
  64.0852912  14.6086887 102.7398545  54.4075549   3.9165762 102.0906979
  53.8712906   3.4656500 102.7428576  53.8192257   4.0511671 101.3477444
  52.7024092  20.6829811  95.9851638  52.9420690  21.3148335  96.6630657
  51.8593289  20.3317851  96.2716997  53.8177808   3.3754413  84.6533443
  52.9407274   3.2543214  84.2895690  54.2935561   2.5840492  84.4012332
  63.6850801  11.8307481 101.4231899  62.7977579  11.4933403 101.5458298
  64.2549352  11.0990513 101.6600664  45.3379948   8.1631573  94.7474950
  46.0250988   7.8493303  94.1595965  45.1828076   9.0672938  94.4742202
  50.1414670   3.0521770  99.1759974  50.0572859   2.4447439  98.4410384
  49.3197376   3.5430788  99.1769470  57.2151954  16.4908934  98.3893142
  57.1422125  17.2963905  98.9012447  56.7729347  16.6900899  97.5641163
  57.0041734  15.7280704  91.8995964  56.2209255  16.2702384  91.9934188
  57.7034479  16.2454683  92.2990205  60.3138384   1.5375333  94.5430169
  60.8107083   0.7845295  94.2231239  59.5425365   1.5739650  93.9773378
  68.1668141   7.2415699  96.1848460  68.1558017   8.1240414  95.8142394
  67.2985521   6.8887250  95.9902997  59.6750637  16.3895768 100.5451301
  60.3878610  17.0243233 100.4727202  59.1840666  16.4859634  99.7291302
  61.3968164  10.2947020  92.1168592  60.4624443  10.4148483  91.9473297
  61.5744833   9.3919487  91.8528602  56.8973352   3.6792716  94.2701854
  56.5271140   3.1263757  94.9582759  57.3932445   3.0750850  93.7176854
  64.7840716   6.1364340  92.6518626  65.2501168   6.9692331  92.5778929
  65.2348216   5.6709321  93.3563885  54.7262551  14.1390211 101.3656871
  55.4272010  14.7726694 101.5186266  54.2557666  14.4804943 100.6052511
  62.8516947  12.4808161  89.6504779  63.1276791  12.3664756  90.5598653
  61.9821446  12.0825646  89.6116952  62.7557378  -1.4955073  96.6909528
  61.8420458  -1.2650847  96.8591735  63.1850480  -1.4116629  97.5423560
  62.5263837   6.6934819  99.1909422  61.8735287   6.9410726  98.5361875
  62.9044217   5.8798957  98.8571899  59.4871011  16.7294512  93.2937592
  59.6693405  15.9116168  93.7565344  60.3103997  16.9462204  92.8562482
  59.8213176  15.6562697  90.5552641  60.3500943  15.1455151  89.9422803
  60.0841396  15.3405227  91.4198174  58.5751410   7.4354630 105.6775459
  57.8992047   7.3348759 106.3477834  59.3979044   7.2793843 106.1411456
  50.3230269  13.6726566  98.2987974  50.9083706  12.9270254  98.4315878
  50.1255108  13.9830523  99.1824638  53.1768924  16.7077814  93.3150417
  52.5079300  17.1923941  92.8314457  53.0381794  16.9547034  94.2293795
  44.9147924   6.2432166  97.0192417  44.9532023   5.7095757  97.8129535
  44.4088217   5.7167372  96.4003394  57.3174193  18.7421557  99.9133075
  57.8692501  18.9053179 100.6782160  57.6580386  19.3325995  99.2413100
  52.2938686   1.0896707 100.5154960  52.3580013   1.9511538 100.1032357
  52.2305806   0.4770709  99.7827318  51.7690959   3.1619839 104.1627994
  52.3962997   2.7796917 104.7765518  50.9118877   2.9434041 104.5283686
  62.1685067  13.5682815 105.7681729  62.7124971  14.1812773 105.2736684
  61.5871912  14.1262393 106.2848742  48.5456501   4.9696269  90.0946349
  48.8409942   4.0606947  90.0413402  47.6444537   4.9484008  89.7727351
  60.4542580  16.6903533  96.8996757  60.3293720  15.8893272  96.3907703
  61.1121671  17.1849726  96.4110727  52.0750748   3.0452265  96.0773897
  51.3537334   3.6588233  95.9381371  52.8644004   3.5810030  95.9990543
  62.5177489  14.4912553  98.5276307  61.5707824  14.3717904  98.4554634
  62.8660262  13.6035051  98.6102569  54.8777062   0.3806692 102.3514549
  55.4011464   0.6268988 103.1140858  54.6589395   1.2126726 101.9317686
  50.2744343   2.6510366  90.2185674  49.9457049   1.7707745  90.0360780
  50.6283714   2.5958035  91.1062063  59.5223922  14.2865269  94.7280659
  59.3748884  13.3581976  94.9088229  60.3477415  14.3085360  94.2437735
  53.3886166   2.9383336  90.5861152  53.7282239   3.4669257  89.8639760
  53.8358287   3.2763742  91.3619718  63.1258044  15.1093828  95.8145532
  64.0504591  14.9036689  95.6769983  62.9573347  14.8610229  96.7234874
  56.0829607   1.3220387 100.0364220  55.7426427   0.5228200 100.4384899
  55.3768613   1.6222098  99.4641053  56.7346079  -1.5930301  98.4891543
  57.5572148  -2.0669823  98.3670433  56.9784142  -0.8139817  98.9890229
  55.3754313   1.4357958  88.7854444  56.0962676   1.8139210  88.2818161
  54.7519617   2.1546834  88.8889422  59.5185436   2.1403107  89.7212777
  59.7349051   3.0227744  89.4201605  59.0379503   1.7489320  88.9918419
  54.2584658   5.0988820  96.2983521  54.1129238   5.4129123  97.1907803
  53.7809861   5.7173720  95.7454420  56.1181040   2.0891368  96.3464411
  56.1042609   1.1932461  96.0096709  56.8353469   2.0962032  96.9802697
  57.9707171   2.5228708  98.3917538  57.7124949   3.4445779  98.3901869
  57.4392212   2.1259143  99.0818002  62.9153360  15.6279495  91.1707624
  63.0890237  15.0625918  90.4181476  63.4082251  16.4280390  90.9887114
  48.7330320   7.6394164  99.2371182  48.1883788   8.4153972  99.3691457
  49.6109670   7.9864969  99.0790304  55.5217936   0.9705748  91.6151981
  55.6433848   0.0422394  91.8142868  55.2319979   0.9844434  90.7030296
  58.3909127  -1.3439341  94.7518701  58.4130824  -1.2800008  93.7970680
  58.8077186  -2.1834833  94.9459207  68.7692751   8.3915918  92.7897923
  69.2123897   7.6423243  92.3917047  67.8919261   8.3826054  92.4071655
  63.9028532  14.9446260  88.2704522  64.5979437  15.5652952  88.4891837
  64.2451683  14.0941611  88.5456900  49.5196342   6.7664060 102.1301339
  48.7778078   6.9146696 102.7165970  49.1989086   7.0272326 101.2668089
  65.8019955  12.3945965  89.7991853  66.3271280  12.7333238  89.0741173
  65.7142308  11.4592980  89.6154987  57.4640004  16.3080039 101.9281729
  57.7727131  16.0629185 102.8004429  58.2615486  16.5126677 101.4400600
  57.4860616  18.4617948  94.1587106  57.0465607  17.9694327  94.8519963
  58.2368733  17.9190916  93.9179181  49.9652955  14.6529489  94.1611734
  50.7910975  14.3533261  93.7810377  49.6147007  13.8837112  94.6101523
  54.9334488  14.0055957  96.2309408  54.3114498  13.3426662  95.9311635
  55.6039355  14.0317089  95.5483055  48.1661560  12.5715816  95.1200668
  47.3293469  12.1437990  94.9384669  48.1385206  12.7648259  96.0571459
  55.0059016   2.4837745 105.8241914  55.0547171   3.3599868 105.4419683
  55.5481530   1.9415138 105.2513557  65.4913862  13.0278869 105.1043051
  64.7009405  13.0103008 104.5647550  65.2547216  13.5667162 105.8592087
  65.6111737   9.8771335 102.4175779  65.6609742   9.7121343 103.3591302
  65.5025660   9.0098594 102.0273660  54.4947995  12.5559881  89.7067868
  54.6436116  13.2395345  89.0534541  55.3014439  12.5364971  90.2217324
  62.9015499   5.8602263 103.7335086  63.8025362   5.7208728 103.4419084
  62.9763474   6.0256718 104.6733263  57.2358304   3.2369118 102.5788272
  56.3661614   3.5302684 102.3070861  57.4717785   3.8209563 103.2995536
  67.1129933  12.2968277 102.6617801  66.8214742  12.6598257 103.4981262
  66.5002065  11.5835285 102.4831133  68.3125616   9.8621156  95.1820371
  69.1472507  10.3010960  95.3457931  68.4484745   9.3859810  94.3628617
  65.3617122   7.4200891 101.1297859  65.8371243   7.6128538 100.3216710
  64.4382687   7.4760077 100.8841242  52.2500628   8.5825058  90.7128937
  52.0046670   7.6787388  90.9109147  52.4196543   8.5842209  89.7708415
  59.9397338  -0.5451265 100.0953693  60.4579282   0.1909762  99.7700181
  59.5852471  -0.2387272 100.9300452  51.5196276   4.3153416  88.2115098
  50.8265521   4.3897771  87.5555134  51.2748028   3.5513760  88.7336615
  60.1909932  -4.1250983  95.6154589  60.4711686  -4.7927794  96.2415016
  60.9760539  -3.9321887  95.1029253  57.9943401  15.0508011  87.1779615
  57.4217368  15.6698198  86.7250087  58.5676195  15.6007373  87.7119537
  64.0618791   4.2966651  99.3626164  65.0136214   4.3964749  99.3838388
  63.8922241   3.5044920  99.8724249  62.0833170   1.3822235  99.5485565
  61.4883102   1.6627247  98.8532054  61.7982867   1.8716135 100.3202306
  61.2140661  15.3345161  88.3088198  62.1471334  15.2690723  88.5121073
  61.1263873  16.1701428  87.8502730  63.8428677  14.6511032  85.2692145
  63.7642309  14.3170895  86.1627903  64.6638344  15.1432800  85.2683618
  66.5406868   7.5172771  98.4768464  66.5083189   6.5788772  98.6628148
  67.1507492   7.5956808  97.7434289  58.3790199   6.3868824  84.5195668
  59.3249304   6.2575032  84.5884086  58.0004444   5.6483486  84.9965096
  66.6901357   4.3083814  98.5226747  66.1740406   3.5242271  98.3356676
  67.5741305   3.9802531  98.6873267  64.3512084  -1.9475170  94.4822560
  64.1536905  -2.2560082  95.3665892  64.9611789  -1.2213531  94.6120490
  72.3583418   8.5788778  97.6174501  73.0886807   8.3174066  98.1782204
  71.7490364   7.8417500  97.6576569  70.4398715   6.7196640  98.2148952
  69.7131879   6.5852605  97.6065444  70.0246002   7.0273469  99.0205670
  58.2628892  10.4386570 105.9796325  59.1831901  10.6165169 106.1736371
  58.2278475   9.4942615 105.8276024  56.5633116   4.3118800  84.4550553
  55.6564572   4.0151913  84.5313267  56.8409097   4.0148618  83.5884839
  47.4811057   5.6325164  94.9049600  47.1613841   4.7790472  94.6123974
  46.9344485   5.8473742  95.6607567  51.2590964   8.3487605  98.6219106
  51.4776974   9.2804713  98.6407140  51.6716738   7.9895579  99.4073910
  58.1795182  -1.1444310  90.6094794  57.3695911  -1.4897225  90.9850041
  58.8679599  -1.4536766  91.1982406  60.1085730  -2.0666263  92.2319091
  60.6616769  -1.6470810  92.8909114  60.3455817  -2.9930515  92.2742047
  56.1318830   3.9220811 108.0121855  56.0315557   4.8715167 107.9433946
  55.9140372   3.5939049 107.1397925  55.3331901   1.1705736  84.5962532
  56.1951065   1.4960634  84.8558350  55.5182245   0.3837231  84.0835598
  47.3499317   9.2528075  96.8742721  46.6562788   8.8382028  96.3612676
  48.0972308   9.2948612  96.2776140  63.4864538   0.0434262  91.7397755
  62.9063207   0.7019066  91.3575808  63.2200470  -0.7788393  91.3285173
  61.9368104  -0.5560680  93.9419076  62.4367882  -0.4444146  93.1333395
  62.5803712  -0.8599627  94.5819884  55.9950100   7.3517949 106.8286917
  55.5117181   8.1518309 107.0350806  56.0811039   7.3625894 105.8754361
  49.2636059   9.1846329  94.7508736  49.2406748   9.2834016  93.7990619
  49.5736696  10.0311480  95.0725902  51.9223437  11.2422484  98.8655350
  52.8766691  11.2106426  98.7985282  51.7235961  10.7813108  99.6805576
  52.5122819   9.8123600 101.4326148  53.3315708  10.3067679 101.4560985
  52.7859627   8.8955568 101.4043716  62.2689416   2.2034352  90.7954104
  61.3815271   2.4884003  90.5774298  62.6843405   2.0428116  89.9481381
  65.6203952   2.2280873  94.5108443  66.3964342   2.7177326  94.7833060
  64.8952086   2.6538928  94.9680312  68.0576510   2.9408493  95.5682384
  68.6521001   2.7004229  94.8575692  68.1303094   2.2215623  96.1955920
  50.2773666  16.7842104  95.8825548  50.1428134  16.0242504  95.3163546
  49.8605728  17.5083003  95.4154337  61.4132629  11.9679027  84.8902124
  62.1168479  12.1729030  85.5059779  60.6895278  12.5355789  85.1551207
  62.2430439   7.7188888  91.0104394  62.1865641   8.1757440  90.1712026
  62.7958782   6.9579573  90.8327237  66.0535245   3.5078620  91.8354513
  65.7972179   3.1075256  92.6662721  65.4288113   4.2222414  91.7104652
  70.3647583   6.2474693  94.3425805  69.8047141   6.3167883  95.1157367
  69.7591086   6.0715678  93.6225301  53.4342792  17.6811421  96.0943991
  53.3175176  18.6256853  95.9922681  52.6135238  17.3784982  96.4829790
  63.3219326  12.4061556  86.9400584  64.1564930  11.9742755  86.7578058
  63.1603669  12.2343570  87.8677478  62.9765219   8.9093670  88.3056923
  62.9214022   8.7437941  87.3645367  62.3511274   9.6169702  88.4619113
  47.7657734   4.1461734 102.1318345  48.4116597   3.6360688 102.6205570
  47.5574885   4.8830416 102.7061770  60.2911126  11.2142581 107.6310486
  61.1602285  11.3883234 107.2697121  59.8117877  12.0336998 107.5086215
  56.2861344  -1.5898221  87.8842241  56.2740014  -0.6456381  88.0410512
  57.1784766  -1.7728076  87.5901703  54.4597306  18.3339682  99.3099919
  55.3624553  18.3663293  99.6266414  54.2334676  17.4040133  99.3246255
  56.2150908  17.0870669  95.9709998  55.2646539  17.0872531  95.8574370
  56.5183394  16.3403404  95.4546033  60.1013464  -4.9955445  92.1388178
  59.3345859  -5.5496958  92.2844861  60.5124169  -4.9233576  93.0002330
  71.9503602  22.9231207  97.0355760  72.5882012  22.8037955  96.3319101
  71.8324444  23.8712051  97.0943713  68.7593308  22.8758636  96.9717285
  68.4211819  22.7599700  96.0837820  69.6283076  22.4749801  96.9518291
  64.6180124  24.7294112  92.9614176  64.0544989  24.6384049  92.1930464
  64.5032519  23.9094016  93.4416669  69.2413091  24.0293487 102.9303491
  69.2301732  23.6346285 102.0583994  69.4033730  23.2959560 103.5237262
  62.1644555  26.2245304  95.7998397  62.9565847  25.8836128  95.3844696
  62.4041206  26.3340279  96.7200550  65.9620352  26.8130599 101.8782675
  65.6710218  27.7176230 101.7629341  66.5977336  26.8547127 102.5926744
  66.8876559  24.1907448  98.4684034  67.4840131  23.9663470  97.7540997
  66.9451530  23.4492193  99.0709482  71.5044870  20.6482661  94.1108968
  72.2907959  20.2302084  93.7599385  71.7683574  21.5528753  94.2790617
  76.9053297  20.5857894  95.0141947  77.6378469  20.0157111  95.2479776
  76.1492653  20.1979495  95.4548453  68.5229417  23.0085136  92.2105289
  68.1587624  22.4815757  92.9218211  69.3796533  22.6183605  92.0371775
  74.4278718  14.2979469  99.4736556  74.0962042  15.1674880  99.2497771
  73.8324331  13.9815753 100.1530586  68.1634904  18.0375036  87.2066638
  68.3309306  18.9055272  87.5737109  67.9732073  18.2002317  86.2827927
  70.9210237  26.4992015  98.8732468  70.6210960  27.4017053  98.7648276
  70.5761297  26.2324198  99.7253621  64.3722719  22.9505811  94.9069173
  63.4473215  22.8182025  95.1146865  64.6207132  23.7300031  95.4039115
  74.3207381  19.0174555  96.5529906  73.4124258  18.9489963  96.2588667
  74.2694977  19.4946500  97.3811731  61.7331530  22.5939085  95.7412962
  61.8623911  22.8473564  96.6552374  61.0528981  23.1866793  95.4217617
  68.3948247  20.4364200 104.4964803  67.6181581  20.9958120 104.4867668
  69.0338810  20.9220983 105.0179673  76.1869027  17.2190993  98.3307780
  75.5443407  17.5123526  97.6847574  75.6823956  17.1043913  99.1360976
  73.8409191  20.9654166  89.0193639  74.7527047  21.1981553  88.8441336
  73.3318838  21.5491211  88.4568717  66.6494619  23.2449654 104.0582770
  67.3909303  23.7834698 103.7817594  65.9431604  23.8715942 104.2154322
  72.1249959  25.3878794 102.6554931  72.5333315  24.9461205 101.9109564
  71.4027220  24.8131422 102.9089124  68.4781029  20.3251401 100.0288488
  69.3242224  20.7490814 100.1723137  68.4179666  19.6685025 100.7227051
  72.4478773  25.9479985  96.4107220  71.8187636  26.1125699  95.7083288
  72.0604435  26.3621594  97.1818184  76.3268005  26.8834423  93.7651584
  75.6419043  27.2633324  93.2148617  76.4111854  27.4929749  94.4983532
  71.6280474  17.9855769 101.6869662  71.3841406  18.7397830 101.1503938
  71.9040404  18.3641117 102.5216909  73.5818937  24.5294382 100.3646928
  73.7935832  25.1726142  99.6881309  73.5348685  23.6956698  99.8968858
  71.1845166  17.1412202  97.2683500  70.3229645  17.4393456  97.5600237
  71.2107600  17.3582601  96.3364532  68.0006735  25.6854393  93.6757305
  68.4645081  25.9642096  92.8861928  67.7363533  24.7837837  93.4930396
  64.8930816  25.2325874  96.6137069  65.4632173  25.6613143  95.9754553
  65.4838928  24.9508459  97.3121254  66.9375621  21.8077545  90.4846871
  67.6399664  22.2598589  90.9520797  66.6056250  21.1661364  91.1126764
  65.3855983  20.3989302 104.8598080  64.7554643  21.0805583 105.0933477
  65.2792071  20.2872383 103.9151218  60.6800955  20.0661098  95.7864004
  59.8900009  20.3218626  95.3104115  61.1712202  20.8809436  95.8916045
  74.6964765  27.4066337  98.5369285  75.5182208  27.0046524  98.2551967
  74.6927168  27.3034571  99.4885401  62.6315700  20.4305677  92.7447481
  61.8346864  20.5424371  93.2630976  62.4041293  20.7692329  91.8788371
  68.4621368  26.9550380 100.6929995  68.5265801  27.4170788 101.5288167
  67.7532292  26.3247745 100.8212305  58.9638658  20.3191588  98.2178995
  59.2146697  21.2038598  98.4836571  59.4998206  20.1396190  97.4454087
  82.7870758  23.7505086  94.8854256  82.0334466  23.1812484  94.7298261
  82.9218299  23.7167750  95.8324891  64.6636725  14.7010068 107.2223331
  64.2703671  14.1476266 107.8970975  65.4802866  15.0120646 107.6129848
  67.5804686  16.1167947 104.8143588  68.3214400  16.7175100 104.7348050
  67.8122609  15.3745585 104.2561630  62.7246024  21.3024314 103.0921817
  62.6099540  20.4009571 103.3928916  61.8690542  21.5488011 102.7406634
  69.8037862  29.2442054 104.6909318  69.3601716  28.4578433 104.3730222
  70.4655076  29.4321205 104.0253209  64.5624983  30.7737856  99.2169996
  65.1132408  30.6454919  98.4446990  63.7236459  31.0732745  98.8664889
  71.9019100  29.5244854 102.7190719  71.8837576  30.3453735 102.2270988
  72.8239020  29.3998930 102.9440860  68.3592154  27.0388984 103.5614227
  68.8920491  26.2777272 103.3313535  67.8306235  26.7462636 104.3038382
  71.5261849  12.1449050  99.0907869  71.1826119  13.0350691  99.0146980
  71.8940812  11.9550707  98.2277454  59.5947700  24.4682580  91.9096471
  60.4322922  24.8779589  91.6930179  59.7725968  23.5282022  91.8796665
  69.0759243  16.9807362  92.6565543  68.2200839  16.5914212  92.4771181
  69.4886195  17.0599322  91.7965328  70.6058390  14.5153705  97.0557102
  70.1023185  14.4783840  96.2424908  70.8988997  15.4246448  97.1153759
  66.8501276  14.5992435  96.0623284  67.7154272  14.4035243  95.7029174
  66.9178785  14.3702786  96.9892641  76.4646406  24.8890015  89.5333478
  75.6875849  24.5501175  89.0888640  77.1437887  24.8942639  88.8588443
  71.2798435  20.0084753  89.4240085  70.9748571  20.3230902  90.2750229
  72.2328877  20.0866173  89.4667418  74.7037713  24.3623997  96.1900086
  74.0461388  25.0523258  96.2780214  75.5078112  24.7520429  96.5334072
  64.4563595  16.8294643  93.4339651  65.0307347  16.6069824  92.7012844
  65.0434577  16.8983337  94.1868252  73.5143172  22.7168369  94.2404028
  74.0275054  23.3498361  94.7425737  74.1644396  22.1169565  93.8747388
  66.7586262  13.7035891  92.1614720  66.1050675  13.3884909  91.5371335
  66.7166737  13.0811632  92.8874543  69.9924003  20.1917825  96.4862368
  69.0746564  20.4132772  96.3284056  70.4084146  20.2664135  95.6274075
  70.7759051  21.5909241  91.6165048  71.5230869  22.1030638  91.3072170
  71.0450640  21.2693293  92.4769442  74.2804968  27.6974371  92.3683170
  73.8267295  26.8565281  92.4248361  73.6498935  28.3335769  92.7057950
  73.2237888  18.6266357  93.5983838  72.4860644  18.1143743  93.9294080
  73.4764661  18.1866739  92.7867114  72.7237907  29.5350868  93.3032988
  73.0160882  30.0955925  92.5845354  73.2336528  29.8279429  94.0586147
  73.3249515  11.4042609  94.1925607  73.6308392  10.5439972  93.9051522
  74.0502120  11.9960229  93.9924601  59.6173871  21.8073296  92.5807205
  59.4198271  21.2142656  91.8558271  59.0620535  21.5025506  93.2983144
  67.5970595  21.6996402  94.7001798  67.6519205  20.7470238  94.6244275
  66.7861797  21.8555841  95.1843096  65.5362955  20.3173462  92.4592177
  64.7230820  20.6167632  92.8657369  66.0321949  19.9229150  93.1766659
  67.6871533  30.3131219  94.3926442  67.6447711  30.5392065  93.4634974
  68.6034231  30.0794593  94.5412243  71.1337166  20.7815286 101.2907071
  71.4886554  21.0086759 102.1501536  71.7809298  21.1133663 100.6684326
  76.8634903  23.9033722  91.9956400  76.7252802  24.0935318  91.0677589
  76.5071122  24.6653105  92.4524451  65.0277029  17.8891817  98.0753412
  65.6676409  17.7480576  97.3776375  64.1954560  17.6026331  97.6992014
  76.8904283  25.9710249  97.0067671  77.3240790  25.8785538  97.8550725
  77.6035864  25.9467750  96.3687687  65.8037333  27.1894248  94.1888404
  66.5977932  26.6944568  93.9870979  65.0929026  26.6612111  93.8256110
  70.6232178  29.5712343  98.5400772  70.6769200  30.1403280  99.3078488
  69.7546959  29.7414228  98.1754809  62.1120097  21.3337329  90.2648157
  61.1817685  21.2721785  90.4818119  62.2077569  20.8113282  89.4684798
  62.0305646  17.8592142  92.8526399  62.2912463  18.7737475  92.7435559
  62.8522818  17.3916585  93.0023011  63.5030571  19.2729899 100.0225223
  64.1753625  19.0647262  99.3737872  62.6760358  19.0751985  99.5830455
  77.7519832  26.0133950  99.5400557  77.9455723  26.9179760  99.7859832
  77.6520451  25.5541369 100.3739142  69.4056143  15.8991840 102.0390884
  68.7584058  16.5981790 101.9455360  70.1757159  16.3327984 102.4067132
  72.8134941  26.1640692 105.1141437  72.6620448  25.9351244 104.1971521
  72.8039621  27.1211294 105.1272782  69.5820278  23.7372605 100.0987704
  70.5112338  23.8883765  99.9256671  69.1611308  23.8256626  99.2436350
  68.3808609  27.7623270  97.8686241  68.2419695  27.3942054  98.7412179
  67.5923206  28.2770909  97.6970199  69.9313824  27.1404872  95.2575079
  69.5963657  27.1005642  96.1532729  69.4317770  26.4749588  94.7845489
  63.9058068  22.5472502 100.7827660  63.7677866  21.8152741 101.3839199
  64.8162992  22.4581402 100.5011848  66.5340369  22.2592462 100.2711340
  67.2439988  21.6185654 100.2297958  66.4909677  22.5105357 101.1937521
  74.5227148  29.1959815 103.1917919  74.4639694  28.5119035 102.5248502
  74.9246666  29.9378805 102.7398545  65.2469303  19.2457680 102.0906979
  64.7106660  18.7948418 102.7428576  64.6586012  19.3803588 101.3477444
  63.5417847  36.0121729  95.9851638  63.7814445  36.6440253  96.6630657
  62.6987043  35.6609769  96.2716997  74.5244555  27.1599399 101.4231899
  73.6371334  26.8225321 101.5458298  75.0943106  26.4282430 101.6600664
  56.1773702  23.4923491  94.7474950  56.8644742  23.1785221  94.1595965
  56.0221831  24.3964855  94.4742202  60.9808424  18.3813687  99.1759974
  60.8966613  17.7739357  98.4410384  60.1591131  18.8722706  99.1769470
  68.0545708  31.8200851  98.3893142  67.9815880  32.6255823  98.9012447
  67.6123102  32.0192817  97.5641163  71.1532138  16.8667251  94.5430169
  71.6500838  16.1137213  94.2231239  70.3819120  16.9031567  93.9773378
  79.0061896  22.5707616  96.1848460  78.9951772  23.4532332  95.8142394
  78.1379275  22.2179167  95.9902997  70.5144392  31.7187685 100.5451301
  71.2272364  32.3535150 100.4727202  70.0234421  31.8151551  99.7291302
  67.7367107  19.0084634  94.2701854  67.3664894  18.4555674  94.9582759
  68.2326199  18.4042767  93.7176854  75.6234470  21.4656257  92.6518626
  76.0894922  22.2984249  92.5778929  76.0741971  21.0001239  93.3563885
  65.5656305  29.4682129 101.3656871  66.2665765  30.1018612 101.5186266
  65.0951420  29.8096860 100.6052511  73.5951133  13.8336844  96.6909528
  72.6814213  14.0641071  96.8591735  74.0244234  13.9175288  97.5423560
  73.3657591  22.0226736  99.1909422  72.7129042  22.2702644  98.5361875
  73.7437971  21.2090874  98.8571899  69.4145164  22.7646547 105.6775459
  68.7385802  22.6640677 106.3477834  70.2372798  22.6085761 106.1411456
  61.1624024  29.0018484  98.2987974  61.7477460  28.2562172  98.4315878
  60.9648862  29.3122441  99.1824638  55.7541678  21.5724084  97.0192417
  55.7925778  21.0387675  97.8129535  55.2481971  21.0459290  96.4003394
  68.1567947  34.0713475  99.9133075  68.7086255  34.2345096 100.6782160
  68.4974141  34.6617913  99.2413100  63.1332441  16.4188625 100.5154960
  63.1973767  17.2803455 100.1032357  63.0699561  15.8062626  99.7827318
  62.6084713  18.4911757 104.1627994  63.2356752  18.1088834 104.7765518
  61.7512632  18.2725959 104.5283686  73.0078822  28.8974732 105.7681729
  73.5518726  29.5104691 105.2736684  72.4265667  29.4554311 106.2848742
  59.3850256  20.2988186  90.0946349  59.6803697  19.3898865  90.0413402
  58.4838292  20.2775926  89.7727351  71.2936335  32.0195450  96.8996757
  71.1687474  31.2185190  96.3907703  71.9515426  32.5141644  96.4110727
  62.9144503  18.3744183  96.0773897  62.1931089  18.9880151  95.9381371
  63.7037759  18.9101948  95.9990543  73.3571243  29.8204470  98.5276307
  72.4101579  29.7009822  98.4554634  73.7054016  28.9326968  98.6102569
  65.7170816  15.7098609 102.3514549  66.2405218  15.9560906 103.1140858
  65.4983150  16.5418644 101.9317686  61.1138097  17.9802284  90.2185674
  60.7850804  17.0999663  90.0360780  61.4677468  17.9249953  91.1062063
  70.3617676  29.6157187  94.7280659  70.2142639  28.6873894  94.9088229
  71.1871170  29.6377277  94.2437735  64.2279921  18.2675254  90.5861152
  64.5675993  18.7961175  89.8639760  64.6752041  18.6055660  91.3619718
  73.9651798  30.4385745  95.8145532  74.8898346  30.2328607  95.6769983
  73.7967102  30.1902147  96.7234874  66.9223361  16.6512304 100.0364220
  66.5820182  15.8520117 100.4384899  66.2162368  16.9514015  99.4641053
  67.5739833  13.7361617  98.4891543  68.3965903  13.2622095  98.3670433
  67.8177897  14.5152101  98.9890229  66.2148068  16.7649875  88.7854444
  66.9356430  17.1431128  88.2818161  65.5913372  17.4838752  88.8889422
  70.3579191  17.4695024  89.7212777  70.5742805  18.3519662  89.4201605
  69.8773258  17.0781238  88.9918419  65.0978412  20.4280737  96.2983521
  64.9522993  20.7421041  97.1907803  64.6203616  21.0465638  95.7454420
  66.9574795  17.4183285  96.3464411  66.9436364  16.5224379  96.0096709
  67.6747223  17.4253949  96.9802697  68.8100926  17.8520626  98.3917538
  68.5518703  18.7737696  98.3901869  68.2785966  17.4551060  99.0818002
  59.5724074  22.9686082  99.2371182  59.0277542  23.7445890  99.3691457
  60.4503424  23.3156886  99.0790304  66.3611691  16.2997666  91.6151981
  66.4827602  15.3714312  91.8142868  66.0713733  16.3136352  90.7030296
  69.2302881  13.9852576  94.7518701  69.2524578  14.0491909  93.7970680
  69.6470940  13.1457085  94.9459207  79.6086506  23.7207836  92.7897923
  80.0517652  22.9715161  92.3917047  78.7313016  23.7117972  92.4071655
  60.3590096  22.0955978 102.1301339  59.6171832  22.2438614 102.7165970
  60.0382840  22.3564244 101.2668089  68.3033759  31.6371956 101.9281729
  68.6120885  31.3921103 102.8004429  69.1009241  31.8418595 101.4400600
  68.3254371  33.7909866  94.1587106  67.8859361  33.2986245  94.8519963
  69.0762488  33.2482834  93.9179181  60.8046710  29.9821407  94.1611734
  61.6304730  29.6825179  93.7810377  60.4540762  29.2129029  94.6101523
  65.7728243  29.3347875  96.2309408  65.1508252  28.6718580  95.9311635
  66.4433110  29.3609007  95.5483055  59.0055315  27.9007733  95.1200668
  58.1687223  27.4729908  94.9384669  58.9778960  28.0940177  96.0571459
  65.8452770  17.8129663 105.8241914  65.8940926  18.6891786 105.4419683
  66.3875285  17.2707056 105.2513557  76.3307616  28.3570786 105.1043051
  75.5403160  28.3394925 104.5647550  76.0940971  28.8959080 105.8592087
  76.4505491  25.2063253 102.4175779  76.5003496  25.0413260 103.3591302
  76.3419414  24.3390512 102.0273660  73.7409253  21.1894181 103.7335086
  74.6419116  21.0500646 103.4419084  73.8157228  21.3548636 104.6733263
  68.0752059  18.5661036 102.5788272  67.2055368  18.8594602 102.3070861
  68.3111539  19.1501481 103.2995536  77.9523688  27.6260194 102.6617801
  77.6608496  27.9890175 103.4981262  77.3395819  26.9127203 102.4831133
  79.1519370  25.1913074  95.1820371  79.9866262  25.6302878  95.3457931
  79.2878499  24.7151727  94.3628617  76.2010876  22.7492809 101.1297859
  76.6764998  22.9420455 100.3216710  75.2776442  22.8051995 100.8841242
  70.7791093  14.7840652 100.0953693  71.2973037  15.5201679  99.7700181
  70.4246225  15.0904646 100.9300452  62.3590030  19.6445334  88.2115098
  61.6659275  19.7189689  87.5555134  62.1141782  18.8805677  88.7336615
  71.0303687  11.2040935  95.6154589  71.3105441  10.5364124  96.2415016
  71.8154294  11.3970031  95.1029253  74.9012545  19.6258569  99.3626164
  75.8529968  19.7256667  99.3838388  74.7315996  18.8336838  99.8724249
  72.9226925  16.7114152  99.5485565  72.3276857  16.9919165  98.8532054
  72.6376621  17.2008053 100.3202306  77.3800623  22.8464689  98.4768464
  77.3476943  21.9080689  98.6628148  77.9901247  22.9248725  97.7434289
  77.5295111  19.6375732  98.5226747  77.0134160  18.8534189  98.3356676
  78.4135060  19.3094449  98.6873267  75.1905838  13.3816748  94.4822560
  74.9930659  13.0731836  95.3665892  75.8005544  14.1078387  94.6120490
  83.1977173  23.9080696  97.6174501  83.9280561  23.6465984  98.1782204
  82.5884118  23.1709417  97.6576569  81.2792470  22.0488558  98.2148952
  80.5525634  21.9144523  97.6065444  80.8639757  22.3565387  99.0205670
  69.1022646  25.7678488 105.9796325  70.0225656  25.9457087 106.1736371
  69.0672229  24.8234533 105.8276024  58.3204811  20.9617081  94.9049600
  58.0007596  20.1082390  94.6123974  57.7738240  21.1765660  95.6607567
  62.0984719  23.6779522  98.6219106  62.3170729  24.6096630  98.6407140
  62.5110493  23.3187497  99.4073910  69.0188937  14.1847608  90.6094794
  68.2089665  13.8394693  90.9850041  69.7073354  13.8755151  91.1982406
  70.9479485  13.2625655  92.2319091  71.5010524  13.6821108  92.8909114
  71.1849571  12.3361403  92.2742047  66.9712584  19.2512728 108.0121855
  66.8709311  20.2007085 107.9433946  66.7534126  18.9230967 107.1397925
  66.1725656  16.4997653  84.5962532  67.0344820  16.8252552  84.8558350
  66.3576000  15.7129149  84.0835598  58.1893071  24.5819993  96.8742721
  57.4956543  24.1673946  96.3612676  58.9366062  24.6240529  96.2776140
  74.3258292  15.3726180  91.7397755  73.7456961  16.0310984  91.3575808
  74.0594225  14.5503524  91.3285173  72.7761858  14.7731237  93.9419076
  73.2761637  14.8847772  93.1333395  73.4197466  14.4692290  94.5819884
  66.8343854  22.6809867 106.8286917  66.3510936  23.4810227 107.0350806
  66.9204793  22.6917812 105.8754361  60.1029814  24.5138247  94.7508736
  60.0800502  24.6125934  93.7990619  60.4130450  25.3603398  95.0725902
  62.7617192  26.5714402  98.8655350  63.7160445  26.5398344  98.7985282
  62.5629715  26.1105025  99.6805576  63.3516574  25.1415518 101.4326148
  64.1709463  25.6359596 101.4560985  63.6253382  24.2247486 101.4043716
  73.1083170  17.5326270  90.7954104  72.2209025  17.8175921  90.5774298
  73.5237159  17.3720033  89.9481381  76.4597706  17.5572791  94.5108443
  77.2358096  18.0469244  94.7833060  75.7345840  17.9830845  94.9680312
  78.8970265  18.2700410  95.5682384  79.4914756  18.0296146  94.8575692
  78.9696849  17.5507541  96.1955920  61.1167421  32.1134021  95.8825548
  60.9821888  31.3534422  95.3163546  60.6999483  32.8374921  95.4154337
  76.8929000  18.8370538  91.8354513  76.6365934  18.4367174  92.6662721
  76.2681868  19.5514332  91.7104652  81.2041338  21.5766611  94.3425805
  80.6440896  21.6459800  95.1157367  80.5984841  21.4007596  93.6225301
  64.2736546  33.0103338  96.0943991  64.1568931  33.9548771  95.9922681
  63.4528993  32.7076900  96.4829790  58.6051488  19.4753652 102.1318345
  59.2510352  18.9652606 102.6205570  58.3968639  20.2122333 102.7061770
  71.1304880  26.5434499 107.6310486  71.9996040  26.7175151 107.2697121
  70.6511632  27.3628916 107.5086215  67.1255099  13.7393696  87.8842241
  67.1133768  14.6835536  88.0410512  68.0178520  13.5563842  87.5901703
  65.2991061  33.6631600  99.3099919  66.2018307  33.6955210  99.6266414
  65.0728431  32.7332051  99.3246255  67.0544663  32.4162587  95.9709998
  66.1040294  32.4164448  95.8574370  67.3577149  31.6695321  95.4546033
  70.9407218  10.3336473  92.1388178  70.1739614   9.7794960  92.2844861
  71.3517923  10.4058342  93.0002330  62.9448979  16.6221269 106.2293359
  63.8080441  16.2658074 106.4396684  62.3714390  16.2835164 106.9168764
  82.7897356  38.2523125  97.0355760  83.4275766  38.1329872  96.3319101
  82.6718199  39.2003969  97.0943713  79.5987062  38.2050553  96.9717285
  79.2605574  38.0891618  96.0837820  80.4676831  37.8041718  96.9518291
  75.4573878  40.0586030  92.9614176  74.8938743  39.9675967  92.1930464
  75.3426273  39.2385934  93.4416669  80.0806845  39.3585405 102.9303491
  80.0695486  38.9638203 102.0583994  80.2427485  38.6251478 103.5237262
  73.0038310  41.5537221  95.7998397  73.7959602  41.2128046  95.3844696
  73.2434960  41.6632196  96.7200550  81.0373437  43.7256997  88.2728641
  80.3861417  44.3111078  87.8862655  81.8317800  44.2563192  88.3323678
  76.8014106  42.1422517 101.8782675  76.5103972  43.0468148 101.7629341
  77.4371091  42.1839044 102.5926744  77.7270313  39.5199365  98.4684034
  78.3233886  39.2955388  97.7540997  77.7845285  38.7784111  99.0709482
  82.3438625  35.9774579  94.1108968  83.1301714  35.5594002  93.7599385
  82.6077329  36.8820671  94.2790617  82.5148702  41.4147429  88.8097625
  81.8794535  41.4882056  89.5218530  82.1846108  42.0041028  88.1316705
  87.7447052  35.9149812  95.0141947  88.4772224  35.3449029  95.2479776
  86.9886407  35.5271413  95.4548453  77.0191630  38.8766907  88.5058600
  76.9027889  38.2011810  89.1739685  77.1293890  38.3899280  87.6890753
  79.3623171  38.3377054  92.2105289  78.9981379  37.8107675  92.9218211
  80.2190287  37.9475523  92.0371775  85.2672472  29.6271386  99.4736556
  84.9355797  30.4966797  99.2497771  84.6718085  29.3107670 100.1530586
  79.0028658  33.3666953  87.2066638  79.1703061  34.2347190  87.5737109
  78.8125827  33.5294235  86.2827927  81.7603992  41.8283932  98.8732468
  81.4604715  42.7308971  98.7648276  81.4155051  41.5616115  99.7253621
  75.2116473  38.2797729  94.9069173  74.2866970  38.1473943  95.1146865
  75.4600886  39.0591948  95.4039115  85.1601135  34.3466472  96.5529906
  84.2518013  34.2781881  96.2588667  85.1088731  34.8238417  97.3811731
  78.9817879  35.8224611  88.1913305  78.8617504  36.2681662  89.0298785
  78.2870468  36.1709928  87.6326843  72.5725284  37.9231003  95.7412962
  72.7017665  38.1765482  96.6552374  71.8922735  38.5158711  95.4217617
  76.7424771  48.5928253  91.8403436  76.6648801  49.5436078  91.9191917
  76.1386415  48.2474125  92.4978362  79.2342001  35.7656118 104.4964803
  78.4575335  36.3250038 104.4867668  79.8732564  36.2512901 105.0179673
  87.0262782  32.5482911  98.3307780  86.3837162  32.8415444  97.6847574
  86.5217710  32.4335831  99.1360976  84.6802945  36.2946084  89.0193639
  85.5920802  36.5273471  88.8441336  84.1712592  36.8783128  88.4568717
  77.4888373  38.5741571 104.0582770  78.2303058  39.1126615 103.7817594
  76.7825359  39.2007860 104.2154322  82.9643713  40.7170712 102.6554931
  83.3727069  40.2753122 101.9109564  82.2420975  40.1423339 102.9089124
  79.3174783  35.6543319 100.0288488  80.1635978  36.0782732 100.1723137
  79.2573421  34.9976943 100.7227051  83.2872528  41.2771902  96.4107220
  82.6581390  41.4417617  95.7083288  82.8998190  41.6913512  97.1818184
  87.1661760  42.2126340  93.7651584  86.4812798  42.5925242  93.2148617
  87.2505609  42.8221667  94.4983532  82.4674228  33.3147687 101.6869662
  82.2235160  34.0689747 101.1503938  82.7434159  33.6933035 102.5216909
  84.4212691  39.8586299 100.3646928  84.6329586  40.5018059  99.6881309
  84.3742439  39.0248616  99.8968858  82.0238920  32.4704120  97.2683500
  81.1623399  32.7685374  97.5600237  82.0501355  32.6874519  96.3364532
  78.8400490  41.0146311  93.6757305  79.3038835  41.2934014  92.8861928
  78.5757288  40.1129755  93.4930396  75.7324571  40.5617792  96.6137069
  76.3025928  40.9905060  95.9754553  76.3232682  40.2800377  97.3121254
  77.7769376  37.1369463  90.4846871  78.4793419  37.5890507  90.9520797
  77.4450004  36.4953282  91.1126764  76.2249737  35.7281220 104.8598080
  75.5948398  36.4097500 105.0933477  76.1185825  35.6164301 103.9151218
  71.5194710  35.3953016  95.7864004  70.7293764  35.6510544  95.3104115
  72.0105957  36.2101353  95.8916045  85.5358519  42.7358255  98.5369285
  86.3575963  42.3338442  98.2551967  85.5320922  42.6326489  99.4885401
  73.4709455  35.7597595  92.7447481  72.6740618  35.8716289  93.2630976
  73.2435047  36.0984247  91.8788371  79.3015123  42.2842298 100.6929995
  79.3659555  42.7462705 101.5288167  78.5926046  41.6539663 100.8212305
  69.8032413  35.6483506  98.2178995  70.0540451  36.5330516  98.4836571
  70.3391961  35.4688108  97.4454087  93.6264512  39.0797003  94.8854256
  92.8728221  38.5104401  94.7298261  93.7612053  39.0459668  95.8324891
  79.0163140  43.9510406  90.5608976  78.8808815  44.7961941  90.9893824
  79.5572953  44.1529683  89.7974910  75.5030480  30.0301985 107.2223331
  75.1097425  29.4768184 107.8970975  76.3196620  30.3412564 107.6129848
  78.4198441  31.4459864 104.8143588  79.1608154  32.0467018 104.7348050
  78.6516364  30.7037502 104.2561630  73.5639779  36.6316232 103.0921817
  73.4493294  35.7301489 103.3928916  72.7084297  36.8779928 102.7406634
  80.6431617  44.5733972 104.6909318  80.1995471  43.7870351 104.3730222
  81.3048830  44.7613123 104.0253209  75.4018738  46.1029774  99.2169996
  75.9526163  45.9746837  98.4446990  74.5630214  46.4024663  98.8664889
  82.7412855  44.8536772 102.7190719  82.7231330  45.6745653 102.2270988
  83.6632775  44.7290847 102.9440860  79.1985909  42.3680901 103.5614227
  79.7314246  41.6069190 103.3313535  78.6699990  42.0754553 104.3038382
  82.3655604  27.4740967  99.0907869  82.0219873  28.3642609  99.0146980
  82.7334566  27.2842625  98.2277454  82.3305887  37.4649579  87.5980304
  81.8152510  38.2354183  87.8368692  82.0583195  36.7914715  88.2213366
  79.9152998  32.3099279  92.6565543  79.0594594  31.9206130  92.4771181
  80.3279949  32.3891240  91.7965328  81.4452144  29.8445623  97.0557102
  80.9416940  29.8075758  96.2424908  81.7382751  30.7538365  97.1153759
  77.6895030  29.9284352  96.0623284  78.5548027  29.7327161  95.7029174
  77.7572539  29.6994704  96.9892641  87.3040161  40.2181933  89.5333478
  86.5269603  39.8793093  89.0888640  87.9831642  40.2234556  88.8588443
  82.1192190  35.3376671  89.4240085  81.8142325  35.6522820  90.2750229
  83.0722632  35.4158090  89.4667418  80.5638622  41.4966894  91.0733039
  80.0359983  40.7619654  90.7606277  80.0626124  42.2741570  90.8273008
  85.5431468  39.6915914  96.1900086  84.8855142  40.3815176  96.2780214
  86.3471867  40.0812346  96.5334072  75.2957349  32.1586560  93.4339651
  75.8701101  31.9361742  92.7012844  75.8828332  32.2275255  94.1868252
  84.3536926  38.0460287  94.2404028  84.8668808  38.6790279  94.7425737
  85.0038150  37.4461483  93.8747388  77.5980017  29.0327809  92.1614720
  76.9444429  28.7176826  91.5371335  77.5560491  28.4103550  92.8874543
  81.6159301  48.0244611  86.9964699  80.9420999  48.3276308  87.6049656
  82.0025123  48.8273692  86.6470156  80.8317757  35.5209743  96.4862368
  79.9140319  35.7424690  96.3284056  81.2477901  35.5956053  95.6274075
  81.6152805  36.9201158  91.6165048  82.3624624  37.4322556  91.3072170
  81.8844395  36.5985211  92.4769442  79.8879455  39.4159699  88.5992003
  78.9790674  39.1318732  88.6964472  79.9174539  39.8358778  87.7395309
  85.1198723  43.0266289  92.3683170  84.6661050  42.1857198  92.4248361
  84.4892689  43.6627687  92.7057950  84.0631642  33.9558275  93.5983838
  83.3254399  33.4435661  93.9294080  84.3158416  33.5158656  92.7867114
  83.5631662  44.8642785  93.3032988  83.8554636  45.4247842  92.5845354
  84.0730282  45.1571346  94.0586147  84.1643269  26.7334527  94.1925607
  84.4702146  25.8731890  93.9051522  84.8895874  27.3252147  93.9924601
  70.4567626  37.1365213  92.5807205  70.2592025  36.5434574  91.8558271
  69.9014290  36.8317423  93.2983144  78.4364349  37.0288320  94.7001798
  78.4912959  36.0762156  94.6244275  77.6255551  37.1847759  95.1843096
  76.3756709  35.6465379  92.4592177  75.5624575  35.9459550  92.8657369
  76.8715703  35.2521068  93.1766659  78.5265287  45.6423136  94.3926442
  78.4841466  45.8683983  93.4634974  79.4427986  45.4086511  94.5412243
  81.9730921  36.1107204 101.2907071  82.3280309  36.3378677 102.1501536
  82.6203052  36.4425581 100.6684326  87.7028658  39.2325640  91.9956400
  87.5646556  39.4227236  91.0677589  87.3464877  39.9945023  92.4524451
  75.8670784  33.2183735  98.0753412  76.5070163  33.0772494  97.3776375
  75.0348314  32.9318248  97.6992014  87.7298037  41.3002167  97.0067671
  88.1634544  41.2077456  97.8550725  88.4429618  41.2759667  96.3687687
  76.6431088  42.5186165  94.1888404  77.4371686  42.0236485  93.9870979
  75.9322780  41.9904028  93.8256110  81.4625932  44.9004261  98.5400772
  81.5162955  45.4695197  99.3078488  80.5940714  45.0706146  98.1754809
  74.3424326  34.6021817 100.0225223  75.0147379  34.3939179  99.3737872
  73.5154112  34.4043903  99.5830455  88.5913587  41.3425867  99.5400557
  88.7849477  42.2471678  99.7859832  88.4914205  40.8833286 100.3739142
  80.2449898  31.2283758 102.0390884  79.5977813  31.9273708 101.9455360
  81.0150913  31.6619902 102.4067132  83.6528696  41.4932610 105.1141437
  83.5014202  41.2643162 104.1971521  83.6433375  42.4503212 105.1272782
  80.4214032  39.0664523 100.0987704  81.3506092  39.2175683  99.9256671
  80.0005062  39.1548544  99.2436350  79.2202364  43.0915187  97.8686241
  79.0813450  42.7233972  98.7412179  78.4316960  43.6062827  97.6970199
  79.8150516  48.1924284  89.2111778  79.9902271  47.7212327  90.0257401
  79.1283304  48.8190050  89.4393039  80.7707579  42.4696790  95.2575079
  80.4357412  42.4297560  96.1532729  80.2711525  41.8041506  94.7845489
  74.7451823  37.8764420 100.7827660  74.6071621  37.1444659 101.3839199
  75.6556746  37.7873320 100.5011848  83.7066771  39.8152824  85.5312139
  83.0895941  39.0899653  85.4345191  83.2383259  40.5762185  85.1879213
  77.3734124  37.5884379 100.2711340  78.0833742  36.9477572 100.2297958
  77.3303432  37.8397274 101.1937521  85.3620902  44.5251733 103.1917919
  85.3033448  43.8410953 102.5248502  85.7640421  45.2670723 102.7398545
  76.0863058  34.5749597 102.0906979  75.5500415  34.1240336 102.7428576
  75.4979766  34.7095506 101.3477444  74.3811601  51.3413647  95.9851638
  74.6208199  51.9732171  96.6630657  73.5380798  50.9901687  96.2716997
  85.3638310  42.4891317 101.4231899  84.4765088  42.1517238 101.5458298
  85.9336861  41.7574348 101.6600664  67.0167457  38.8215408  94.7474950
  67.7038496  38.5077138  94.1595965  66.8615585  39.7256773  94.4742202
  71.8202179  33.7105605  99.1759974  71.7360368  33.1031275  98.4410384
  70.9984885  34.2014623  99.1769470  78.8939463  47.1492769  98.3893142
  78.8209634  47.9547741  98.9012447  78.4516856  47.3484735  97.5641163
  78.6829243  46.3864539  91.8995964  77.8996764  46.9286219  91.9934188
  79.3821988  46.9038519  92.2990205  81.9925893  32.1959168  94.5430169
  82.4894592  31.4429131  94.2231239  81.2212874  32.2323485  93.9773378
  89.8455650  37.8999534  96.1848460  89.8345526  38.7824249  95.8142394
  88.9773030  37.5471085  95.9902997  81.3538146  47.0479603 100.5451301
  82.0666119  47.6827068 100.4727202  80.8628175  47.1443469  99.7291302
  83.0755673  40.9530856  92.1168592  82.1411952  41.0732318  91.9473297
  83.2532342  40.0503322  91.8528602  78.5760861  34.3376551  94.2701854
  78.2058649  33.7847592  94.9582759  79.0719954  33.7334685  93.7176854
  86.4628225  36.7948175  92.6518626  86.9288677  37.6276167  92.5778929
  86.9135725  36.3293157  93.3563885  76.4050060  44.7974047 101.3656871
  77.1059519  45.4310529 101.5186266  75.9345175  45.1388778 100.6052511
  84.5304456  43.1391996  89.6504779  84.8064300  43.0248591  90.5598653
  83.6608955  42.7409481  89.6116952  84.4344887  29.1628762  96.6909528
  83.5207967  29.3932989  96.8591735  84.8637989  29.2467206  97.5423560
  84.2051346  37.3518654  99.1909422  83.5522796  37.5994561  98.5361875
  84.5831726  36.5382792  98.8571899  81.1658520  47.3878347  93.2937592
  81.3480914  46.5700003  93.7565344  81.9891506  47.6046039  92.8562482
  81.5000685  46.3146532  90.5552641  82.0288452  45.8038987  89.9422803
  81.7628905  45.9989062  91.4198174  80.2538919  38.0938465 105.6775459
  79.5779556  37.9932594 106.3477834  81.0766553  37.9377679 106.1411456
  74.8556433  47.3661649  93.3150417  74.1866809  47.8507777  92.8314457
  74.7169303  47.6130869  94.2293795  66.5935433  36.9016002  97.0192417
  66.6319532  36.3679592  97.8129535  66.0875726  36.3751207  96.4003394
  78.9961702  49.4005392  99.9133075  79.5480010  49.5637014 100.6782160
  79.3367895  49.9909830  99.2413100  73.9726195  31.7480542 100.5154960
  74.0367522  32.6095373 100.1032357  73.9093315  31.1354544  99.7827318
  73.4478468  33.8203675 104.1627994  74.0750506  33.4380752 104.7765518
  72.5906386  33.6017877 104.5283686  83.8472576  44.2266650 105.7681729
  84.3912480  44.8396608 105.2736684  83.2659421  44.7846228 106.2848742
  82.1330089  47.3487368  96.8996757  82.0081229  46.5477108  96.3907703
  82.7909180  47.8433561  96.4110727  73.7538257  33.7036100  96.0773897
  73.0324843  34.3172068  95.9381371  74.5431513  34.2393865  95.9990543
  84.1964998  45.1496388  98.5276307  83.2495333  45.0301739  98.4554634
  84.5447771  44.2618886  98.6102569  76.5564571  31.0390527 102.3514549
  77.0798973  31.2852824 103.1140858  76.3376904  31.8710562 101.9317686
  81.2011431  44.9449104  94.7280659  81.0536393  44.0165812  94.9088229
  82.0264924  44.9669195  94.2437735  84.8045553  45.7677663  95.8145532
  85.7292100  45.5620524  95.6769983  84.6360856  45.5194064  96.7234874
  77.7617116  31.9804222 100.0364220  77.4213936  31.1812035 100.4384899
  77.0556122  32.2805933  99.4641053  78.4133588  29.0653535  98.4891543
  79.2359657  28.5914013  98.3670433  78.6571651  29.8444018  98.9890229
  81.1972945  32.7986942  89.7212777  81.4136560  33.6811580  89.4201605
  80.7167012  32.4073155  88.9918419  75.9372167  35.7572655  96.2983521
  75.7916747  36.0712958  97.1907803  75.4597370  36.3757555  95.7454420
  77.7968549  32.7475203  96.3464411  77.7830118  31.8516296  96.0096709
  78.5140978  32.7545867  96.9802697  79.6494680  33.1812543  98.3917538
  79.3912458  34.1029614  98.3901869  79.1179720  32.7842978  99.0818002
  84.5940869  46.2863330  91.1707624  84.7677746  45.7209753  90.4181476
  85.0869760  47.0864225  90.9887114  70.4117829  38.2978000  99.2371182
  69.8671297  39.0737808  99.3691457  71.2897179  38.6448804  99.0790304
  77.2005445  31.6289583  91.6151981  77.3221357  30.7006230  91.8142868
  76.9107488  31.6428269  90.7030296  80.0696636  29.3144494  94.7518701
  80.0918333  29.3783827  93.7970680  80.4864695  28.4749003  94.9459207
  90.4480260  39.0499753  92.7897923  90.8911406  38.3007079  92.3917047
  89.5706770  39.0409890  92.4071655  85.5816041  45.6030095  88.2704522
  86.2766946  46.2236788  88.4891837  85.9239191  44.7525446  88.5456900
  71.1983851  37.4247896 102.1301339  70.4565587  37.5730531 102.7165970
  70.8776595  37.6856161 101.2668089  87.4807464  43.0529800  89.7991853
  88.0058789  43.3917073  89.0741173  87.3929817  42.1176816  89.6154987
  79.1427513  46.9663874 101.9281729  79.4514640  46.7213021 102.8004429
  79.9402995  47.1710513 101.4400600  79.1648125  49.1201784  94.1587106
  78.7253116  48.6278162  94.8519963  79.9156242  48.5774751  93.9179181
  76.6121997  44.6639793  96.2309408  75.9902007  44.0010498  95.9311635
  77.2826864  44.6900925  95.5483055  76.6846525  33.1421581 105.8241914
  76.7334680  34.0183704 105.4419683  77.2269039  32.5998974 105.2513557
  87.1701371  43.6862704 105.1043051  86.3796914  43.6686843 104.5647550
  86.9334725  44.2250998 105.8592087  87.2899246  40.5355170 102.4175779
  87.3397251  40.3705178 103.3591302  87.1813169  39.6682429 102.0273660
  84.5803008  36.5186098 103.7335086  85.4812871  36.3792563 103.4419084
  84.6550982  36.6840553 104.6733263  78.9145813  33.8952953 102.5788272
  78.0449123  34.1886519 102.3070861  79.1505294  34.4793398 103.2995536
  88.7917442  42.9552112 102.6617801  88.5002251  43.3182092 103.4981262
  88.1789574  42.2419120 102.4831133  89.9913125  40.5204992  95.1820371
  90.8260016  40.9594796  95.3457931  90.1272254  40.0443645  94.3628617
  87.0404631  38.0784727 101.1297859  87.5158752  38.2712373 100.3216710
  86.1170196  38.1343912 100.8841242  81.6184847  30.1132570 100.0953693
  82.1366791  30.8493597  99.7700181  81.2639980  30.4196563 100.9300452
  81.8697441  26.5332853  95.6154589  82.1499195  25.8656042  96.2415016
  82.6548048  26.7261948  95.1029253  79.6730910  45.7091847  87.1779615
  79.1004877  46.3282034  86.7250087  80.2463703  46.2591208  87.7119537
  85.7406300  34.9550487  99.3626164  86.6923723  35.0548584  99.3838388
  85.5709750  34.1628755  99.8724249  83.7620679  32.0406070  99.5485565
  83.1670611  32.3211083  98.8532054  83.4770376  32.5299971 100.3202306
  82.8928170  45.9928997  88.3088198  83.8258843  45.9274558  88.5121073
  82.8051382  46.8285264  87.8502730  85.5216186  45.3094867  85.2692145
  85.4429818  44.9754731  86.1627903  86.3425853  45.8016635  85.2683618
  88.2194377  38.1756606  98.4768464  88.1870698  37.2372607  98.6628148
  88.8295001  38.2540643  97.7434289  88.3688866  34.9667650  98.5226747
  87.8527915  34.1826106  98.3356676  89.2528814  34.6386366  98.6873267
  86.0299593  28.7108665  94.4822560  85.8324414  28.4023754  95.3665892
  86.6399298  29.4370304  94.6120490  94.0370927  39.2372613  97.6174501
  94.7674316  38.9757901  98.1782204  93.4277873  38.5001335  97.6576569
  92.1186224  37.3780476  98.2148952  91.3919388  37.2436441  97.6065444
  91.7033511  37.6857304  99.0205670  79.9416401  41.0970405 105.9796325
  80.8619410  41.2749004 106.1736371  79.9065984  40.1526451 105.8276024
  69.1598566  36.2908999  94.9049600  68.8401350  35.4374307  94.6123974
  68.6131994  36.5057577  95.6607567  72.9378473  39.0071440  98.6219106
  73.1564483  39.9388548  98.6407140  73.3504247  38.6479415  99.4073910
  79.8582691  29.5139525  90.6094794  79.0483420  29.1686610  90.9850041
  80.5467108  29.2047069  91.1982406  81.7873239  28.5917572  92.2319091
  82.3404278  29.0113026  92.8909114  82.0243326  27.6653320  92.2742047
  77.8106339  34.5804646 108.0121855  77.7103066  35.5299003 107.9433946
  77.5927881  34.2522885 107.1397925  69.0286826  39.9111911  96.8742721
  68.3350297  39.4965863  96.3612676  69.7759817  39.9532447  96.2776140
  85.1652047  30.7018097  91.7397755  84.5850716  31.3602901  91.3575808
  84.8987979  29.8795442  91.3285173  83.6155613  30.1023155  93.9419076
  84.1155391  30.2139690  93.1333395  84.2591221  29.7984208  94.5819884
  77.6737609  38.0101785 106.8286917  77.1904690  38.8102145 107.0350806
  77.7598548  38.0209730 105.8754361  70.9423568  39.8430164  94.7508736
  70.9194256  39.9417852  93.7990619  71.2524205  40.6895315  95.0725902
  73.6010946  41.9006319  98.8655350  74.5554200  41.8690262  98.7985282
  73.4023470  41.4396943  99.6805576  74.1910328  40.4707435 101.4326148
  75.0103217  40.9651514 101.4560985  74.4647136  39.5539404 101.4043716
  83.9476925  32.8618188  90.7954104  83.0602780  33.1467838  90.5774298
  84.3630914  32.7011951  89.9481381  87.2991461  32.8864709  94.5108443
  88.0751851  33.3761161  94.7833060  86.5739595  33.3122763  94.9680312
  89.7364019  33.5992328  95.5682384  90.3308510  33.3588064  94.8575692
  89.8090603  32.8799459  96.1955920  83.0920138  42.6262862  84.8902124
  83.7955988  42.8312865  85.5059779  82.3682787  43.1939624  85.1551207
  83.9217948  38.3772724  91.0104394  83.8653150  38.8341275  90.1712026
  84.4746291  37.6163408  90.8327237  87.7322754  34.1662456  91.8354513
  87.4759688  33.7659091  92.6662721  87.1075622  34.8806249  91.7104652
  92.0435092  36.9058529  94.3425805  91.4834650  36.9751718  95.1157367
  91.4378595  36.7299513  93.6225301  75.1130301  48.3395256  96.0943991
  74.9962685  49.2840688  95.9922681  74.2922747  48.0368817  96.4829790
  85.0006835  43.0645392  86.9400584  85.8352439  42.6326590  86.7578058
  84.8391178  42.8927405  87.8677478  84.6552728  39.5677505  88.3056923
  84.6001531  39.4021776  87.3645367  84.0298783  40.2753538  88.4619113
  69.4445243  34.8045569 102.1318345  70.0904106  34.2944523 102.6205570
  69.2362394  35.5414251 102.7061770  81.9698635  41.8726417 107.6310486
  82.8389794  42.0467069 107.2697121  81.4905386  42.6920834 107.5086215
  76.1384815  48.9923518  99.3099919  77.0412062  49.0247128  99.6266414
  75.9122185  48.0623969  99.3246255  77.8938417  47.7454504  95.9709998
  76.9434048  47.7456366  95.8574370  78.1970903  46.9987239  95.4546033
  81.7800973  25.6628391  92.1388178  81.0133368  25.1086877  92.2844861
  82.1911678  25.7350259  93.0002330  73.7842734  31.9513186 106.2293359
  74.6474195  31.5949991 106.4396684  73.2108144  31.6127081 106.9168764
  93.6291111  53.5815043  97.0355760  94.2669520  53.4621790  96.3319101
  93.5111953  54.5295887  97.0943713  90.4380817  53.5342471  96.9717285
  90.0999328  53.4183536  96.0837820  91.3070585  53.1333636  96.9518291
  86.2967633  55.3877947  92.9614176  85.7332498  55.2967884  92.1930464
  86.1820028  54.5677852  93.4416669  90.9200600  54.6877323 102.9303491
  90.9089241  54.2930121 102.0583994  91.0821239  53.9543395 103.5237262
  83.8432064  56.8829139  95.7998397  84.6353356  56.5419964  95.3844696
  84.0828715  56.9924114  96.7200550  91.8767191  59.0548915  88.2728641
  91.2255171  59.6402995  87.8862655  92.6711554  59.5855110  88.3323678
  85.8022818  56.1438052  88.6715775  86.5753694  55.5967039  88.5328651
  86.1548217  57.0082301  88.8830237  87.6407861  57.4714434 101.8782675
  87.3497727  58.3760065 101.7629341  88.2764845  57.5130962 102.5926744
  88.5664068  54.8491283  98.4684034  89.1627640  54.6247305  97.7540997
  88.6239039  54.1076028  99.0709482  93.1832379  51.3066497  94.1108968
  93.9695468  50.8885920  93.7599385  93.4471083  52.2112589  94.2790617
  93.3542456  56.7439347  88.8097625  92.7188289  56.8173973  89.5218530
  93.0239863  57.3332946  88.1316705  98.5840806  51.2441730  95.0141947
  99.3165978  50.6740947  95.2479776  97.8280162  50.8563330  95.4548453
  90.2016926  53.6668971  92.2105289  89.8375133  53.1399592  92.9218211
  91.0584042  53.2767440  92.0371775  96.1066226  44.9563304  99.4736556
  95.7749551  45.8258715  99.2497771  95.5111840  44.6399588 100.1530586
  89.8422413  48.6958871  87.2066638  90.0096815  49.5639107  87.5737109
  89.6519582  48.8586153  86.2827927  92.5997746  57.1575850  98.8732468
  92.2998469  58.0600889  98.7648276  92.2548806  56.8908033  99.7253621
  86.0510228  53.6089647  94.9069173  85.1260724  53.4765861  95.1146865
  86.2994641  54.3883866  95.4039115  95.9994890  49.6758390  96.5529906
  95.0911767  49.6073799  96.2588667  95.9482486  50.1530335  97.3811731
  89.8211634  51.1516528  88.1913305  89.7011259  51.5973579  89.0298785
  89.1264222  51.5001846  87.6326843  83.4119039  53.2522920  95.7412962
  83.5411420  53.5057399  96.6552374  82.7316490  53.8450628  95.4217617
  87.5818526  63.9220170  91.8403436  87.5042556  64.8727995  91.9191917
  86.9780169  63.5766043  92.4978362  90.0735756  51.0948036 104.4964803
  89.2969090  51.6541956 104.4867668  90.7126319  51.5804819 105.0179673
  97.8656536  47.8774828  98.3307780  97.2230916  48.1707362  97.6847574
  97.3611465  47.7627749  99.1360976  95.5196700  51.6238002  89.0193639
  96.4314556  51.8565388  88.8441336  95.0106347  52.2075046  88.4568717
  88.3282128  53.9033489 104.0582770  89.0696812  54.4418533 103.7817594
  87.6219113  54.5299778 104.2154322  93.8037468  56.0462629 102.6554931
  94.2120824  55.6045040 101.9109564  93.0814729  55.4715257 102.9089124
  90.1568538  50.9835236 100.0288488  91.0029733  51.4074650 100.1723137
  90.0967175  50.3268861 100.7227051  94.1266282  56.6063820  96.4107220
  93.4975145  56.7709534  95.7083288  93.7391944  57.0205430  97.1818184
  98.0055514  57.5418258  93.7651584  97.3206552  57.9217159  93.2148617
  98.0899363  58.1513585  94.4983532  93.3067983  48.6439605 101.6869662
  93.0628915  49.3981665 101.1503938  93.5827913  49.0224952 102.5216909
  95.2606446  55.1878217 100.3646928  95.4723341  55.8309977  99.6881309
  95.2136194  54.3540534  99.8968858  92.8632675  47.7996038  97.2683500
  92.0017154  48.0977291  97.5600237  92.8895109  48.0166437  96.3364532
  89.6794244  56.3438228  93.6757305  90.1432590  56.6225931  92.8861928
  89.4151042  55.4421673  93.4930396  86.5718325  55.8909710  96.6137069
  87.1419682  56.3196978  95.9754553  87.1626437  55.6092294  97.3121254
  88.6163130  52.4661381  90.4846871  89.3187173  52.9182424  90.9520797
  88.2843759  51.8245199  91.1126764  87.0643492  51.0573137 104.8598080
  86.4342152  51.7389418 105.0933477  86.9579580  50.9456219 103.9151218
  82.3588464  50.7244933  95.7864004  81.5687518  50.9802462  95.3104115
  82.8499711  51.5393271  95.8916045  96.3752274  58.0650172  98.5369285
  97.1969717  57.6630360  98.2551967  96.3714677  57.9618407  99.4885401
  84.3103209  51.0889512  92.7447481  83.5134373  51.2008207  93.2630976
  84.0828802  51.4276165  91.8788371  90.1408877  57.6134216 100.6929995
  90.2053310  58.0754623 101.5288167  89.4319801  56.9831581 100.8212305
  80.6426167  50.9775424  98.2178995  80.8934205  51.8622434  98.4836571
  81.1785715  50.7980025  97.4454087 104.4658267  54.4088921  94.8854256
 103.7121975  53.8396319  94.7298261 104.6005808  54.3751585  95.8324891
  89.8556895  59.2802323  90.5608976  89.7202570  60.1253859  90.9893824
  90.3966707  59.4821601  89.7974910  86.3424234  45.3593903 107.2223331
  85.9491180  44.8060102 107.8970975  87.1590375  45.6704482 107.6129848
  83.3086292  56.7977761  91.1336901  83.8210813  57.5921011  91.2842466
  83.9609005  56.1004052  91.0670502  85.1181177  59.9143518  93.2159654
  85.2947805  60.8361482  93.0280638  85.9138010  59.6001937  93.6454034
  89.2592195  46.7751782 104.8143588  90.0001909  47.3758935 104.7348050
  89.4910118  46.0329420 104.2561630  84.4033533  51.9608149 103.0921817
  84.2887049  51.0593407 103.3928916  83.5478051  52.2071846 102.7406634
  91.4825371  59.9025890 104.6909318  91.0389225  59.1162268 104.3730222
  92.1442585  60.0905040 104.0253209  86.2412492  61.4321691  99.2169996
  86.7919917  61.3038755  98.4446990  85.4023968  61.7316580  98.8664889
  93.5806609  60.1828690 102.7190719  93.5625085  61.0037571 102.2270988
  94.5026529  60.0582765 102.9440860  90.0379663  57.6972819 103.5614227
  90.5708000  56.9361107 103.3313535  89.5093744  57.4046471 104.3038382
  93.2049358  42.8032885  99.0907869  92.8613628  43.6934527  99.0146980
  93.5728321  42.6134543  98.2277454  81.2735209  55.1266416  91.9096471
  82.1110431  55.5363424  91.6930179  81.4513477  54.1865858  91.8796665
  93.1699641  52.7941496  87.5980304  92.6546264  53.5646101  87.8368692
  92.8976949  52.1206632  88.2213366  90.7546752  47.6391197  92.6565543
  89.8988348  47.2498047  92.4771181  91.1673704  47.7183158  91.7965328
  92.2845899  45.1737540  97.0557102  91.7810694  45.1367675  96.2424908
  92.5776506  46.0830283  97.1153759  88.5288785  45.2576270  96.0623284
  89.3941781  45.0619079  95.7029174  88.5966294  45.0286622  96.9892641
  98.1433915  55.5473851  89.5333478  97.3663358  55.2085010  89.0888640
  98.8225396  55.5526474  88.8588443  92.9585944  50.6668588  89.4240085
  92.6536080  50.9814737  90.2750229  93.9116386  50.7450008  89.4667418
  91.4032376  56.8258812  91.0733039  90.8753738  56.0911571  90.7606277
  90.9019879  57.6033488  90.8273008  96.3825222  55.0207832  96.1900086
  95.7248897  55.7107093  96.2780214  97.1865621  55.4104264  96.5334072
  86.1351104  47.4878478  93.4339651  86.7094856  47.2653659  92.7012844
  86.7222086  47.5567172  94.1868252  95.1930681  53.3752205  94.2404028
  95.7062563  54.0082197  94.7425737  95.8431905  52.7753400  93.8747388
  86.4620691  49.5182939  87.4535536  85.6258003  49.8557625  87.7744811
  86.3225460  49.3831919  86.5162673  88.4373771  44.3619727  92.1614720
  87.7838184  44.0468744  91.5371335  88.3954246  43.7395467  92.8874543
  92.4553055  63.3536529  86.9964699  91.7814754  63.6568226  87.6049656
  92.8418877  64.1565609  86.6470156  91.6711512  50.8501660  96.4862368
  90.7534073  51.0716607  96.3284056  92.0871655  50.9247971  95.6274075
  92.4546560  52.2493076  91.6165048  93.2018378  52.7614473  91.3072170
  92.7238149  51.9277129  92.4769442  90.7273210  54.7451617  88.5992003
  89.8184429  54.4610650  88.6964472  90.7568293  55.1650695  87.7395309
  95.9592477  58.3558206  92.3683170  95.5054804  57.5149116  92.4248361
  95.3286444  58.9919605  92.7057950  94.9025397  49.2850192  93.5983838
  94.1648153  48.7727578  93.9294080  95.1552170  48.8450574  92.7867114
  94.4025416  60.1934703  93.3032988  94.6948391  60.7539760  92.5845354
  94.9124037  60.4863264  94.0586147  95.0037024  42.0626444  94.1925607
  95.3095901  41.2023808  93.9051522  95.7289629  42.6544064  93.9924601
  81.2961380  52.4657131  92.5807205  81.0985780  51.8726492  91.8558271
  80.7408044  52.1609341  93.2983144  89.2758104  52.3580237  94.7001798
  89.3306714  51.4054074  94.6244275  88.4649306  52.5139676  95.1843096
  87.2150464  50.9757297  92.4592177  86.4018329  51.2751468  92.8657369
  87.7109458  50.5812986  93.1766659  89.3659042  60.9715054  94.3926442
  89.3235220  61.1975900  93.4634974  90.2821740  60.7378429  94.5412243
  92.8124675  51.4399122 101.2907071  93.1674063  51.6670595 102.1501536
  93.4596807  51.7717498 100.6684326  98.5422412  54.5617557  91.9956400
  98.4040311  54.7519153  91.0677589  98.1858631  55.3236940  92.4524451
  86.7064538  48.5475653  98.0753412  87.3463918  48.4064412  97.3776375
  85.8742069  48.2610166  97.6992014  98.5691792  56.6294084  97.0067671
  99.0028299  56.5369374  97.8550725  99.2823373  56.6051585  96.3687687
  87.4824842  57.8478083  94.1888404  88.2765441  57.3528403  93.9870979
  86.7716535  57.3195946  93.8256110  92.3019687  60.2296179  98.5400772
  92.3556709  60.7987115  99.3078488  91.4334468  60.3998064  98.1754809
  83.7907606  51.9921165  90.2648157  82.8605194  51.9305620  90.4818119
  83.8865078  51.4697118  89.4684798  83.7093155  48.5175978  92.8526399
  83.9699972  49.4321311  92.7435559  84.5310327  48.0500420  93.0023011
  85.1818080  49.9313735 100.0225223  85.8541134  49.7231097  99.3737872
  84.3547867  49.7335821  99.5830455  99.4307341  56.6717785  99.5400557
  99.6243232  57.5763596  99.7859832  99.3307960  56.2125204 100.3739142
  91.0843652  46.5575676 102.0390884  90.4371567  47.2565625 101.9455360
  91.8544668  46.9911820 102.4067132  94.4922450  56.8224528 105.1141437
  94.3407957  56.5935080 104.1971521  94.4827130  57.7795129 105.1272782
  91.2607787  54.3956441 100.0987704  92.1899847  54.5467600  99.9256671
  90.8398817  54.4840461  99.2436350  90.0596118  58.4207105  97.8686241
  89.9207204  58.0525889  98.7412179  89.2710715  58.9354744  97.6970199
  90.6544270  63.5216201  89.2111778  90.8296026  63.0504245  90.0257401
  89.9677058  64.1481968  89.4393039  91.6101333  57.7988708  95.2575079
  91.2751166  57.7589478  96.1532729  91.1105279  57.1333424  94.7845489
  85.5845577  53.2056338 100.7827660  85.4465375  52.4736577 101.3839199
  86.4950501  53.1165238 100.5011848  94.5460525  55.1444742  85.5312139
  93.9289696  54.4191570  85.4345191  94.0777014  55.9054102  85.1879213
  88.2127878  52.9176297 100.2711340  88.9227497  52.2769489 100.2297958
  88.1697186  53.1689192 101.1937521  96.2014657  59.8543650 103.1917919
  96.1427203  59.1702871 102.5248502  96.6034175  60.5962640 102.7398545
  86.9256812  49.9041515 102.0906979  86.3894169  49.4532253 102.7428576
  86.3373521  50.0387424 101.3477444  85.2205356  66.6705564  95.9851638
  85.4601954  67.3024088  96.6630657  84.3774552  66.3193604  96.2716997
  86.3359071  49.3630166  84.6533443  85.4588537  49.2418967  84.2895690
  86.8116824  48.5716245  84.4012332  96.2032064  57.8183234 101.4231899
  95.3158843  57.4809156 101.5458298  96.7730615  57.0866266 101.6600664
  77.8561211  54.1507326  94.7474950  78.5432251  53.8369056  94.1595965
  77.7009340  55.0548691  94.4742202  82.6595933  49.0397523  99.1759974
  82.5754122  48.4323192  98.4410384  81.8378640  49.5306541  99.1769470
  89.7333217  62.4784687  98.3893142  89.6603389  63.2839658  98.9012447
  89.2910611  62.6776653  97.5641163  89.5222997  61.7156457  91.8995964
  88.7390519  62.2578137  91.9934188  90.2215742  62.2330436  92.2990205
  92.8319647  47.5251086  94.5430169  93.3288347  46.7721048  94.2231239
  92.0606629  47.5615403  93.9773378 100.6849405  53.2291452  96.1848460
 100.6739281  54.1116167  95.8142394  99.8166784  52.8763003  95.9902997
  92.1931901  62.3771521 100.5451301  92.9059873  63.0118986 100.4727202
  91.7021930  62.4735387  99.7291302  93.9149428  56.2822773  92.1168592
  92.9805707  56.4024236  91.9473297  94.0926096  55.3795240  91.8528602
  89.4154616  49.6668469  94.2701854  89.0452403  49.1139510  94.9582759
  89.9113708  49.0626603  93.7176854  97.3021979  52.1240093  92.6518626
  97.7682431  52.9568084  92.5778929  97.7529480  51.6585074  93.3563885
  87.2443814  60.1265964 101.3656871  87.9453274  60.7602447 101.5186266
  86.7738929  60.4680696 100.6052511  95.3698210  58.4683914  89.6504779
  95.6458054  58.3540509  90.5598653  94.5002709  58.0701399  89.6116952
  95.2738642  44.4920680  96.6909528  94.3601722  44.7224907  96.8591735
  95.7031743  44.5759124  97.5423560  95.0445100  52.6810572  99.1909422
  94.3916551  52.9286479  98.5361875  95.4225480  51.8674710  98.8571899
  92.0052274  62.7170265  93.2937592  92.1874669  61.8991921  93.7565344
  92.8285260  62.9337957  92.8562482  92.3394440  61.6438450  90.5552641
  92.8682206  61.1330905  89.9422803  92.6022659  61.3280980  91.4198174
  91.0932673  53.4230383 105.6775459  90.4173310  53.3224512 106.3477834
  91.9160307  53.2669596 106.1411456  82.8411533  59.6602319  98.2987974
  83.4264969  58.9146007  98.4315878  82.6436371  59.9706276  99.1824638
  85.6950188  62.6953567  93.3150417  85.0260563  63.1799694  92.8314457
  85.5563057  62.9422787  94.2293795  77.4329187  52.2307919  97.0192417
  77.4713287  51.6971510  97.8129535  76.9269480  51.7043125  96.4003394
  89.8355456  64.7297310  99.9133075  90.3873764  64.8928932 100.6782160
  90.1761650  65.3201748  99.2413100  84.8119950  47.0772460 100.5154960
  84.8761276  47.9387291 100.1032357  84.7487070  46.4646462  99.7827318
  84.2872222  49.1495592 104.1627994  84.9144261  48.7672670 104.7765518
  83.4300141  48.9309794 104.5283686  94.6866331  59.5558568 105.7681729
  95.2306235  60.1688526 105.2736684  94.1053176  60.1138146 106.2848742
  81.0637765  50.9572022  90.0946349  81.3591206  50.0482700  90.0413402
  80.1625801  50.9359761  89.7727351  92.9723844  62.6779286  96.8996757
  92.8474983  61.8769026  96.3907703  93.6302935  63.1725479  96.4110727
  84.5932012  49.0328018  96.0773897  83.8718598  49.6463986  95.9381371
  85.3825268  49.5685783  95.9990543  95.0358752  60.4788306  98.5276307
  94.0889088  60.3593657  98.4554634  95.3841525  59.5910804  98.6102569
  87.3958325  46.3682445 102.3514549  87.9192727  46.6144741 103.1140858
  87.1770659  47.2002479 101.9317686  82.7925606  48.6386119  90.2185674
  82.4638313  47.7583498  90.0360780  83.1464977  48.5833788  91.1062063
  92.0405185  60.2741022  94.7280659  91.8930148  59.3457729  94.9088229
  92.8658679  60.2961113  94.2437735  85.9067430  48.9259089  90.5861152
  86.2463502  49.4545010  89.8639760  86.3539550  49.2639495  91.3619718
  95.6439307  61.0969581  95.8145532  96.5685855  60.8912442  95.6769983
  95.4754611  60.8485982  96.7234874  88.6010870  47.3096140 100.0364220
  88.2607691  46.5103953 100.4384899  87.8949877  47.6097851  99.4641053
  89.2527342  44.3945452  98.4891543  90.0753412  43.9205930  98.3670433
  89.4965406  45.1735936  98.9890229  87.8935577  47.4233711  88.7854444
  88.6143939  47.8014963  88.2818161  87.2700881  48.1422587  88.8889422
  92.0366700  48.1278860  89.7212777  92.2530314  49.0103497  89.4201605
  91.5560767  47.7365073  88.9918419  86.7765921  51.0864573  96.2983521
  86.6310502  51.4004876  97.1907803  86.2991125  51.7049473  95.7454420
  88.6362304  48.0767121  96.3464411  88.6223873  47.1808214  96.0096709
  89.3534732  48.0837785  96.9802697  90.4888435  48.5104461  98.3917538
  90.2306212  49.4321532  98.3901869  89.9573475  48.1134896  99.0818002
  95.4334623  61.6155248  91.1707624  95.6071501  61.0501671  90.4181476
  95.9263515  62.4156143  90.9887114  81.2511583  53.6269917  99.2371182
  80.7065051  54.4029725  99.3691457  82.1290933  53.9740722  99.0790304
  88.0399200  46.9581501  91.6151981  88.1615111  46.0298147  91.8142868
  87.7501242  46.9720187  90.7030296  90.9090390  44.6436412  94.7518701
  90.9312087  44.7075745  93.7970680  91.3258449  43.8040920  94.9459207
 101.2874015  54.3791671  92.7897923 101.7305161  53.6298996  92.3917047
 100.4100525  54.3701807  92.4071655  96.4209796  60.9322013  88.2704522
  97.1160700  61.5528705  88.4891837  96.7632946  60.0817364  88.5456900
  82.0377605  52.7539813 102.1301339  81.2959341  52.9022449 102.7165970
  81.7170349  53.0148079 101.2668089  98.3201219  58.3821718  89.7991853
  98.8452543  58.7208991  89.0741173  98.2323572  57.4468733  89.6154987
  89.9821268  62.2955792 101.9281729  90.2908394  62.0504938 102.8004429
  90.7796750  62.5002430 101.4400600  90.0041880  64.4493701  94.1587106
  89.5646870  63.9570080  94.8519963  90.7549997  63.9066669  93.9179181
  82.4834219  60.6405242  94.1611734  83.3092239  60.3409014  93.7810377
  82.1328271  59.8712865  94.6101523  87.4515752  59.9931710  96.2309408
  86.8295761  59.3302415  95.9311635  88.1220619  60.0192842  95.5483055
  80.6842824  58.5591569  95.1200668  79.8474732  58.1313743  94.9384669
  80.6566469  58.7524012  96.0571459  87.5240279  48.4713498 105.8241914
  87.5728435  49.3475621 105.4419683  88.0662794  47.9290892 105.2513557
  98.0095125  59.0154622 105.1043051  97.2190669  58.9978761 104.5647550
  97.7728480  59.5542915 105.8592087  98.1293000  55.8647088 102.4175779
  98.1791005  55.6997096 103.3591302  98.0206923  54.9974347 102.0273660
  87.0129259  58.5435634  89.7067868  87.1617379  59.2271098  89.0534541
  87.8195702  58.5240724  90.2217324  95.4196762  51.8478016 103.7335086
  96.3206625  51.7084481 103.4419084  95.4944737  52.0132471 104.6733263
  89.7539568  49.2244871 102.5788272  88.8842877  49.5178437 102.3070861
  89.9899048  49.8085316 103.2995536  99.6311197  58.2844030 102.6617801
  99.3396005  58.6474010 103.4981262  99.0183328  57.5711038 102.4831133
 100.8306879  55.8496909  95.1820371 101.6653771  56.2886713  95.3457931
 100.9666008  55.3735563  94.3628617  97.8798385  53.4076644 101.1297859
  98.3552507  53.6004291 100.3216710  96.9563951  53.4635830 100.8841242
  84.7681892  54.5700811  90.7128937  84.5227934  53.6663141  90.9109147
  84.9377806  54.5717962  89.7708415  92.4578602  45.4424488 100.0953693
  92.9760546  46.1785515  99.7700181  92.1033734  45.7488481 100.9300452
  84.0377539  50.3029169  88.2115098  83.3446784  50.3773524  87.5555134
  83.7929291  49.5389513  88.7336615  92.7091196  41.8624770  95.6154589
  92.9892950  41.1947959  96.2415016  93.4941803  42.0553866  95.1029253
  90.5124664  61.0383764  87.1779615  89.9398631  61.6573951  86.7250087
  91.0857458  61.5883126  87.7119537  96.5800054  50.2842404  99.3626164
  97.5317477  50.3840502  99.3838388  96.4103505  49.4920673  99.8724249
  94.6014434  47.3697988  99.5485565  94.0064366  47.6503000  98.8532054
  94.3164130  47.8591888 100.3202306  93.7321924  61.3220914  88.3088198
  94.6652597  61.2566476  88.5121073  93.6445137  62.1577181  87.8502730
  96.3609941  60.6386785  85.2692145  96.2823572  60.3046648  86.1627903
  97.1819608  61.1308553  85.2683618  99.0588132  53.5048524  98.4768464
  99.0264452  52.5664525  98.6628148  99.6688756  53.5832561  97.7434289
  90.8971463  52.3744577  84.5195668  91.8430568  52.2450785  84.5884086
  90.5185708  51.6359239  84.9965096  99.2082620  50.2959567  98.5226747
  98.6921669  49.5118024  98.3356676 100.0922569  49.9678284  98.6873267
  96.8693347  44.0400583  94.4822560  96.6718168  43.7315671  95.3665892
  97.4793053  44.7662222  94.6120490 104.8764682  54.5664531  97.6174501
 105.6068070  54.3049819  98.1782204 104.2671627  53.8293253  97.6576569
 102.9579979  52.7072393  98.2148952 102.2313142  52.5728358  97.6065444
 102.5427266  53.0149222  99.0205670  90.7810155  56.4262323 105.9796325
  91.7013165  56.6040922 106.1736371  90.7459738  55.4818368 105.8276024
  89.0814380  50.2994553  84.4550553  88.1745835  50.0027666  84.5313267
  89.3590361  50.0024371  83.5884839  79.9992320  51.6200917  94.9049600
  79.6795105  50.7666225  94.6123974  79.4525749  51.8349495  95.6607567
  83.7772228  54.3363358  98.6219106  83.9958238  55.2680466  98.6407140
  84.1898002  53.9771332  99.4073910  90.6976446  44.8431443  90.6094794
  89.8877174  44.4978528  90.9850041  91.3860863  44.5338987  91.1982406
  92.6266994  43.9209490  92.2319091  93.1798033  44.3404943  92.8909114
  92.8637080  42.9945238  92.2742047  88.6500093  49.9096564 108.0121855
  88.5496820  50.8590920 107.9433946  88.4321635  49.5814802 107.1397925
  87.8513165  47.1581489  84.5962532  88.7132329  47.4836387  84.8558350
  88.0363509  46.3712984  84.0835598  79.8680580  55.2403828  96.8742721
  79.1744052  54.8257781  96.3612676  80.6153571  55.2824365  96.2776140
  96.0045801  46.0310015  91.7397755  95.4244470  46.6894819  91.3575808
  95.7381734  45.2087360  91.3285173  94.4549367  45.4315073  93.9419076
  94.9549146  45.5431607  93.1333395  95.0984975  45.1276126  94.5819884
  88.5131363  53.3393702 106.8286917  88.0298445  54.1394062 107.0350806
  88.5992302  53.3501647 105.8754361  81.7817323  55.1722082  94.7508736
  81.7588011  55.2709769  93.7990619  82.0917959  56.0187233  95.0725902
  84.4404701  57.2298237  98.8655350  85.3947954  57.1982179  98.7985282
  84.2417224  56.7688861  99.6805576  85.0304083  55.7999353 101.4326148
  85.8496972  56.2943432 101.4560985  85.3040891  54.8831321 101.4043716
  94.7870679  48.1910105  90.7954104  93.8996534  48.4759756  90.5774298
  95.2024668  48.0303869  89.9481381  98.1385215  48.2156626  94.5108443
  98.9145605  48.7053079  94.7833060  97.4133349  48.6414681  94.9680312
 100.5757774  48.9284246  95.5682384 101.1702265  48.6879982  94.8575692
 100.6484358  48.2091376  96.1955920  82.7954930  62.7717857  95.8825548
  82.6609397  62.0118257  95.3163546  82.3786992  63.4958756  95.4154337
  93.9313893  57.9554780  84.8902124  94.6349743  58.1604783  85.5059779
  93.2076541  58.5231542  85.1551207  94.7611703  53.7064641  91.0104394
  94.7046904  54.1633193  90.1712026  95.3140045  52.9455326  90.8327237
  98.5716509  49.4954373  91.8354513  98.3153443  49.0951009  92.6662721
  97.9469377  50.2098167  91.7104652 102.8828847  52.2350446  94.3425805
 102.3228405  52.3043636  95.1157367 102.2772350  52.0591431  93.6225301
  85.9524055  63.6687174  96.0943991  85.8356440  64.6132606  95.9922681
  85.1316502  63.3660735  96.4829790  95.8400590  58.3937309  86.9400584
  96.6746194  57.9618508  86.7578058  95.6784933  58.2219323  87.8677478
  95.4946482  54.8969423  88.3056923  95.4395286  54.7313694  87.3645367
  94.8692537  55.6045456  88.4619113  80.2838997  50.1337487 102.1318345
  80.9297861  49.6236441 102.6205570  80.0756148  50.8706169 102.7061770
  92.8092389  57.2018334 107.6310486  93.6783549  57.3758987 107.2697121
  92.3299141  58.0212751 107.5086215  88.8042608  44.3977532  87.8842241
  88.7921277  45.3419372  88.0410512  89.6966029  44.2147677  87.5901703
  86.9778570  64.3215435  99.3099919  87.8805816  64.3539046  99.6266414
  86.7515940  63.3915886  99.3246255  88.7332172  63.0746422  95.9709998
  87.7827803  63.0748284  95.8574370  89.0364658  62.3279157  95.4546033
  92.6194727  40.9920308  92.1388178  91.8527123  40.4378795  92.2844861
  93.0305432  41.0642177  93.0002330  84.6236488  47.2805104 106.2293359
  85.4867950  46.9241909 106.4396684  84.0501899  46.9418999 106.9168764
 104.4684865  68.9106960  97.0355760 105.1063275  68.7913708  96.3319101
 104.3505708  69.8587804  97.0943713 101.2774571  68.8634389  96.9717285
 100.9393083  68.7475453  96.0837820 102.1464340  68.4625554  96.9518291
  97.1361387  70.7169865  92.9614176  96.5726252  70.6259802  92.1930464
  97.0213782  69.8969769  93.4416669 101.7594354  70.0169240 102.9303491
 101.7482995  69.6222039 102.0583994 101.9214994  69.2835313 103.5237262
  94.6825819  72.2121057  95.7998397  95.4747111  71.8711881  95.3844696
  94.9222469  72.3216032  96.7200550 102.7160946  74.3840833  88.2728641
 102.0648925  74.9694913  87.8862655 103.5105309  74.9147028  88.3323678
  98.4801615  72.8006352 101.8782675  98.1891481  73.7051983 101.7629341
  99.1158600  72.8422880 102.5926744  99.4057822  70.1783201  98.4684034
 100.0021395  69.9539223  97.7540997  99.4632794  69.4367946  99.0709482
  98.9782851  67.6322636  86.3034225  99.2308371  67.1104157  85.5417688
  98.0407410  67.4688781  86.4060909 104.0226134  66.6358414  94.1108968
 104.8089223  66.2177837  93.7599385 104.2864838  67.5404506  94.2790617
 104.1936211  72.0731265  88.8097625 103.5582044  72.1465891  89.5218530
 103.8633617  72.6624863  88.1316705 109.4234561  66.5733647  95.0141947
 110.1559733  66.0032864  95.2479776 108.6673916  66.1855248  95.4548453
  98.6979139  69.5350742  88.5058600  98.5815398  68.8595645  89.1739685
  98.8081399  69.0483116  87.6890753 101.0410680  68.9960889  92.2105289
 100.6768888  68.4691510  92.9218211 101.8977796  68.6059358  92.0371775
 106.9459981  60.2855222  99.4736556 106.6143306  61.1550633  99.2497771
 106.3505594  59.9691506 100.1530586 100.6816167  64.0250789  87.2066638
 100.8490570  64.8931025  87.5737109 100.4913336  64.1878070  86.2827927
 103.4391501  72.4867768  98.8732468 103.1392224  73.3892806  98.7648276
 103.0942560  72.2199951  99.7253621  96.8903982  68.9381564  94.9069173
  95.9654478  68.8057779  95.1146865  97.1388395  69.7175784  95.4039115
 106.8388644  65.0050308  96.5529906 105.9305522  64.9365716  96.2588667
 106.7876240  65.4822253  97.3811731 100.6605388  66.4808446  88.1913305
 100.5405013  66.9265497  89.0298785  99.9657977  66.8293764  87.6326843
  94.2512793  68.5814838  95.7412962  94.3805174  68.8349317  96.6552374
  93.5710244  69.1742546  95.4217617  98.4212280  79.2512088  91.8403436
  98.3436310  80.2019913  91.9191917  97.8173924  78.9057960  92.4978362
 100.9129510  66.4239953 104.4964803 100.1362844  66.9833873 104.4867668
 101.5520073  66.9096736 105.0179673 108.7050291  63.2066746  98.3307780
 108.0624671  63.4999279  97.6847574 108.2005219  63.0919666  99.1360976
 106.3590454  66.9529919  89.0193639 107.2708310  67.1857306  88.8441336
 105.8500101  67.5366964  88.4568717  99.1675882  69.2325407 104.0582770
  99.9090567  69.7710451 103.7817594  98.4612868  69.8591695 104.2154322
 104.6431222  71.3754547 102.6554931 105.0514578  70.9336958 101.9109564
 103.9208484  70.8007175 102.9089124 100.9962292  66.3127154 100.0288488
 101.8423487  66.7366567 100.1723137 100.9360930  65.6560778 100.7227051
 104.9660037  71.9355738  96.4107220 104.3368899  72.1001452  95.7083288
 104.5785699  72.3497347  97.1818184 108.8449269  72.8710176  93.7651584
 108.1600307  73.2509077  93.2148617 108.9293118  73.4805502  94.4983532
 104.1461737  63.9731522 101.6869662 103.9022669  64.7273583 101.1503938
 104.4221668  64.3516870 102.5216909 106.1000200  70.5170135 100.3646928
 106.3117095  71.1601895  99.6881309 106.0529948  69.6832451  99.8968858
 103.7026429  63.1287955  97.2683500 102.8410908  63.4269209  97.5600237
 103.7288864  63.3458354  96.3364532 100.5187999  71.6730146  93.6757305
 100.9826344  71.9517849  92.8861928 100.2544797  70.7713590  93.4930396
  97.4112080  71.2201627  96.6137069  97.9813437  71.6488896  95.9754553
  98.0020191  70.9384212  97.3121254  99.4556885  67.7953298  90.4846871
 100.1580928  68.2474342  90.9520797  99.1237513  67.1537117  91.1126764
  97.9037246  66.3865055 104.8598080  97.2735907  67.0681336 105.0933477
  97.7973334  66.2748136 103.9151218  93.1982219  66.0536851  95.7864004
  92.4081273  66.3094379  95.3104115  93.6893466  66.8685189  95.8916045
 107.2146028  73.3942090  98.5369285 108.0363472  72.9922277  98.2551967
 107.2108431  73.2910324  99.4885401  95.1496964  66.4181430  92.7447481
  94.3528127  66.5300124  93.2630976  94.9222556  66.7568082  91.8788371
 100.9802632  72.9426133 100.6929995 101.0447064  73.4046541 101.5288167
 100.2713555  72.3123498 100.8212305  91.4819922  66.3067341  98.2178995
  91.7327960  67.1914351  98.4836571  92.0179470  66.1271943  97.4454087
 115.3052021  69.7380839  94.8854256 114.5515730  69.1688237  94.7298261
 115.4399562  69.7043503  95.8324891 100.6950649  74.6094241  90.5608976
 100.5596324  75.4545777  90.9893824 101.2360462  74.8113519  89.7974910
  97.1817989  60.6885821 107.2223331  96.7884934  60.1352019 107.8970975
  97.9984129  60.9996399 107.6129848 100.0985950  62.1043700 104.8143588
 100.8395663  62.7050853 104.7348050 100.3303873  61.3621338 104.2561630
  95.2427288  67.2900067 103.0921817  95.1280803  66.3885324 103.3928916
  94.3871806  67.5363764 102.7406634 102.3219126  75.2317807 104.6909318
 101.8782980  74.4454186 104.3730222 102.9836339  75.4196958 104.0253209
  97.0806247  76.7613609  99.2169996  97.6313672  76.6330672  98.4446990
  96.2417723  77.0608498  98.8664889 104.4200364  75.5120607 102.7190719
 104.4018839  76.3329488 102.2270988 105.3420284  75.3874683 102.9440860
 100.8773418  73.0264737 103.5614227 101.4101755  72.2653025 103.3313535
 100.3487499  72.7338389 104.3038382 104.0443113  58.1324803  99.0907869
 103.7007382  59.0226444  99.0146980 104.4122075  57.9426460  98.2277454
 104.0093396  68.1233414  87.5980304 103.4940019  68.8938019  87.8368692
 103.7370704  67.4498550  88.2213366 101.5940507  62.9683115  92.6565543
 100.7382103  62.5789965  92.4771181 102.0067458  63.0475075  91.7965328
 103.1239653  60.5029458  97.0557102 102.6204449  60.4659593  96.2424908
 103.4170260  61.4122201  97.1153759  99.3682539  60.5868188  96.0623284
 100.2335536  60.3910996  95.7029174  99.4360048  60.3578539  96.9892641
 108.9827670  70.8765769  89.5333478 108.2057112  70.5376928  89.0888640
 109.6619151  70.8818392  88.8588443 103.7979699  65.9960506  89.4240085
 103.4929834  66.3106655  90.2750229 104.7510141  66.0741926  89.4667418
 102.2426131  72.1550729  91.0733039 101.7147492  71.4203489  90.7606277
 101.7413633  72.9325406  90.8273008 107.2218977  70.3499750  96.1900086
 106.5642651  71.0399011  96.2780214 108.0259376  70.7396182  96.5334072
  96.9744858  62.8170396  93.4339651  97.5488610  62.5945577  92.7012844
  97.5615841  62.8859090  94.1868252 106.0324435  68.7044122  94.2404028
 106.5456317  69.3374114  94.7425737 106.6825659  68.1045318  93.8747388
  97.3014445  64.8474857  87.4535536  96.4651758  65.1849543  87.7744811
  97.1619215  64.7123836  86.5162673  99.2767526  59.6911644  92.1614720
  98.6231938  59.3760662  91.5371335  99.2348000  59.0687385  92.8874543
 100.3878731  69.9730940  84.0768012  99.4805792  69.7420193  84.2759161
 100.8849763  69.1768559  84.2641994 103.2946810  78.6828447  86.9964699
 102.6208508  78.9860143  87.6049656 103.6812632  79.4857527  86.6470156
 102.5105266  66.1793578  96.4862368 101.5927828  66.4008525  96.3284056
 102.9265410  66.2539888  95.6274075 103.2940314  67.5784994  91.6165048
 104.0412133  68.0906391  91.3072170 103.5631904  67.2569046  92.4769442
 101.5666964  70.0743534  88.5992003 100.6578183  69.7902567  88.6964472
 101.5962048  70.4942613  87.7395309 106.7986232  73.6850124  92.3683170
 106.3448559  72.8441034  92.4248361 106.1680198  74.3211522  92.7057950
 105.7419151  64.6142110  93.5983838 105.0041908  64.1019496  93.9294080
 105.9945925  64.1742492  92.7867114 105.2419171  75.5226621  93.3032988
 105.5342145  76.0831678  92.5845354 105.7517791  75.8155182  94.0586147
 105.8430778  57.3918362  94.1925607 106.1489655  56.5315725  93.9051522
 106.5683383  57.9835982  93.9924601  92.1355135  67.7949049  92.5807205
  91.9379534  67.2018409  91.8558271  91.5801799  67.4901259  93.2983144
 100.1151858  67.6872155  94.7001798 100.1700468  66.7345991  94.6244275
  99.3043060  67.8431594  95.1843096 101.2643052  71.6152278  85.9380081
 100.8262482  70.8988137  85.4785719 102.0053493  71.8428393  85.3765173
  98.0544218  66.3049215  92.4592177  97.2412084  66.6043385  92.8657369
  98.5503212  65.9104904  93.1766659 100.2052796  76.3006972  94.3926442
 100.1628975  76.5267818  93.4634974 101.1215495  76.0670346  94.5412243
 103.6518430  66.7691039 101.2907071 104.0067818  66.9962512 102.1501536
 104.2990561  67.1009416 100.6684326 109.3816167  69.8909475  91.9956400
 109.2434065  70.0811071  91.0677589 109.0252386  70.6528858  92.4524451
  97.5458293  63.8767570  98.0753412  98.1857672  63.7356329  97.3776375
  96.7135823  63.5902084  97.6992014 109.4085546  71.9586002  97.0067671
 109.8422053  71.8661291  97.8550725 110.1217127  71.9343503  96.3687687
  98.3218597  73.1770001  94.1888404  99.1159195  72.6820321  93.9870979
  97.6110289  72.6487864  93.8256110 103.1413441  75.5588096  98.5400772
 103.1950464  76.1279033  99.3078488 102.2728223  75.7289981  98.1754809
  94.6301360  67.3213082  90.2648157  93.6998948  67.2597538  90.4818119
  94.7258832  66.7989035  89.4684798  94.5486909  63.8467895  92.8526399
  94.8093727  64.7613229  92.7435559  95.3704082  63.3792338  93.0023011
  96.0211835  65.2605652 100.0225223  96.6934888  65.0523015  99.3737872
  95.1941621  65.0627738  99.5830455 110.2701096  72.0009703  99.5400557
 110.4636986  72.9055513  99.7859832 110.1701714  71.5417122 100.3739142
 101.9237407  61.8867593 102.0390884 101.2765322  62.5857543 101.9455360
 102.6938422  62.3203737 102.4067132 105.3316205  72.1516446 105.1141437
 105.1801711  71.9226997 104.1971521 105.3220884  73.1087047 105.1272782
 102.1001541  69.7248358 100.0987704 103.0293601  69.8759518  99.9256671
 101.6792571  69.8132379  99.2436350 100.8989873  73.7499023  97.8686241
 100.7600958  73.3817807  98.7412179 100.1104469  74.2646662  97.6970199
 101.4938025  78.8508119  89.2111778 101.6689780  78.3796162  90.0257401
 100.8070813  79.4773885  89.4393039 102.4495088  73.1280625  95.2575079
 102.1144921  73.0881395  96.1532729 101.9499034  72.4625341  94.7845489
  96.4239332  68.5348255 100.7827660  96.2859130  67.8028494 101.3839199
  97.3344255  68.4457156 100.5011848 105.3854280  70.4736660  85.5312139
 104.7683450  69.7483488  85.4345191 104.9170768  71.2346020  85.1879213
  99.0521633  68.2468215 100.2711340  99.7621251  67.6061407 100.2297958
  99.0090941  68.4981110 101.1937521 107.0408411  75.1835568 103.1917919
 106.9820957  74.4994788 102.5248502 107.4427930  75.9254558 102.7398545
  97.7650567  65.2333433 102.0906979  97.2287924  64.7824171 102.7428576
  97.1767275  65.3679341 101.3477444  97.1752825  64.6922084  84.6533443
  96.2982292  64.5710885  84.2895690  97.6510579  63.9008162  84.4012332
 107.0425819  73.1475152 101.4231899 106.1552597  72.8101074 101.5458298
 107.6124370  72.4158183 101.6600664  88.6954966  69.4799244  94.7474950
  89.3826005  69.1660974  94.1595965  88.5403094  70.3840608  94.4742202
  93.4989688  64.3689440  99.1759974  93.4147877  63.7615110  98.4410384
  92.6772394  64.8598459  99.1769470 100.5726972  77.8076604  98.3893142
 100.4997143  78.6131576  98.9012447 100.1304365  78.0068570  97.5641163
 100.3616752  77.0448374  91.8995964  99.5784273  77.5870055  91.9934188
 101.0609497  77.5622354  92.2990205 103.6713402  62.8543004  94.5430169
 104.1682101  62.1012966  94.2231239 102.9000383  62.8907321  93.9773378
 111.5243159  68.5583369  96.1848460 111.5133035  69.4408085  95.8142394
 110.6560538  68.2054920  95.9902997 103.0325655  77.7063438 100.5451301
 103.7453628  78.3410903 100.4727202 102.5415684  77.8027304  99.7291302
 104.7543182  71.6114691  92.1168592 103.8199461  71.7316154  91.9473297
 104.9319851  70.7087158  91.8528602 100.2548370  64.9960387  94.2701854
  99.8846158  64.4431427  94.9582759 100.7507463  64.3918520  93.7176854
 108.1415734  67.4532010  92.6518626 108.6076186  68.2860002  92.5778929
 108.5923234  66.9876992  93.3563885  98.0837569  75.4557882 101.3656871
  98.7847028  76.0894365 101.5186266  97.6132684  75.7972613 100.6052511
 106.2091965  73.7975832  89.6504779 106.4851809  73.6832426  90.5598653
 105.3396464  73.3993316  89.6116952 106.1132396  59.8212597  96.6909528
 105.1995476  60.0516824  96.8591735 106.5425498  59.9051041  97.5423560
 105.8838855  68.0102489  99.1909422 105.2310305  68.2578397  98.5361875
 106.2619235  67.1966627  98.8571899 103.1788194  76.9730368  90.5552641
 103.7075961  76.4622822  89.9422803 103.4416414  76.6572898  91.4198174
 101.9326428  68.7522300 105.6775459 101.2567065  68.6516430 106.3477834
 102.7554062  68.5961514 106.1411456  93.6805287  74.9894237  98.2987974
  94.2658724  74.2437925  98.4315878  93.4830125  75.2998194  99.1824638
  96.5343942  78.0245484  93.3150417  95.8654318  78.5091612  92.8314457
  96.3956812  78.2714705  94.2293795  88.2722942  67.5599837  97.0192417
  88.3107041  67.0263428  97.8129535  87.7663235  67.0335043  96.4003394
 100.6749211  80.0589228  99.9133075 101.2267519  80.2220849 100.6782160
 101.0155404  80.6493666  99.2413100  95.6513704  62.4064378 100.5154960
  95.7155031  63.2679209 100.1032357  95.5880824  61.7938379  99.7827318
  95.1265977  64.4787510 104.1627994  95.7538015  64.0964587 104.7765518
  94.2693895  64.2601712 104.5283686 105.5260085  74.8850485 105.7681729
 106.0699989  75.4980444 105.2736684 104.9446930  75.4430064 106.2848742
  91.9031519  66.2863939  90.0946349  92.1984960  65.3774618  90.0413402
  91.0019555  66.2651679  89.7727351  95.4325766  64.3619936  96.0773897
  94.7112352  64.9755904  95.9381371  96.2219022  64.8977701  95.9990543
 105.8752506  75.8080223  98.5276307 104.9282842  75.6885575  98.4554634
 106.2235280  74.9202721  98.6102569  98.2352080  61.6974362 102.3514549
  98.7586482  61.9436659 103.1140858  98.0164413  62.5294397 101.9317686
  93.6319361  63.9678037  90.2185674  93.3032067  63.0875416  90.0360780
  93.9858732  63.9125706  91.1062063 102.8798940  75.6032940  94.7280659
 102.7323902  74.6749647  94.9088229 103.7052433  75.6253030  94.2437735
  96.7461184  64.2551007  90.5861152  97.0857257  64.7836928  89.8639760
  97.1933305  64.5931413  91.3619718 106.4833062  76.4261498  95.8145532
 107.4079609  76.2204360  95.6769983 106.3148365  76.1777900  96.7234874
  99.4404625  62.6388057 100.0364220  99.1001445  61.8395871 100.4384899
  98.7343631  62.9389768  99.4641053 100.0921097  59.7237370  98.4891543
 100.9147166  59.2497848  98.3670433 100.3359160  60.5027854  98.9890229
  98.7329331  62.7525628  88.7854444  99.4537694  63.1306881  88.2818161
  98.1094635  63.4714505  88.8889422 102.8760454  63.4570777  89.7212777
 103.0924068  64.3395415  89.4201605 102.3954521  63.0656991  88.9918419
  97.6159675  66.4156491  96.2983521  97.4704256  66.7296794  97.1907803
  97.1384879  67.0341391  95.7454420  99.4756058  63.4059039  96.3464411
  99.4617627  62.5100132  96.0096709 100.1928486  63.4129702  96.9802697
 101.3282189  63.8396379  98.3917538 101.0699967  64.7613449  98.3901869
 100.7967229  63.4426813  99.0818002 106.2728378  76.9447166  91.1707624
 106.4465255  76.3793588  90.4181476 106.7657269  77.7448061  90.9887114
  92.0905338  68.9561835  99.2371182  91.5458806  69.7321643  99.3691457
  92.9684688  69.3032639  99.0790304  98.8792954  62.2873419  91.6151981
  99.0008865  61.3590065  91.8142868  98.5894997  62.3012105  90.7030296
 101.7484145  59.9728329  94.7518701 101.7705842  60.0367662  93.7970680
 102.1652204  59.1332838  94.9459207 112.1267769  69.7083589  92.7897923
 112.5698915  68.9590914  92.3917047 111.2494279  69.6993725  92.4071655
 107.2603550  76.2613930  88.2704522 107.9554455  76.8820623  88.4891837
 107.6026700  75.4109281  88.5456900  92.8771360  68.0831731 102.1301339
  92.1353096  68.2314367 102.7165970  92.5564104  68.3439997 101.2668089
 109.1594973  73.7113636  89.7991853 109.6846298  74.0500909  89.0741173
 109.0717326  72.7760651  89.6154987 100.8215022  77.6247709 101.9281729
 101.1302149  77.3796856 102.8004429 101.6190504  77.8294348 101.4400600
  93.3227973  75.9697160  94.1611734  94.1485993  75.6700932  93.7810377
  92.9722025  75.2004782  94.6101523  98.2909506  75.3223628  96.2309408
  97.6689516  74.6594333  95.9311635  98.9614373  75.3484760  95.5483055
  91.5236578  73.8883486  95.1200668  90.6868487  73.4605661  94.9384669
  91.4960224  74.0815930  96.0571459  98.3634034  63.8005416 105.8241914
  98.4122189  64.6767539 105.4419683  98.9056548  63.2582809 105.2513557
 108.8488880  74.3446539 105.1043051 108.0584423  74.3270678 104.5647550
 108.6122234  74.8834833 105.8592087 108.9686755  71.1939006 102.4175779
 109.0184760  71.0289013 103.3591302 108.8600678  70.3266265 102.0273660
 106.2590517  67.1769934 103.7335086 107.1600380  67.0376399 103.4419084
 106.3338491  67.3424389 104.6733263 100.5933322  64.5536789 102.5788272
  99.7236632  64.8470355 102.3070861 100.8292803  65.1377234 103.2995536
 110.4704951  73.6135947 102.6617801 110.1789760  73.9765928 103.4981262
 109.8577083  72.9002956 102.4831133 111.6700634  71.1788827  95.1820371
 112.5047525  71.6178631  95.3457931 111.8059763  70.7027480  94.3628617
 108.7192140  68.7368562 101.1297859 109.1946261  68.9296208 100.3216710
 107.7957705  68.7927748 100.8841242 103.2972356  60.7716405 100.0953693
 103.8154300  61.5077432  99.7700181 102.9427489  61.0780399 100.9300452
  94.8771294  65.6321087  88.2115098  94.1840539  65.7065442  87.5555134
  94.6323046  64.8681430  88.7336615 103.5484950  57.1916688  95.6154589
 103.8286704  56.5239877  96.2415016 104.3335557  57.3845784  95.1029253
 101.3518419  76.3675682  87.1779615 100.7792386  76.9865869  86.7250087
 101.9251212  76.9175044  87.7119537 107.4193809  65.6134322  99.3626164
 108.3711232  65.7132420  99.3838388 107.2497259  64.8212591  99.8724249
 105.4408188  62.6989905  99.5485565 104.8458120  62.9794918  98.8532054
 105.1557885  63.1883806 100.3202306 104.5715679  76.6512832  88.3088198
 105.5046352  76.5858394  88.5121073 104.4838891  77.4869099  87.8502730
 107.2003695  75.9678702  85.2692145 107.1217327  75.6338566  86.1627903
 108.0213362  76.4600470  85.2683618 109.8981886  68.8340442  98.4768464
 109.8658207  67.8956442  98.6628148 110.5082510  68.9124478  97.7434289
 101.7365217  67.7036495  84.5195668 102.6824322  67.5742703  84.5884086
 101.3579462  66.9651157  84.9965096 110.0476375  65.6251485  98.5226747
 109.5315424  64.8409942  98.3356676 110.9316323  65.2970202  98.6873267
 107.7087102  59.3692501  94.4822560 107.5111923  59.0607589  95.3665892
 108.3186807  60.0954140  94.6120490 115.7158436  69.8956449  97.6174501
 116.4461825  69.6341737  98.1782204 115.1065382  69.1585170  97.6576569
 113.7973733  68.0364311  98.2148952 113.0706897  67.9020276  97.6065444
 113.3821020  68.3441140  99.0205670 101.6203910  71.7554241 105.9796325
 102.5406919  71.9332840 106.1736371 101.5853493  70.8110286 105.8276024
  99.9208134  65.6286471  84.4550553  99.0139590  65.3319584  84.5313267
 100.1984115  65.3316289  83.5884839  90.8386075  66.9492834  94.9049600
  90.5188859  66.0958143  94.6123974  90.2919503  67.1641413  95.6607567
  94.6165982  69.6655275  98.6219106  94.8351992  70.5972383  98.6407140
  95.0291756  69.3063250  99.4073910 101.5370200  60.1723361  90.6094794
 100.7270928  59.8270446  90.9850041 102.2254617  59.8630904  91.1982406
 103.4660748  59.2501408  92.2319091 104.0191787  59.6696861  92.8909114
 103.7030835  58.3237156  92.2742047  99.4893848  65.2388481 108.0121855
  99.3890575  66.1882838 107.9433946  99.2715390  64.9106720 107.1397925
  98.6906919  62.4873406  84.5962532  99.5526083  62.8128305  84.8558350
  98.8757263  61.7004902  84.0835598  90.7074335  70.5695746  96.8742721
  90.0137806  70.1549699  96.3612676  91.4547326  70.6116282  96.2776140
 106.8439556  61.3601933  91.7397755 106.2638225  62.0186737  91.3575808
 106.5775488  60.5379277  91.3285173 105.2943122  60.7606990  93.9419076
 105.7942900  60.8723525  93.1333395 105.9378730  60.4568043  94.5819884
  99.3525118  68.6685620 106.8286917  98.8692199  69.4685980 107.0350806
  99.4386057  68.6793565 105.8754361  92.6211077  70.5014000  94.7508736
  92.5981765  70.6001687  93.7990619  92.9311714  71.3479151  95.0725902
  95.2798455  72.5590155  98.8655350  96.2341709  72.5274097  98.7985282
  95.0810979  72.0980778  99.6805576  95.8697837  71.1291271 101.4326148
  96.6890726  71.6235349 101.4560985  96.1434645  70.2123239 101.4043716
 105.6264434  63.5202023  90.7954104 104.7390289  63.8051674  90.5774298
 106.0418423  63.3595786  89.9481381 108.9778970  63.5448544  94.5108443
 109.7539360  64.0344997  94.7833060 108.2527104  63.9706598  94.9680312
 111.4151528  64.2576163  95.5682384 112.0096019  64.0171899  94.8575692
 111.4878112  63.5383294  96.1955920  93.6348684  78.1009774  95.8825548
  93.5003152  77.3410175  95.3163546  93.2180746  78.8250674  95.4154337
 104.7707647  73.2846698  84.8902124 105.4743497  73.4896700  85.5059779
 104.0470296  73.8523460  85.1551207 105.6005457  69.0356559  91.0104394
 105.5440659  69.4925110  90.1712026 106.1533800  68.2747244  90.8327237
 109.4110263  64.8246291  91.8354513 109.1547197  64.4242927  92.6662721
 108.7863131  65.5390085  91.7104652 113.7222601  67.5642364  94.3425805
 113.1622159  67.6335553  95.1157367 113.1166104  67.3883349  93.6225301
  96.7917810  78.9979091  96.0943991  96.6750194  79.9424524  95.9922681
  95.9710256  78.6952653  96.4829790 106.6794344  73.7229227  86.9400584
 107.5139948  73.2910425  86.7578058 106.5178687  73.5511241  87.8677478
 106.3340237  70.2261340  88.3056923 106.2789040  70.0605612  87.3645367
 105.7086292  70.9337373  88.4619113  91.1232752  65.4629405 102.1318345
  91.7691615  64.9528359 102.6205570  90.9149903  66.1998086 102.7061770
 103.6486144  72.5310252 107.6310486 104.5177303  72.7050904 107.2697121
 103.1692895  73.3504669 107.5086215  99.6436362  59.7269449  87.8842241
  99.6315032  60.6711289  88.0410512 100.5359784  59.5439595  87.5901703
  97.8172324  79.6507353  99.3099919  98.7199571  79.6830963  99.6266414
  97.5909694  78.7207804  99.3246255  99.5725926  78.4038340  95.9709998
  98.6221557  78.4040201  95.8574370  99.8758412  77.6571074  95.4546033
 103.4588482  56.3212226  92.1388178 102.6920877  55.7670713  92.2844861
 103.8699186  56.3934095  93.0002330  95.4630243  62.6097022 106.2293359
  96.3261704  62.2533827 106.4396684  94.8895653  62.2710917 106.9168764
 115.3078620  84.2398878  97.0355760 115.9457029  84.1205625  96.3319101
 115.1899462  85.1879722  97.0943713 112.1168326  84.1926306  96.9717285
 111.7786837  84.0767371  96.0837820 112.9858094  83.7917471  96.9518291
 112.5988109  85.3461158 102.9303491 112.5876750  84.9513956 102.0583994
 112.7608748  84.6127231 103.5237262 110.2451577  85.5075118  98.4684034
 110.8415149  85.2831141  97.7540997 110.3026548  84.7659864  99.0709482
 109.8176605  82.9614554  86.3034225 110.0702126  82.4396075  85.5417688
 108.8801164  82.7980699  86.4060909 114.8619888  81.9650332  94.1108968
 115.6482977  81.5469755  93.7599385 115.1258592  82.8696424  94.2790617
 120.2628315  81.9025565  95.0141947 120.9953487  81.3324782  95.2479776
 119.5067671  81.5147166  95.4548453 117.7853735  75.6147139  99.4736556
 117.4537060  76.4842550  99.2497771 117.1899349  75.2983423 100.1530586
 111.5209922  79.3542706  87.2066638 111.6884324  80.2222943  87.5737109
 111.3307091  79.5169988  86.2827927 114.2785255  87.8159685  98.8732468
 113.9785978  88.7184724  98.7648276 113.9336315  87.5491868  99.7253621
 117.6782399  80.3342225  96.5529906 116.7699276  80.2657634  96.2588667
 117.6269995  80.8114170  97.3811731 111.4999143  81.8100364  88.1913305
 111.3798768  82.2557415  89.0298785 110.8051731  82.1585682  87.6326843
 111.7523265  81.7531871 104.4964803 110.9756599  82.3125791 104.4867668
 112.3913828  82.2388654 105.0179673 119.5444045  78.5358664  98.3307780
 118.9018425  78.8291197  97.6847574 119.0398974  78.4211584  99.1360976
 117.1984209  82.2821837  89.0193639 118.1102065  82.5149224  88.8441336
 116.6893856  82.8658881  88.4568717 110.0069637  84.5617324 104.0582770
 110.7484321  85.1002368 103.7817594 109.3006622  85.1883613 104.2154322
 115.4824977  86.7046465 102.6554931 115.8908333  86.2628875 101.9109564
 114.7602238  86.1299092 102.9089124 111.8356047  81.6419072 100.0288488
 112.6817242  82.0658485 100.1723137 111.7754684  80.9852696 100.7227051
 115.8053791  87.2647655  96.4107220 115.1762654  87.4293370  95.7083288
 115.4179453  87.6789265  97.1818184 119.6843023  88.2002093  93.7651584
 118.9994061  88.5800995  93.2148617 119.7686872  88.8097420  94.4983532
 114.9855492  79.3023440 101.6869662 114.7416424  80.0565501 101.1503938
 115.2615422  79.6808788 102.5216909 116.9393955  85.8462052 100.3646928
 117.1510850  86.4893812  99.6881309 116.8923703  85.0124369  99.8968858
 114.5420184  78.4579873  97.2683500 113.6804663  78.7561127  97.5600237
 114.5682618  78.6750272  96.3364532 108.7431001  81.7156973 104.8598080
 108.1129661  82.3973253 105.0933477 108.6367089  81.6040054 103.9151218
 118.0539783  88.7234008  98.5369285 118.8757226  88.3214195  98.2551967
 118.0502185  88.6202242  99.4885401 126.1445776  85.0672756  94.8854256
 125.3909484  84.4980154  94.7298261 126.2793317  85.0335421  95.8324891
 108.0211743  76.0177738 107.2223331 107.6278689  75.4643937 107.8970975
 108.8377884  76.3288317 107.6129848 110.9379704  77.4335617 104.8143588
 111.6789418  78.0342771 104.7348050 111.1697627  76.6913255 104.2561630
 106.0821042  82.6191985 103.0921817 105.9674558  81.7177242 103.3928916
 105.2265560  82.8655682 102.7406634 113.1612880  90.5609725 104.6909318
 112.7176734  89.7746104 104.3730222 113.8230094  90.7488876 104.0253209
 115.2594118  90.8412525 102.7190719 115.2412594  91.6621406 102.2270988
 116.1814038  90.7166600 102.9440860 111.7167172  88.3556654 103.5614227
 112.2495509  87.5944943 103.3313535 111.1881253  88.0630306 104.3038382
 114.8836867  73.4616720  99.0907869 114.5401137  74.3518362  99.0146980
 115.2515830  73.2718378  98.2277454 114.8487150  83.4525332  87.5980304
 114.3333773  84.2229936  87.8368692 114.5764458  82.7790468  88.2213366
 112.4334261  78.2975032  92.6565543 111.5775857  77.9081883  92.4771181
 112.8461213  78.3766993  91.7965328 113.9633408  75.8321376  97.0557102
 113.4598203  75.7951511  96.2424908 114.2564015  76.7414118  97.1153759
 110.2076294  75.9160105  96.0623284 111.0729290  75.7202914  95.7029174
 110.2753802  75.6870457  96.9892641 119.8221424  86.2057686  89.5333478
 119.0450867  85.8668846  89.0888640 120.5012905  86.2110309  88.8588443
 114.6373453  81.3252424  89.4240085 114.3323589  81.6398573  90.2750229
 115.5903895  81.4033844  89.4667418 118.0612731  85.6791667  96.1900086
 117.4036405  86.3690929  96.2780214 118.8653130  86.0688099  96.5334072
 107.8138613  78.1462313  93.4339651 108.3882365  77.9237495  92.7012844
 108.4009595  78.2151008  94.1868252 116.8718190  84.0336040  94.2404028
 117.3850072  84.6666032  94.7425737 117.5219414  83.4337236  93.8747388
 108.1408200  80.1766774  87.4535536 107.3045512  80.5141461  87.7744811
 108.0012969  80.0415754  86.5162673 110.1161280  75.0203562  92.1614720
 109.4625693  74.7052579  91.5371335 110.0741755  74.3979303  92.8874543
 114.1340564  94.0120364  86.9964699 113.4602263  94.3152061  87.6049656
 114.5206386  94.8149445  86.6470156 113.3499021  81.5085496  96.4862368
 112.4321582  81.7300443  96.3284056 113.7659164  81.5831806  95.6274075
 114.1334068  82.9076911  91.6165048 114.8805887  83.4198309  91.3072170
 114.4025658  82.5860964  92.4769442 112.4060719  85.4035452  88.5992003
 111.4971938  85.1194485  88.6964472 112.4355802  85.8234531  87.7395309
 116.5812906  79.9434028  93.5983838 115.8435662  79.4311414  93.9294080
 116.8339679  79.5034409  92.7867114 116.6824533  72.7210280  94.1925607
 116.9883410  71.8607643  93.9051522 117.4077138  73.3127900  93.9924601
 112.1036806  86.9444196  85.9380081 111.6656236  86.2280055  85.4785719
 112.8447247  87.1720311  85.3765173 114.4912184  82.0982957 101.2907071
 114.8461572  82.3254430 102.1501536 115.1384316  82.4301334 100.6684326
 120.2209921  85.2201393  91.9956400 120.0827820  85.4102989  91.0677589
 119.8646140  85.9820776  92.4524451 108.3852047  79.2059488  98.0753412
 109.0251427  79.0648247  97.3776375 107.5529578  78.9194001  97.6992014
 120.2479301  87.2877920  97.0067671 120.6815808  87.1953209  97.8550725
 120.9610882  87.2635420  96.3687687 106.8605589  80.5897570 100.0225223
 107.5328643  80.3814932  99.3737872 106.0335376  80.3919656  99.5830455
 121.1094850  87.3301620  99.5400557 121.3030740  88.2347431  99.7859832
 121.0095469  86.8709040 100.3739142 112.7631161  77.2159511 102.0390884
 112.1159076  77.9149461 101.9455360 113.5332177  77.6495655 102.4067132
 116.1709959  87.4808363 105.1141437 116.0195465  87.2518915 104.1971521
 116.1614639  88.4378965 105.1272782 112.9395295  85.0540276 100.0987704
 113.8687355  85.2051436  99.9256671 112.5186326  85.1424297  99.2436350
 112.3331779  94.1800037  89.2111778 112.5083535  93.7088080  90.0257401
 111.6464567  94.8065803  89.4393039 107.2633086  83.8640173 100.7827660
 107.1252884  83.1320412 101.3839199 108.1738010  83.7749073 100.5011848
 116.2248034  85.8028577  85.5312139 115.6077205  85.0775406  85.4345191
 115.7564523  86.5637938  85.1879213 109.8915387  83.5760132 100.2711340
 110.6015006  82.9353325 100.2297958 109.8484695  83.8273027 101.1937521
 117.8802166  90.5127486 103.1917919 117.8214712  89.8286706 102.5248502
 118.2821684  91.2546476 102.7398545 108.6044321  80.5625350 102.0906979
 108.0681678  80.1116089 102.7428576 108.0161029  80.6971259 101.3477444
 108.0146580  80.0214002  84.6533443 107.1376046  79.9002802  84.2895690
 108.4904333  79.2300080  84.4012332 117.8819573  88.4767070 101.4231899
 116.9946352  88.1392991 101.5458298 118.4518124  87.7450101 101.6600664
 104.3383442  79.6981358  99.1759974 104.2541631  79.0907028  98.4410384
 103.5166149  80.1890376  99.1769470 114.5107156  78.1834922  94.5430169
 115.0075856  77.4304884  94.2231239 113.7394138  78.2199238  93.9773378
 122.3636914  83.8875287  96.1848460 122.3526790  84.7700002  95.8142394
 121.4954293  83.5346838  95.9902997 113.8719410  93.0355356 100.5451301
 114.5847382  93.6702821 100.4727202 113.3809439  93.1319222  99.7291302
 111.0942125  80.3252305  94.2701854 110.7239912  79.7723345  94.9582759
 111.5901217  79.7210438  93.7176854 118.9809488  82.7823928  92.6518626
 119.4469940  83.6151920  92.5778929 119.4316989  82.3168910  93.3563885
 117.0485719  89.1267749  89.6504779 117.3245563  89.0124344  90.5598653
 116.1790218  88.7285234  89.6116952 116.9526151  75.1504515  96.6909528
 116.0389231  75.3808742  96.8591735 117.3819252  75.2342959  97.5423560
 116.7232609  83.3394407  99.1909422 116.0704060  83.5870314  98.5361875
 117.1012989  82.5258545  98.8571899 113.6839783  93.3754100  93.2937592
 113.8662178  92.5575756  93.7565344 114.5072769  93.5921792  92.8562482
 114.0181949  92.3022285  90.5552641 114.5469715  91.7914740  89.9422803
 114.2810168  91.9864816  91.4198174 112.7720182  84.0814218 105.6775459
 112.0960819  83.9808347 106.3477834 113.5947816  83.9253432 106.1411456
 111.5142965  95.3881145  99.9133075 112.0661273  95.5512767 100.6782160
 111.8549159  95.9785583  99.2413100 106.4907459  77.7356295 100.5154960
 106.5548785  78.5971126 100.1032357 106.4274579  77.1230297  99.7827318
 105.9659731  79.8079428 104.1627994 106.5931770  79.4256505 104.7765518
 105.1087650  79.5893630 104.5283686 116.3653840  90.2142403 105.7681729
 116.9093744  90.8272361 105.2736684 115.7840684  90.7721981 106.2848742
 114.6511353  93.3363121  96.8996757 114.5262492  92.5352861  96.3907703
 115.3090444  93.8309314  96.4110727 116.7146261  91.1372141  98.5276307
 115.7676597  91.0177492  98.4554634 117.0629034  90.2494639  98.6102569
 109.0745834  77.0266280 102.3514549 109.5980236  77.2728577 103.1140858
 108.8558168  77.8586315 101.9317686 104.4713115  79.2969955  90.2185674
 104.1425822  78.4167334  90.0360780 104.8252486  79.2417623  91.1062063
 117.3226816  91.7553416  95.8145532 118.2473364  91.5496277  95.6769983
 117.1542120  91.5069817  96.7234874 110.2798379  77.9679975 100.0364220
 109.9395200  77.1687788 100.4384899 109.5737386  78.2681686  99.4641053
 110.9314851  75.0529288  98.4891543 111.7540921  74.5789766  98.3670433
 111.1752915  75.8319771  98.9890229 109.5723086  78.0817546  88.7854444
 110.2931448  78.4598799  88.2818161 108.9488390  78.8006423  88.8889422
 113.7154209  78.7862695  89.7212777 113.9317823  79.6687333  89.4201605
 113.2348276  78.3948908  88.9918419 108.4553430  81.7448408  96.2983521
 108.3098011  82.0588711  97.1907803 107.9778634  82.3633309  95.7454420
 110.3149813  78.7350956  96.3464411 110.3011382  77.8392049  96.0096709
 111.0322241  78.7421620  96.9802697 112.1675944  79.1688296  98.3917538
 111.9093721  80.0905367  98.3901869 111.6360984  78.7718731  99.0818002
 117.1122132  92.2739083  91.1707624 117.2859010  91.7085506  90.4181476
 117.6051024  93.0739978  90.9887114 109.7186709  77.6165336  91.6151981
 109.8402620  76.6881983  91.8142868 109.4288751  77.6304022  90.7030296
 112.5877899  75.3020247  94.7518701 112.6099596  75.3659580  93.7970680
 113.0045958  74.4624756  94.9459207 122.9661524  85.0375506  92.7897923
 123.4092670  84.2882832  92.3917047 122.0888034  85.0285643  92.4071655
 118.0997305  91.5905848  88.2704522 118.7948209  92.2112541  88.4891837
 118.4420455  90.7401199  88.5456900 119.9988728  89.0405553  89.7991853
 120.5240052  89.3792826  89.0741173 119.9111081  88.1052569  89.6154987
 111.6608777  92.9539627 101.9281729 111.9695903  92.7088774 102.8004429
 112.4584259  93.1586266 101.4400600 109.2027788  79.1297334 105.8241914
 109.2515944  80.0059457 105.4419683 109.7450303  78.5874727 105.2513557
 119.6882634  89.6738457 105.1043051 118.8978178  89.6562596 104.5647550
 119.4515989  90.2126751 105.8592087 119.8080509  86.5230923 102.4175779
 119.8578514  86.3580931 103.3591302 119.6994432  85.6558182 102.0273660
 117.0984271  82.5061851 103.7335086 117.9994134  82.3668316 103.4419084
 117.1732246  82.6716306 104.6733263 111.4327077  79.8828706 102.5788272
 110.5630386  80.1762272 102.3070861 111.6686557  80.4669151 103.2995536
 121.3098706  88.9427865 102.6617801 121.0183514  89.3057846 103.4981262
 120.6970837  88.2294873 102.4831133 122.5094388  86.5080745  95.1820371
 123.3441280  86.9470549  95.3457931 122.6453517  86.0319398  94.3628617
 119.5585894  84.0660480 101.1297859 120.0340016  84.2588126 100.3216710
 118.6351460  84.1219665 100.8841242 114.1366111  76.1008323 100.0953693
 114.6548054  76.8369350  99.7700181 113.7821243  76.4072316 100.9300452
 114.3878705  72.5208606  95.6154589 114.6680459  71.8531795  96.2415016
 115.1729312  72.7137701  95.1029253 118.2587563  80.9426240  99.3626164
 119.2104986  81.0424337  99.3838388 118.0891014  80.1504508  99.8724249
 116.2801943  78.0281823  99.5485565 115.6851875  78.3086836  98.8532054
 115.9951639  78.5175724 100.3202306 115.4109433  91.9804750  88.3088198
 116.3440106  91.9150311  88.5121073 115.3232646  92.8161017  87.8502730
 118.0397450  91.2970620  85.2692145 117.9611081  90.9630484  86.1627903
 118.8607117  91.7892388  85.2683618 120.7375641  84.1632359  98.4768464
 120.7051961  83.2248360  98.6628148 121.3476265  84.2416396  97.7434289
 112.5758972  83.0328412  84.5195668 113.5218077  82.9034620  84.5884086
 112.1973217  82.2943074  84.9965096 120.8870129  80.9543403  98.5226747
 120.3709178  80.1701859  98.3356676 121.7710078  80.6262119  98.6873267
 118.5480856  74.6984418  94.4822560 118.3505677  74.3899507  95.3665892
 119.1580562  75.4246057  94.6120490 126.5552191  85.2248366  97.6174501
 127.2855579  84.9633654  98.1782204 125.9459136  84.4877088  97.6576569
 124.6367488  83.3656229  98.2148952 123.9100651  83.2312194  97.6065444
 124.2214775  83.6733057  99.0205670 112.4597664  87.0846158 105.9796325
 113.3800674  87.2624757 106.1736371 112.4247247  86.1402204 105.8276024
 110.7601889  80.9578389  84.4550553 109.8533344  80.6611501  84.5313267
 111.0377870  80.6608207  83.5884839 105.4559737  84.9947193  98.6219106
 105.6745747  85.9264301  98.6407140 105.8685511  84.6355168  99.4073910
 112.3763955  75.5015278  90.6094794 111.5664683  75.1562363  90.9850041
 113.0648372  75.1922822  91.1982406 114.3054503  74.5793325  92.2319091
 114.8585542  74.9988779  92.8909114 114.5424589  73.6529073  92.2742047
 110.3287602  80.5680399 108.0121855 110.2284329  81.5174756 107.9433946
 110.1109144  80.2398638 107.1397925 109.5300674  77.8165324  84.5962532
 110.3919838  78.1420222  84.8558350 109.7151018  77.0296820  84.0835598
 117.6833310  76.6893850  91.7397755 117.1031979  77.3478654  91.3575808
 117.4169243  75.8671195  91.3285173 116.1336876  76.0898908  93.9419076
 116.6336655  76.2015443  93.1333395 116.7772484  75.7859961  94.5819884
 110.1918872  83.9977538 106.8286917 109.7085954  84.7977898 107.0350806
 110.2779811  84.0085483 105.8754361 106.7091592  86.4583188 101.4326148
 107.5284481  86.9527267 101.4560985 106.9828400  85.5415157 101.4043716
 116.4658188  78.8493941  90.7954104 115.5784043  79.1343591  90.5774298
 116.8812177  78.6887704  89.9481381 119.8172724  78.8740462  94.5108443
 120.5933114  79.3636914  94.7833060 119.0920858  79.2998516  94.9680312
 122.2545283  79.5868081  95.5682384 122.8489774  79.3463817  94.8575692
 122.3271867  78.8675212  96.1955920 115.6101402  88.6138615  84.8902124
 116.3137252  88.8188618  85.5059779 114.8864050  89.1815377  85.1551207
 116.4399212  84.3648477  91.0104394 116.3834413  84.8217028  90.1712026
 116.9927554  83.6039161  90.8327237 120.2504018  80.1538209  91.8354513
 119.9940952  79.7534844  92.6662721 119.6256886  80.8682003  91.7104652
 124.5616356  82.8934282  94.3425805 124.0015914  82.9627471  95.1157367
 123.9559859  82.7175266  93.6225301 117.5188099  89.0521145  86.9400584
 118.3533703  88.6202343  86.7578058 117.3572442  88.8803158  87.8677478
 117.1733991  85.5553258  88.3056923 117.1182795  85.3897529  87.3645367
 116.5480046  86.2629291  88.4619113 101.9626506  80.7921322 102.1318345
 102.6085370  80.2820276 102.6205570 101.7543657  81.5290004 102.7061770
 114.4879898  87.8602170 107.6310486 115.3571058  88.0342822 107.2697121
 114.0086650  88.6796587 107.5086215 110.4830117  75.0561367  87.8842241
 110.4708786  76.0003207  88.0410512 111.3753538  74.8731512  87.5901703
 108.6566079  94.9799271  99.3099919 109.5593325  95.0122881  99.6266414
 108.4303449  94.0499722  99.3246255 114.2982236  71.6504144  92.1388178
 113.5314632  71.0962630  92.2844861 114.7092941  71.7226012  93.0002330
 106.3023997  77.9388939 106.2293359 107.1655459  77.5825744 106.4396684
 105.7289408  77.6002834 106.9168764 126.1472374  99.5690796  97.0355760
 126.7850784  99.4497543  96.3319101 126.0293217 100.5171640  97.0943713
 122.9562080  99.5218224  96.9717285 122.6180592  99.4059289  96.0837820
 123.8251848  99.1209389  96.9518291 118.8148896 101.3753700  92.9614176
 118.2513761 101.2843637  92.1930464 118.7001291 100.5553605  93.4416669
 123.4381863 100.6753076 102.9303491 123.4270504 100.2805874 102.0583994
 123.6002503  99.9419148 103.5237262 116.3613328 102.8704892  95.7998397
 117.1534620 102.5295717  95.3844696 116.6009978 102.9799867  96.7200550
 124.3948455 105.0424668  88.2728641 123.7436434 105.6278748  87.8862655
 125.1892818 105.5730863  88.3323678 118.3204082 102.1313805  88.6715775
 119.0934958 101.5842792  88.5328651 118.6729481 102.9958054  88.8830237
 120.1589124 103.4590187 101.8782675 119.8678990 104.3635818 101.7629341
 120.7946109 103.5006715 102.5926744 121.0845331 100.8367036  98.4684034
 121.6808904 100.6123058  97.7540997 121.1420303 100.0951781  99.0709482
 120.6570360  98.2906471  86.3034225 120.9095880  97.7687993  85.5417688
 119.7194919  98.1272617  86.4060909 125.7013642  97.2942250  94.1108968
 126.4876732  96.8761673  93.7599385 125.9652347  98.1988342  94.2790617
 125.8723720 102.7315100  88.8097625 125.2369553 102.8049726  89.5218530
 125.5421126 103.3208699  88.1316705 131.1022070  97.2317483  95.0141947
 131.8347242  96.6616700  95.2479776 130.3461425  96.8439083  95.4548453
 120.3766648 100.1934577  88.5058600 120.2602907  99.5179481  89.1739685
 120.4868908  99.7066951  87.6890753 122.7198189  99.6544724  92.2105289
 122.3556397  99.1275345  92.9218211 123.5765305  99.2643193  92.0371775
 128.6247490  90.9439057  99.4736556 128.2930815  91.8134468  99.2497771
 128.0293103  90.6275341 100.1530586 122.3603676  94.6834624  87.2066638
 122.5278079  95.5514860  87.5737109 122.1700845  94.8461906  86.2827927
 125.1179010 103.1451603  98.8732468 124.8179733 104.0476642  98.7648276
 124.7730069 102.8783786  99.7253621 118.5691491  99.5965400  94.9069173
 117.6441987  99.4641614  95.1146865 118.8175904 100.3759619  95.4039115
 128.5176153  95.6634143  96.5529906 127.6093031  95.5949552  96.2588667
 128.4663749  96.1406088  97.3811731 122.3392897  97.1392282  88.1913305
 122.2192522  97.5849332  89.0298785 121.6445486  97.4877599  87.6326843
 115.9300302  99.2398673  95.7412962 116.0592683  99.4933152  96.6552374
 115.2497753  99.8326381  95.4217617 120.0999789 109.9095923  91.8403436
 120.0223819 110.8603748  91.9191917 119.4961433 109.5641796  92.4978362
 122.5917019  97.0823789 104.4964803 121.8150353  97.6417709 104.4867668
 123.2307582  97.5680572 105.0179673 130.3837800  93.8650582  98.3307780
 129.7412180  94.1583115  97.6847574 129.8792728  93.7503502  99.1360976
 128.0377963  97.6113755  89.0193639 128.9495819  97.8441141  88.8441336
 127.5287610  98.1950799  88.4568717 120.8463391  99.8909242 104.0582770
 121.5878076 100.4294286 103.7817594 120.1400377 100.5175531 104.2154322
 126.3218731 102.0338383 102.6554931 126.7302087 101.5920793 101.9109564
 125.5995993 101.4591010 102.9089124 122.6749801  96.9710989 100.0288488
 123.5210996  97.3950403 100.1723137 122.6148439  96.3144614 100.7227051
 126.6447546 102.5939573  96.4107220 126.0156408 102.7585287  95.7083288
 126.2573208 103.0081183  97.1818184 130.5236778 103.5294011  93.7651584
 129.8387816 103.9092912  93.2148617 130.6080627 104.1389338  94.4983532
 125.8249246  94.6315358 101.6869662 125.5810178  95.3857418 101.1503938
 126.1009177  95.0100705 102.5216909 127.7787709 101.1753970 100.3646928
 127.9904604 101.8185730  99.6881309 127.7317457 100.3416287  99.8968858
 125.3813938  93.7871791  97.2683500 124.5198417  94.0853044  97.5600237
 125.4076373  94.0042190  96.3364532 122.1975508 102.3313981  93.6757305
 122.6613853 102.6101684  92.8861928 121.9332306 101.4297426  93.4930396
 119.0899589 101.8785463  96.6137069 119.6600946 102.3072731  95.9754553
 119.6807700 101.5968047  97.3121254 121.1344394  98.4537134  90.4846871
 121.8368437  98.9058177  90.9520797 120.8025022  97.8120952  91.1126764
 119.5824755  97.0448890 104.8598080 118.9523416  97.7265171 105.0933477
 119.4760843  96.9331972 103.9151218 114.8769728  96.7120686  95.7864004
 114.0868782  96.9678215  95.3104115 115.3680975  97.5269024  95.8916045
 128.8933537 104.0525925  98.5369285 129.7150981 103.6506113  98.2551967
 128.8895940 103.9494160  99.4885401 116.8284473  97.0765266  92.7447481
 116.0315636  97.1883960  93.2630976 116.6010065  97.4151918  91.8788371
 122.6590141 103.6009969 100.6929995 122.7234573 104.0630376 101.5288167
 121.9501064 102.9707334 100.8212305 113.1607431  96.9651177  98.2178995
 113.4115469  97.8498187  98.4836571 113.6966979  96.7855778  97.4454087
 136.9839530 100.3964674  94.8854256 136.2303239  99.8272072  94.7298261
 137.1187071 100.3627338  95.8324891 122.3738158 105.2678076  90.5608976
 122.2383833 106.1129612  90.9893824 122.9147971 105.4697354  89.7974910
 118.8605498  91.3469656 107.2223331 118.4672443  90.7935855 107.8970975
 119.6771638  91.6580235 107.6129848 115.8267556 102.7853514  91.1336901
 116.3392076 103.5796765  91.2842466 116.4790268 102.0879805  91.0670502
 117.6362440 105.9019271  93.2159654 117.8129069 106.8237235  93.0280638
 118.4319274 105.5877690  93.6454034 121.7773459  92.7627535 104.8143588
 122.5183172  93.3634688 104.7348050 122.0091382  92.0205173 104.2561630
 116.9214797  97.9483902 103.0921817 116.8068312  97.0469160 103.3928916
 116.0659315  98.1947599 102.7406634 124.0006635 105.8901643 104.6909318
 123.5570489 105.1038021 104.3730222 124.6623848 106.0780793 104.0253209
 118.7593756 107.4197444  99.2169996 119.3101181 107.2914508  98.4446990
 117.9205232 107.7192333  98.8664889 126.0987873 106.1704443 102.7190719
 126.0806348 106.9913324 102.2270988 127.0207793 106.0458518 102.9440860
 122.5560927 103.6848572 103.5614227 123.0889264 102.9236860 103.3313535
 122.0275008 103.3922224 104.3038382 125.7230622  88.7908638  99.0907869
 125.3794891  89.6810280  99.0146980 126.0909584  88.6010296  98.2277454
 125.6880905  98.7817249  87.5980304 125.1727528  99.5521854  87.8368692
 125.4158213  98.1082385  88.2213366 123.2728016  93.6266950  92.6565543
 122.4169612  93.2373800  92.4771181 123.6854967  93.7058911  91.7965328
 124.8027162  91.1613293  97.0557102 124.2991958  91.1243428  96.2424908
 125.0957769  92.0706036  97.1153759 121.0470048  91.2452023  96.0623284
 121.9123045  91.0494832  95.7029174 121.1147557  91.0162375  96.9892641
 130.6615179 101.5349604  89.5333478 129.8844621 101.1960763  89.0888640
 131.3406660 101.5402227  88.8588443 125.4767208  96.6544341  89.4240085
 125.1717343  96.9690490  90.2750229 126.4297650  96.7325761  89.4667418
 123.9213640 102.8134565  91.0733039 123.3935001 102.0787324  90.7606277
 123.4201142 103.5909241  90.8273008 128.9006486 101.0083585  96.1900086
 128.2430160 101.6982847  96.2780214 129.7046885 101.3980017  96.5334072
 118.6532367  93.4754231  93.4339651 119.2276119  93.2529412  92.7012844
 119.2403350  93.5442925  94.1868252 127.7111944  99.3627958  94.2404028
 128.2243826  99.9957950  94.7425737 128.3613168  98.7629153  93.8747388
 118.9801954  95.5058692  87.4535536 118.1439267  95.8433378  87.7744811
 118.8406724  95.3707672  86.5162673 120.9555035  90.3495480  92.1614720
 120.3019447  90.0344497  91.5371335 120.9135509  89.7271220  92.8874543
 122.0666240 100.6314775  84.0768012 121.1593301 100.4004028  84.2759161
 122.5637272  99.8352394  84.2641994 124.9734319 109.3412282  86.9964699
 124.2996017 109.6443979  87.6049656 125.3600141 110.1441362  86.6470156
 124.1892775  96.8377413  96.4862368 123.2715337  97.0592360  96.3284056
 124.6052919  96.9123724  95.6274075 124.9727823  98.2368829  91.6165048
 125.7199642  98.7490226  91.3072170 125.2419413  97.9152882  92.4769442
 123.2454473 100.7327370  88.5992003 122.3365692 100.4486403  88.6964472
 123.2749557 101.1526448  87.7395309 128.4773741 104.3433959  92.3683170
 128.0236068 103.5024869  92.4248361 127.8467707 104.9795358  92.7057950
 127.4206660  95.2725945  93.5983838 126.6829417  94.7603331  93.9294080
 127.6733434  94.8326327  92.7867114 126.9206680 106.1810456  93.3032988
 127.2129654 106.7415513  92.5845354 127.4305300 106.4739017  94.0586147
 127.5218287  88.0502197  94.1925607 127.8277164  87.1899561  93.9051522
 128.2470892  88.6419817  93.9924601 121.7939367  98.3455990  94.7001798
 121.8487977  97.3929827  94.6244275 120.9830569  98.5015429  95.1843096
 122.9430561 102.2736113  85.9380081 122.5049991 101.5571972  85.4785719
 123.6841002 102.5012228  85.3765173 119.7331727  96.9633050  92.4592177
 118.9199593  97.2627221  92.8657369 120.2290721  96.5688739  93.1766659
 121.8840305 106.9590807  94.3926442 121.8416484 107.1851653  93.4634974
 122.8003004 106.7254182  94.5412243 125.3305939  97.4274875 101.2907071
 125.6855327  97.6546348 102.1501536 125.9778070  97.7593251 100.6684326
 131.0603676 100.5493310  91.9956400 130.9221574 100.7394906  91.0677589
 130.7039895 101.3112693  92.4524451 119.2245802  94.5351406  98.0753412
 119.8645181  94.3940165  97.3776375 118.3923332  94.2485919  97.6992014
 131.0873055 102.6169837  97.0067671 131.5209562 102.5245127  97.8550725
 131.8004636 102.5927338  96.3687687 120.0006106 103.8353836  94.1888404
 120.7946704 103.3404156  93.9870979 119.2897798 103.3071699  93.8256110
 124.8200950 106.2171932  98.5400772 124.8737973 106.7862868  99.3078488
 123.9515732 106.3873817  98.1754809 116.3088869  97.9796918  90.2648157
 115.3786457  97.9181373  90.4818119 116.4046341  97.4572871  89.4684798
 116.2274418  94.5051731  92.8526399 116.4881236  95.4197064  92.7435559
 117.0491591  94.0376173  93.0023011 117.6999344  95.9189488 100.0225223
 118.3722397  95.7106850  99.3737872 116.8729130  95.7211574  99.5830455
 131.9488605 102.6593538  99.5400557 132.1424495 103.5639349  99.7859832
 131.8489223 102.2000957 100.3739142 123.6024916  92.5451429 102.0390884
 122.9552831  93.2441378 101.9455360 124.3725931  92.9787573 102.4067132
 127.0103714 102.8100281 105.1141437 126.8589220 102.5810833 104.1971521
 127.0008393 103.7670882 105.1272782 123.7789050 100.3832194 100.0987704
 124.7081110 100.5343353  99.9256671 123.3580080 100.4716214  99.2436350
 122.5777382 104.4082858  97.8686241 122.4388467 104.0401642  98.7412179
 121.7891978 104.9230497  97.6970199 123.1725534 109.5091955  89.2111778
 123.3477289 109.0379998  90.0257401 122.4858322 110.1357721  89.4393039
 124.1282597 103.7864461  95.2575079 123.7932430 103.7465231  96.1532729
 123.6286543 103.1209177  94.7845489 118.1026841  99.1932091 100.7827660
 117.9646639  98.4612330 101.3839199 119.0131764  99.1040991 100.5011848
 127.0641789 101.1320495  85.5312139 126.4470959 100.4067323  85.4345191
 126.5958277 101.8929855  85.1879213 120.7309142  98.9052050 100.2711340
 121.4408760  98.2645242 100.2297958 120.6878450  99.1564945 101.1937521
 128.7195920 105.8419403 103.1917919 128.6608466 105.1578624 102.5248502
 129.1215439 106.5838393 102.7398545 119.4438076  95.8917268 102.0906979
 118.9075433  95.4408006 102.7428576 118.8554784  96.0263177 101.3477444
 117.7386619 112.6581317  95.9851638 117.9783217 113.2899841  96.6630657
 116.8955816 112.3069357  96.2716997 118.8540334  95.3505919  84.6533443
 117.9769801  95.2294720  84.2895690 119.3298088  94.5591998  84.4012332
 128.7213328 103.8058987 101.4231899 127.8340106 103.4684909 101.5458298
 129.2911879 103.0742019 101.6600664 115.1777197  95.0273276  99.1759974
 115.0935385  94.4198945  98.4410384 114.3559903  95.5182294  99.1769470
 122.2514481 108.4660440  98.3893142 122.1784652 109.2715411  98.9012447
 121.8091874 108.6652406  97.5641163 122.0404261 107.7032210  91.8995964
 121.2571782 108.2453890  91.9934188 122.7397006 108.2206189  92.2990205
 125.3500911  93.5126839  94.5430169 125.8469610  92.7596802  94.2231239
 124.5787892  93.5491156  93.9773378 133.2030668  99.2167205  96.1848460
 133.1920544 100.0991920  95.8142394 132.3348047  98.8638756  95.9902997
 124.7113164 108.3647274 100.5451301 125.4241137 108.9994739 100.4727202
 124.2203193 108.4611140  99.7291302 126.4330691 102.2698526  92.1168592
 125.4986970 102.3899989  91.9473297 126.6107360 101.3670993  91.8528602
 121.9335879  95.6544222  94.2701854 121.5633667  95.1015263  94.9582759
 122.4294972  95.0502356  93.7176854 129.8203243  98.1115846  92.6518626
 130.2863695  98.9443837  92.5778929 130.2710743  97.6460827  93.3563885
 119.7625078 106.1141717 101.3656871 120.4634537 106.7478200 101.5186266
 119.2920193 106.4556449 100.6052511 127.8879474 104.4559667  89.6504779
 128.1639318 104.3416262  90.5598653 127.0183973 104.0577152  89.6116952
 127.7919905  90.4796433  96.6909528 126.8782985  90.7100660  96.8591735
 128.2213007  90.5634877  97.5423560 127.5626364  98.6686325  99.1909422
 126.9097814  98.9162232  98.5361875 127.9406744  97.8550463  98.8571899
 124.5233538 108.7046018  93.2937592 124.7055932 107.8867674  93.7565344
 125.3466524 108.9213710  92.8562482 124.8575703 107.6314203  90.5552641
 125.3863470 107.1206658  89.9422803 125.1203923 107.3156733  91.4198174
 123.6113937  99.4106136 105.6775459 122.9354574  99.3100265 106.3477834
 124.4341571  99.2545349 106.1411456 115.3592796 105.6478072  98.2987974
 115.9446233 104.9021760  98.4315878 115.1617634 105.9582029  99.1824638
 118.2131451 108.6829320  93.3150417 117.5441826 109.1675447  92.8314457
 118.0744321 108.9298540  94.2293795 122.3536720 110.7173063  99.9133075
 122.9055028 110.8804685 100.6782160 122.6942913 111.3077501  99.2413100
 117.3301213  93.0648213 100.5154960 117.3942540  93.9263044 100.1032357
 117.2668333  92.4522215  99.7827318 116.8053486  95.1371346 104.1627994
 117.4325524  94.7548423 104.7765518 115.9481404  94.9185547 104.5283686
 127.2047594 105.5434321 105.7681729 127.7487498 106.1564279 105.2736684
 126.6234439 106.1013899 106.2848742 113.5819028  96.9447775  90.0946349
 113.8772469  96.0358453  90.0413402 112.6807064  96.9235514  89.7727351
 125.4905107 108.6655039  96.8996757 125.3656247 107.8644779  96.3907703
 126.1484198 109.1601232  96.4110727 117.1113275  95.0203771  96.0773897
 116.3899861  95.6339739  95.9381371 117.9006531  95.5561536  95.9990543
 127.5540015 106.4664059  98.5276307 126.6070351 106.3469410  98.4554634
 127.9022789 105.5786557  98.6102569 119.9139589  92.3558198 102.3514549
 120.4373991  92.6020494 103.1140858 119.6951922  93.1878233 101.9317686
 115.3106870  94.6261872  90.2185674 114.9819576  93.7459251  90.0360780
 115.6646241  94.5709541  91.1062063 124.5586449 106.2616775  94.7280659
 124.4111411 105.3333482  94.9088229 125.3839942 106.2836866  94.2437735
 118.4248693  94.9134842  90.5861152 118.7644766  95.4420763  89.8639760
 118.8720814  95.2515248  91.3619718 128.1620571 107.0845334  95.8145532
 129.0867118 106.8788195  95.6769983 127.9935874 106.8361735  96.7234874
 121.1192134  93.2971893 100.0364220 120.7788954  92.4979706 100.4384899
 120.4131140  93.5973604  99.4641053 121.7708606  90.3821205  98.4891543
 122.5934675  89.9081683  98.3670433 122.0146669  91.1611689  98.9890229
 120.4116840  93.4109464  88.7854444 121.1325203  93.7890716  88.2818161
 119.7882144  94.1298340  88.8889422 124.5547963  94.1154613  89.7212777
 124.7711577  94.9979251  89.4201605 124.0742030  93.7240826  88.9918419
 119.2947184  97.0740326  96.2983521 119.1491765  97.3880629  97.1907803
 118.8172388  97.6925226  95.7454420 121.1543567  94.0642874  96.3464411
 121.1405136  93.1683967  96.0096709 121.8715995  94.0713538  96.9802697
 123.0069698  94.4980214  98.3917538 122.7487476  95.4197285  98.3901869
 122.4754738  94.1010649  99.0818002 127.9515887 107.6031001  91.1707624
 128.1252764 107.0377424  90.4181476 128.4444778 108.4031896  90.9887114
 113.7692847  99.6145670  99.2371182 113.2246315 100.3905478  99.3691457
 114.6472196  99.9616475  99.0790304 120.5580463  92.9457254  91.6151981
 120.6796374  92.0173900  91.8142868 120.2682506  92.9595940  90.7030296
 123.4271654  90.6312165  94.7518701 123.4493350  90.6951498  93.7970680
 123.8439713  89.7916673  94.9459207 133.8055278 100.3667424  92.7897923
 134.2486424  99.6174749  92.3917047 132.9281788 100.3577560  92.4071655
 128.9391059 106.9197766  88.2704522 129.6341964 107.5404458  88.4891837
 129.2814209 106.0693117  88.5456900 114.5558868  98.7415567 102.1301339
 113.8140605  98.8898202 102.7165970 114.2351613  99.0023832 101.2668089
 130.8382482 104.3697471  89.7991853 131.3633807 104.7084744  89.0741173
 130.7504835 103.4344486  89.6154987 122.5002531 108.2831545 101.9281729
 122.8089658 108.0380692 102.8004429 123.2978013 108.4878183 101.4400600
 122.5223143 110.4369454  94.1587106 122.0828133 109.9445833  94.8519963
 123.2731260 109.8942422  93.9179181 115.0015482 106.6280995  94.1611734
 115.8273502 106.3284767  93.7810377 114.6509534 105.8588618  94.6101523
 119.9697015 105.9807463  96.2309408 119.3477025 105.3178168  95.9311635
 120.6401882 106.0068595  95.5483055 113.2024087 104.5467322  95.1200668
 112.3655996 104.1189496  94.9384669 113.1747733 104.7399765  96.0571459
 120.0421543  94.4589251 105.8241914 120.0909698  95.3351374 105.4419683
 120.5844057  93.9166645 105.2513557 130.5276389 105.0030375 105.1043051
 129.7371932 104.9854514 104.5647550 130.2909743 105.5418668 105.8592087
 130.6474264 101.8522841 102.4175779 130.6972268 101.6872849 103.3591302
 130.5388187 100.9850100 102.0273660 119.5310522 104.5311387  89.7067868
 119.6798643 105.2146851  89.0534541 120.3376966 104.5116477  90.2217324
 127.9378026  97.8353769 103.7335086 128.8387889  97.6960234 103.4419084
 128.0126000  98.0008224 104.6733263 122.2720831  95.2120624 102.5788272
 121.4024141  95.5054190 102.3070861 122.5080312  95.7961069 103.2995536
 132.1492460 104.2719783 102.6617801 131.8577269 104.6349763 103.4981262
 131.5364592 103.5586791 102.4831133 133.3488143 101.8372662  95.1820371
 134.1835034 102.2762466  95.3457931 133.4847271 101.3611316  94.3628617
 130.3979649  99.3952397 101.1297859 130.8733770  99.5880044 100.3216710
 129.4745214  99.4511583 100.8841242 117.2863155 100.5576564  90.7128937
 117.0409197  99.6538894  90.9109147 117.4559070 100.5593715  89.7708415
 124.9759865  91.4300241 100.0953693 125.4941809  92.1661268  99.7700181
 124.6214998  91.7364234 100.9300452 116.5558803  96.2904922  88.2115098
 115.8628048  96.3649277  87.5555134 116.3110555  95.5265266  88.7336615
 125.2272459  87.8500523  95.6154589 125.5074213  87.1823712  96.2415016
 126.0123066  88.0429619  95.1029253 123.0305928 107.0259517  87.1779615
 122.4579895 107.6449704  86.7250087 123.6038721 107.5758879  87.7119537
 129.0981318  96.2718157  99.3626164 130.0498741  96.3716255  99.3838388
 128.9284768  95.4796426  99.8724249 127.1195697  93.3573741  99.5485565
 126.5245629  93.6378753  98.8532054 126.8345394  93.8467641 100.3202306
 126.2503188 107.3096667  88.3088198 127.1833861 107.2442229  88.5121073
 126.1626400 108.1452934  87.8502730 128.8791204 106.6262538  85.2692145
 128.8004836 106.2922401  86.1627903 129.7000871 107.1184306  85.2683618
 131.5769395  99.4924277  98.4768464 131.5445716  98.5540278  98.6628148
 132.1870019  99.5708314  97.7434289 123.4152726  98.3620330  84.5195668
 124.3611831  98.2326538  84.5884086 123.0366971  97.6234992  84.9965096
 131.7263884  96.2835320  98.5226747 131.2102933  95.4993777  98.3356676
 132.6103832  95.9554037  98.6873267 129.3874611  90.0276336  94.4822560
 129.1899432  89.7191424  95.3665892 129.9974316  90.7537975  94.6120490
 135.4761242  98.6948146  98.2148952 134.7494406  98.5604111  97.6065444
 135.0608529  99.0024975  99.0205670 123.2991419 102.4138076 105.9796325
 124.2194428 102.5916675 106.1736371 123.2641002 101.4694122 105.8276024
 121.5995643  96.2870306  84.4550553 120.6927099  95.9903419  84.5313267
 121.8771624  95.9900124  83.5884839 116.2953491 100.3239111  98.6219106
 116.5139501 101.2556219  98.6407140 116.7079265  99.9647085  99.4073910
 123.2157709  90.8307196  90.6094794 122.4058437  90.4854281  90.9850041
 123.9042126  90.5214740  91.1982406 125.1448257  89.9085243  92.2319091
 125.6979296  90.3280696  92.8909114 125.3818344  88.9820991  92.2742047
 121.1681357  95.8972317 108.0121855 121.0678084  96.8466674 107.9433946
 120.9502899  95.5690555 107.1397925 120.3694428  93.1457242  84.5962532
 121.2313592  93.4712140  84.8558350 120.5544772  92.3588738  84.0835598
 112.3861844 101.2279581  96.8742721 111.6925315 100.8133534  96.3612676
 113.1334835 101.2700118  96.2776140 128.5227065  92.0185768  91.7397755
 127.9425734  92.6770572  91.3575808 128.2562997  91.1963113  91.3285173
 126.9730631  91.4190826  93.9419076 127.4730409  91.5307360  93.1333395
 127.6166239  91.1151879  94.5819884 121.0312627  99.3269455 106.8286917
 120.5479708 100.1269816 107.0350806 121.1173566  99.3377400 105.8754361
 114.2998586 101.1597835  94.7508736 114.2769274 101.2585522  93.7990619
 114.6099223 102.0062986  95.0725902 116.9585964 103.2173990  98.8655350
 117.9129218 103.1857932  98.7985282 116.7598488 102.7564614  99.6805576
 117.5485346 101.7875106 101.4326148 118.3678235 102.2819185 101.4560985
 117.8222154 100.8707074 101.4043716 127.3051943  94.1785858  90.7954104
 126.4177798  94.4635509  90.5774298 127.7205932  94.0179622  89.9481381
 130.6566479  94.2032379  94.5108443 131.4326869  94.6928832  94.7833060
 129.9314613  94.6290434  94.9680312 133.0939037  94.9159999  95.5682384
 133.6883528  94.6755735  94.8575692 133.1665621  94.1967129  96.1955920
 115.3136193 108.7593610  95.8825548 115.1790661 107.9994010  95.3163546
 114.8968255 109.4834509  95.4154337 126.4495156 103.9430533  84.8902124
 127.1531006 104.1480536  85.5059779 125.7257805 104.5107295  85.1551207
 127.2792966  99.6940394  91.0104394 127.2228168 100.1508946  90.1712026
 127.8321309  98.9331079  90.8327237 131.0897772  95.4830126  91.8354513
 130.8334706  95.0826762  92.6662721 130.4650640  96.1973920  91.7104652
 135.4010110  98.2226200  94.3425805 134.8409668  98.2919389  95.1157367
 134.7953613  98.0467184  93.6225301 118.4705319 109.6562927  96.0943991
 118.3537703 110.6008359  95.9922681 117.6497765 109.3536488  96.4829790
 128.3581853 104.3813062  86.9400584 129.1927457 103.9494261  86.7578058
 128.1966196 104.2095076  87.8677478 128.0127746 100.8845176  88.3056923
 127.9576549 100.7189447  87.3645367 127.3873801 101.5921209  88.4619113
 112.8020261  96.1213240 102.1318345 113.4479124  95.6112194 102.6205570
 112.5937412  96.8581922 102.7061770 125.3273653 103.1894088 107.6310486
 126.1964812 103.3634740 107.2697121 124.8480404 104.0088504 107.5086215
 121.3223871  90.3853285  87.8842241 121.3102541  91.3295125  88.0410512
 122.2147293  90.2023430  87.5901703 119.4959833 110.3091189  99.3099919
 120.3987080 110.3414799  99.6266414 119.2697203 109.3791639  99.3246255
 121.2513435 109.0622175  95.9709998 120.3009066 109.0624037  95.8574370
 121.5545921 108.3154910  95.4546033 125.1375991  86.9796061  92.1388178
 124.3708386  86.4254548  92.2844861 125.5486695  87.0517930  93.0002330
 117.1417752  93.2680857 106.2293359 118.0049213  92.9117662 106.4396684
 116.5683162  92.9294752 106.9168764 133.7955835 114.8510142  96.9717285
 133.4574346 114.7351206  96.0837820 134.6645603 114.4501307  96.9518291
 129.6542650 116.7045618  92.9614176 129.0907516 116.6135555  92.1930464
 129.5395046 115.8845522  93.4416669 127.2007082 118.1996810  95.7998397
 127.9928374 117.8587634  95.3844696 127.4403733 118.3091785  96.7200550
 129.1597836 117.4605723  88.6715775 129.9328712 116.9134710  88.5328651
 129.5123235 118.3249972  88.8830237 131.9239086 116.1658954  98.4684034
 132.5202658 115.9414976  97.7540997 131.9814057 115.4243699  99.0709482
 131.4964114 113.6198389  86.3034225 131.7489635 113.0979910  85.5417688
 130.5588673 113.4564534  86.4060909 136.5407397 112.6234167  94.1108968
 137.3270486 112.2053590  93.7599385 136.8046101 113.5280259  94.2790617
 131.2160403 115.5226495  88.5058600 131.0996661 114.8471398  89.1739685
 131.3262663 115.0358869  87.6890753 133.5591944 114.9836642  92.2105289
 133.1950151 114.4567263  92.9218211 134.4159060 114.5935111  92.0371775
 133.1997431 110.0126542  87.2066638 133.3671833 110.8806778  87.5737109
 133.0094600 110.1753823  86.2827927 129.4085245 114.9257317  94.9069173
 128.4835742 114.7933532  95.1146865 129.6569659 115.7051537  95.4039115
 133.1786652 112.4684199  88.1913305 133.0586277 112.9141250  89.0298785
 132.4839240 112.8169517  87.6326843 126.7694057 114.5690591  95.7412962
 126.8986438 114.8225070  96.6552374 126.0891508 115.1618299  95.4217617
 133.5143556 112.3002907 100.0288488 134.3604751 112.7242321 100.1723137
 133.4542193 111.6436531 100.7227051 136.2207693 109.1163708  97.2683500
 135.3592172 109.4144962  97.5600237 136.2470127 109.3334107  96.3364532
 133.0369262 117.6605899  93.6757305 133.5007608 117.9393602  92.8861928
 132.7726060 116.7589343  93.4930396 129.9293343 117.2077380  96.6137069
 130.4994700 117.6364649  95.9754553 130.5201455 116.9259965  97.3121254
 131.9738148 113.7829051  90.4846871 132.6762191 114.2350095  90.9520797
 131.6418777 113.1412870  91.1126764 125.7163482 112.0412604  95.7864004
 124.9262536 112.2970132  95.3104115 126.2074729 112.8560942  95.8916045
 127.6678227 112.4057183  92.7447481 126.8709391 112.5175877  93.2630976
 127.4403820 112.7443835  91.8788371 124.0001185 112.2943094  98.2178995
 124.2509223 113.1790104  98.4836571 124.5360733 112.1147696  97.4454087
 126.6661310 118.1145432  91.1336901 127.1785831 118.9088682  91.2842466
 127.3184023 117.4171722  91.0670502 128.4756195 121.2311188  93.2159654
 128.6522823 122.1529153  93.0280638 129.2713028 120.9169607  93.6454034
 127.7608551 113.2775820 103.0921817 127.6462066 112.3761077 103.3928916
 126.9053069 113.5239517 102.7406634 136.5624376 104.1200556  99.0907869
 136.2188646 105.0102197  99.0146980 136.9303339 103.9302213  98.2277454
 124.6310227 116.4434086  91.9096471 125.4685449 116.8531095  91.6930179
 124.8088495 115.5033528  91.8796665 136.5274659 114.1109167  87.5980304
 136.0121282 114.8813772  87.8368692 136.2551967 113.4374303  88.2213366
 134.1121770 108.9558868  92.6565543 133.2563366 108.5665718  92.4771181
 134.5248722 109.0350828  91.7965328 135.6420917 106.4905211  97.0557102
 135.1385712 106.4535346  96.2424908 135.9351524 107.3997954  97.1153759
 131.8863803 106.5743941  96.0623284 132.7516799 106.3786749  95.7029174
 131.9541311 106.3454292  96.9892641 136.3160962 111.9836259  89.4240085
 136.0111098 112.2982408  90.2750229 137.2691404 112.0617679  89.4667418
 134.7607394 118.1426482  91.0733039 134.2328756 117.4079242  90.7606277
 134.2594897 118.9201159  90.8273008 129.4926122 108.8046149  93.4339651
 130.0669874 108.5821330  92.7012844 130.0797104 108.8734843  94.1868252
 129.8195709 110.8350610  87.4535536 128.9833021 111.1725296  87.7744811
 129.6800478 110.6999589  86.5162673 131.7948789 105.6787397  92.1614720
 131.1413202 105.3636415  91.5371335 131.7529263 105.0563138  92.8874543
 132.9059994 115.9606693  84.0768012 131.9987056 115.7295946  84.2759161
 133.4031026 115.1644312  84.2641994 135.0286530 112.1669331  96.4862368
 134.1109091 112.3884278  96.3284056 135.4446673 112.2415642  95.6274075
 135.8121577 113.5660747  91.6165048 136.5593396 114.0782144  91.3072170
 136.0813167 113.2444799  92.4769442 134.0848228 116.0619287  88.5992003
 133.1759447 115.7778320  88.6964472 134.1143311 116.4818366  87.7395309
 124.6536398 113.7824802  92.5807205 124.4560798 113.1894162  91.8558271
 124.0983062 113.4777012  93.2983144 132.6333122 113.6747908  94.7001798
 132.6881731 112.7221744  94.6244275 131.8224324 113.8307347  95.1843096
 133.7824315 117.6028031  85.9380081 133.3443745 116.8863890  85.4785719
 134.5234756 117.8304146  85.3765173 130.5725482 112.2924968  92.4592177
 129.7593347 112.5919138  92.8657369 131.0684476 111.8980657  93.1766659
 130.0639556 109.8643323  98.0753412 130.7038936 109.7232082  97.3776375
 129.2317087 109.5777837  97.6992014 130.8399860 119.1645754  94.1888404
 131.6340459 118.6696074  93.9870979 130.1291553 118.6363617  93.8256110
 127.1482624 113.3088835  90.2648157 126.2180212 113.2473291  90.4818119
 127.2440096 112.7864788  89.4684798 127.0668173 109.8343648  92.8526399
 127.3274990 110.7488982  92.7435559 127.8885345 109.3668091  93.0023011
 128.5393098 111.2481405 100.0225223 129.2116152 111.0398768  99.3737872
 127.7122885 111.0503491  99.5830455 134.4418670 107.8743346 102.0390884
 133.7946585 108.5733296 101.9455360 135.2119686 108.3079490 102.4067132
 134.9676351 119.1156378  95.2575079 134.6326184 119.0757148  96.1532729
 134.4680297 118.4501094  94.7845489 128.9420595 114.5224008 100.7827660
 128.8040393 113.7904247 101.3839199 129.8525519 114.4332909 100.5011848
 131.5702896 114.2343968 100.2711340 132.2802515 113.5937160 100.2297958
 131.5272204 114.4856863 101.1937521 130.2831830 111.2209186 102.0906979
 129.7469187 110.7699924 102.7428576 129.6948538 111.3555094 101.3477444
 129.6934089 110.6797837  84.6533443 128.8163555 110.5586638  84.2895690
 130.1691842 109.8883915  84.4012332 121.2136229 115.4674997  94.7474950
 121.9007269 115.1536727  94.1595965 121.0584358 116.3716361  94.4742202
 126.0170951 110.3565193  99.1759974 125.9329140 109.7490863  98.4410384
 125.1953658 110.8474212  99.1769470 136.1894665 108.8418757  94.5430169
 136.6863365 108.0888719  94.2231239 135.4181647 108.8783074  93.9773378
 137.2724446 117.5990444  92.1168592 136.3380725 117.7191907  91.9473297
 137.4501114 116.6962911  91.8528602 132.7729634 110.9836140  94.2701854
 132.4027421 110.4307180  94.9582759 133.2688726 110.3794273  93.7176854
 126.1986550 120.9769990  98.2987974 126.7839987 120.2313678  98.4315878
 126.0011389 121.2873947  99.1824638 120.7904205 113.5475590  97.0192417
 120.8288305 113.0139181  97.8129535 120.2844498 113.0210796  96.4003394
 128.1694968 108.3940131 100.5154960 128.2336294 109.2554962 100.1032357
 128.1062088 107.7814132  99.7827318 127.6447240 110.4663263 104.1627994
 128.2719279 110.0840341 104.7765518 126.7875159 110.2477465 104.5283686
 124.4212783 112.2739692  90.0946349 124.7166224 111.3650371  90.0413402
 123.5200819 112.2527432  89.7727351 127.9507030 110.3495689  96.0773897
 127.2293616 110.9631657  95.9381371 128.7400286 110.8853454  95.9990543
 130.7533343 107.6850115 102.3514549 131.2767745 107.9312412 103.1140858
 130.5345677 108.5170150 101.9317686 126.1500624 109.9553790  90.2185674
 125.8213331 109.0751169  90.0360780 126.5039995 109.9001459  91.1062063
 129.2642448 110.2426760  90.5861152 129.6038520 110.7712681  89.8639760
 129.7114568 110.5807166  91.3619718 131.9585888 108.6263810 100.0364220
 131.6182709 107.8271624 100.4384899 131.2524895 108.9265521  99.4641053
 132.6102360 105.7113123  98.4891543 133.4328430 105.2373601  98.3670433
 132.8540424 106.4903607  98.9890229 131.2510595 108.7401381  88.7854444
 131.9718957 109.1182634  88.2818161 130.6275899 109.4590258  88.8889422
 135.3941718 109.4446530  89.7212777 135.6105332 110.3271168  89.4201605
 134.9135785 109.0532744  88.9918419 130.1340939 112.4032244  96.2983521
 129.9885520 112.7172547  97.1907803 129.6566143 113.0217144  95.7454420
 131.9937322 109.3934792  96.3464411 131.9798891 108.4975885  96.0096709
 132.7109750 109.4005455  96.9802697 133.8463453 109.8272132  98.3917538
 133.5881230 110.7489202  98.3901869 133.3148493 109.4302566  99.0818002
 124.6086601 114.9437588  99.2371182 124.0640069 115.7197396  99.3691457
 125.4865951 115.2908392  99.0790304 131.3974218 108.2749172  91.6151981
 131.5190129 107.3465818  91.8142868 131.1076260 108.2887858  90.7030296
 134.2665408 105.9604082  94.7518701 134.2887105 106.0243415  93.7970680
 134.6833467 105.1208591  94.9459207 125.3952623 114.0707484 102.1301339
 124.6534359 114.2190120 102.7165970 125.0745367 114.3315750 101.2668089
 125.8409237 121.9572913  94.1611734 126.6667257 121.6576685  93.7810377
 125.4903289 121.1880535  94.6101523 130.8090770 121.3099381  96.2309408
 130.1870779 120.6470086  95.9311635 131.4795637 121.3360513  95.5483055
 124.0417842 119.8759239  95.1200668 123.2049750 119.4481414  94.9384669
 124.0141487 120.0691683  96.0571459 130.3704277 119.8603305  89.7067868
 130.5192397 120.5438769  89.0534541 131.1770720 119.8408395  90.2217324
 128.1256910 115.8868482  90.7128937 127.8802952 114.9830812  90.9109147
 128.2952824 115.8885633  89.7708415 135.8153620 106.7592159 100.0953693
 136.3335563 107.4953185  99.7700181 135.4608752 107.0656152 100.9300452
 127.3952557 111.6196840  88.2115098 126.7021802 111.6941195  87.5555134
 127.1504309 110.8557183  88.7336615 136.0666214 103.1792441  95.6154589
 136.3467968 102.5115630  96.2415016 136.8516821 103.3721537  95.1029253
 134.2546481 113.6912248  84.5195668 135.2005585 113.5618456  84.5884086
 133.8760726 112.9526910  84.9965096 132.4389398 111.6162224  84.4550553
 131.5320853 111.3195337  84.5313267 132.7165379 111.3192042  83.5884839
 123.3567338 112.9368587  94.9049600 123.0370123 112.0833896  94.6123974
 122.8100766 113.1517166  95.6607567 127.1347246 115.6531028  98.6219106
 127.3533256 116.5848136  98.6407140 127.5473020 115.2939003  99.4073910
 134.0551464 106.1599114  90.6094794 133.2452192 105.8146199  90.9850041
 134.7435881 105.8506658  91.1982406 135.9842012 105.2377161  92.2319091
 136.5373051 105.6572614  92.8909114 136.2212098 104.3112909  92.2742047
 131.2088183 108.4749159  84.5962532 132.0707347 108.8004058  84.8558350
 131.3938527 107.6880655  84.0835598 123.2255598 116.5571499  96.8742721
 122.5319070 116.1425452  96.3612676 123.9728589 116.5992035  96.2776140
 125.1392341 116.4889753  94.7508736 125.1163029 116.5877440  93.7990619
 125.4492977 117.3354904  95.0725902 127.7979719 118.5465908  98.8655350
 128.7522972 118.5149850  98.7985282 127.5992242 118.0856532  99.6805576
 126.1529947 124.0885527  95.8825548 126.0184415 123.3285928  95.3163546
 125.7362010 124.8126427  95.4154337 123.6414015 111.4505158 102.1318345
 124.2872879 110.9404112 102.6205570 123.4331166 112.1873839 102.7061770
 132.1617626 105.7145202  87.8842241 132.1496295 106.6587042  88.0410512
 133.0541047 105.5315348  87.5901703 135.9769745 102.3087979  92.1388178
 135.2102141 101.7546466  92.2844861 136.3880450 102.3809848  93.0002330
  55.0637264  -5.0593460  78.5648743  54.9861293  -4.1085635  78.6437223
  54.4598907  -5.4047588  79.2223669  53.7231230  -7.5491939  85.9415303
  54.2738655  -7.6774876  85.1692297  52.8842706  -7.2497050  85.5910196
  59.9371793  -5.6277101  73.7210005  59.2633492  -5.3245405  74.3294963
  60.3237615  -4.8248021  73.3715462  58.1363008  -5.4597429  75.9357084
  58.3114764  -5.9309386  76.7502707  57.4495796  -4.8331663  76.1638345
  52.7024093  -2.3108066  82.7096945  52.9420692  -1.6789542  83.3875963
  51.8593290  -2.6620026  82.9962304  57.2151955  -6.5028944  85.1138449
  57.1422127  -5.6973972  85.6257753  56.7729348  -6.3036978  84.2886470
  57.0041735  -7.2657174  78.6241270  56.2209257  -6.7235494  78.7179495
  57.7034480  -6.7483194  79.0235511  59.6750639  -6.6042110  87.2696607
  60.3878611  -5.9694645  87.1972509  59.1840667  -6.5078244  86.4536609
  50.3230270  -9.3211311  85.0233281  50.9083707 -10.0667623  85.1561185
  50.1255109  -9.0107354  85.9069945  53.1768926  -6.2860064  80.0395723
  52.5079301  -5.8013936  79.5559763  53.0381795  -6.0390843  80.9539102
  57.3174194  -4.2516320  86.6378382  57.8692502  -4.0884699  87.4027467
  57.6580388  -3.6611882  85.9658406  57.4640005  -6.6857839  88.6527036
  57.7727132  -6.9308692  89.5249735  58.2615487  -6.4811200  88.1645906
  57.4860618  -4.5319929  80.8832412  57.0465608  -5.0243550  81.5765269
  58.2368734  -5.0746961  80.6424488  49.9652956  -8.3408388  80.8857041
  50.7910976  -8.6404616  80.5055684  49.6147008  -9.1100766  81.3346829
  48.1661562 -10.4222062  81.8445974  47.3293470 -10.8499887  81.6629975
  48.1385207 -10.2289618  82.7816765  50.2773667  -6.2095774  82.6070855
  50.1428135  -6.9695373  82.0408853  49.8605730  -5.4854874  82.1399644
  53.4342793  -5.3126457  82.8189298  53.3175177  -4.3681024  82.7167988
  52.6135239  -5.6152895  83.2075097  54.4597307  -4.6598195  86.0345226
  55.3624554  -4.6274585  86.3511721  54.2334677  -5.5897744  86.0491562
  56.2150909  -5.9067208  82.6955305  55.2646540  -5.9065347  82.5819677
  56.5183395  -6.6534474  82.1791339  71.9503603  -0.0706670  83.7601067
  72.5882013  -0.1899923  83.0564407  71.8324446   0.8774174  83.8189019
  68.7593309  -0.1179242  83.6962592  68.4211821  -0.2338177  82.8083127
  69.6283077  -0.5188077  83.6763598  64.6180125   1.7356235  79.6859483
  64.0544990   1.6446171  78.9175770  64.5032520   0.9156139  80.1661975
  69.2413092   1.0355610  89.6548797  69.2301733   0.6408408  88.7829301
  69.4033732   0.3021682  90.2482569  62.1644557   3.2307426  82.5243703
  62.9565849   2.8898251  82.1090002  62.4041207   3.3402401  83.4445856
  70.1979684   5.4027202  74.9973948  69.5467663   5.9881283  74.6107961
  70.9924046   5.9333397  75.0568985  64.1235311   2.4916339  75.3961082
  64.8966187   1.9445326  75.2573958  64.4760710   3.3560589  75.6075543
  65.9620353   3.8192722  88.6027981  65.6710219   4.7238352  88.4874648
  66.5977338   3.8609249  89.3172051  66.8876560   1.1969570  85.1929341
  67.4840132   0.9725593  84.4786304  66.9451532   0.4554316  85.7954789
  66.4601588  -1.3490995  73.0279532  66.7127109  -1.8709473  72.2662995
  65.5226148  -1.5124849  73.1306215  71.6754949   3.0917634  75.5342932
  71.0400782   3.1652261  76.2463837  71.3452355   3.6811233  74.8562011
  66.1797877   0.5537111  75.2303907  66.0634135  -0.1217985  75.8984991
  66.2900137   0.0669485  74.4136060  68.5229418   0.0147259  78.9350596
  68.1587625  -0.5122120  79.6463518  69.3796534  -0.3754272  78.7617081
  70.9210238   3.5054137  85.5977775  70.6210961   4.4079176  85.4893582
  70.5761298   3.2386320  86.4498928  64.3722720  -0.0432066  81.6314479
  63.4473216  -0.1755852  81.8392171  64.6207133   0.7362153  82.1284422
  68.1424126  -2.5005184  74.9158611  68.0223751  -2.0548134  75.7544092
  67.4476714  -2.1519867  74.3572150  61.7331531  -0.3998792  82.4658268
  61.8623912  -0.1464314  83.3797680  61.0528982   0.1928916  82.1462924
  65.9031018  10.2698457  78.5648743  65.8255048  11.2206283  78.6437223
  65.2992662   9.9244330  79.2223669  68.3948248  -2.5573677  91.2210110
  67.6181582  -1.9979757  91.2112974  69.0338811  -2.0716894  91.7424980
  66.6494620   0.2511776  90.7828077  67.3909305   0.7896820  90.5062900
  65.9431606   0.8778065  90.9399628  72.1249960   2.3940917  89.3800238
  72.5333316   1.9523327  88.6354870  71.4027221   1.8193544  89.6334431
  68.4781030  -2.6686476  86.7533795  69.3242225  -2.2447063  86.8968444
  68.4179668  -3.3252852  87.4472358  72.4478774   2.9542107  83.1352527
  71.8187637   3.1187821  82.4328595  72.0604437   3.3683717  83.9063491
  76.3268006   3.8896545  80.4896891  75.6419045   4.2695447  79.9393924
  76.4111856   4.4991872  81.2228838  73.5818938   1.5356504  87.0892234
  73.7935833   2.1788264  86.4126615  73.5348686   0.7018821  86.6214164
  68.0006736   2.6916515  80.4002612  68.4645082   2.9704218  79.6107235
  67.7363534   1.7899960  80.2175703  64.8930817   2.2387997  83.3382375
  65.4632174   2.6675265  82.6999860  65.4838929   1.9570582  84.0366561
  66.9375622  -1.1860332  77.2092177  67.6399666  -0.7339289  77.6766104
  66.6056251  -1.8276513  77.8372070  65.3855984  -2.5948576  91.5843387
  64.7554645  -1.9132295  91.8178783  65.2792072  -2.7065494  90.6396525
  60.6800956  -2.9276780  82.5109311  59.8900010  -2.6719251  82.0349421
  61.1712204  -2.1128442  82.6161351  74.6964766   4.4128460  85.2614592
  75.5182210   4.0108647  84.9797273  74.6927169   4.3096694  86.2130707
  62.6315702  -2.5632200  79.4692787  61.8346865  -2.4513506  79.9876283
  62.4041294  -2.2245548  78.6033678  68.4621369   3.9612503  87.4175302
  68.5265802   4.4232910  88.2533474  67.7532293   3.3309868  87.5457612
  58.9638659  -2.6746289  84.9424302  59.2146698  -1.7899279  85.2081877
  59.4998208  -2.8541688  84.1699393  68.1769387   5.6280610  77.2854282
  68.0415062   6.4732146  77.7139130  68.7179200   5.8299888  76.5220216
  61.6298784   3.1456048  77.8582207  62.1423305   3.9399299  78.0087772
  62.2821497   2.4482339  77.7915809  63.4393669   6.2621805  79.9404961
  63.6160297   7.1839769  79.7525945  64.2350503   5.9480224  80.3699340
  62.7246026  -1.6913563  89.8167124  62.6099541  -2.5928306  90.1174223
  61.8690543  -1.4449867  89.4651940  69.8037863   6.2504177  91.4154624
  69.3601718   5.4640556  91.0975529  70.4655077   6.4383327  90.7498515
  64.5624985   7.7799979  85.9415303  65.1132410   7.6517042  85.1692297
  63.7236460   8.0794868  85.5910196  71.9019101   6.5306977  89.4436026
  71.8837577   7.3515858  88.9516295  72.8239022   6.4061052  89.6686167
  68.3592156   4.0451106  90.2859534  68.8920492   3.2839395  90.0558842
  67.8306237   3.7524758  91.0283689  59.5947701   1.4744703  78.6341778
  60.4322923   1.8841711  78.4175486  59.7725969   0.5344145  78.6041972
  71.4912133  -0.8580217  74.3225611  70.9758757  -0.0875612  74.5613998
  71.2189442  -1.5315080  74.9458672  76.4646407   1.8952138  76.2578784
  75.6875850   1.5563298  75.8133947  77.1437888   1.9004761  75.5833749
  69.7244868   3.1737099  77.7978346  69.1966230   2.4389858  77.4851584
  69.2232371   3.9511775  77.5518314  74.7037714   1.3686119  82.9145392
  74.0461389   2.0585381  83.0025521  75.5078114   1.7582551  83.2579379
  73.5143173  -0.2769508  80.9649334  74.0275055   0.3560484  81.4671044
  74.1644397  -0.8768312  80.5992694  64.7833183  -4.1338774  74.1780843
  63.9470495  -3.7964087  74.4990118  64.6437953  -4.2689794  73.2407980
  67.8697469   0.9917309  70.8013319  66.9624530   0.7606563  71.0004468
  68.3668501   0.1954928  70.9887301  70.7765547   9.7014816  73.7210005
  70.1027246  10.0046513  74.3294963  71.1631369  10.5043897  73.3715462
  69.9924004  -2.8020052  83.2107675  69.0746565  -2.5805105  83.0529363
  70.4084148  -2.7273742  82.3519382  70.7759052  -1.4028637  78.3410355
  71.5230871  -0.8907240  78.0317477  71.0450641  -1.7244584  79.2014749
  69.0485702   1.0929904  75.3237309  68.1396921   0.8088937  75.4209779
  69.0780786   1.5128983  74.4640616  74.2804969   4.7036493  79.0928477
  73.8267296   3.8627403  79.1493667  73.6498936   5.3397892  79.4303257
  72.7237909   6.5412990  80.0278295  73.0160883   7.1018047  79.3090661
  73.2336529   6.8341551  80.7831454  59.6173872  -1.1864582  79.3052511
  59.4198272  -1.7795221  78.5803578  59.0620536  -1.4912372  80.0228450
  67.5970596  -1.2941475  81.4247105  67.6519206  -2.2467639  81.3489581
  66.7861798  -1.1382036  81.9088403  68.7461790   2.6338648  72.6625388
  68.3081220   1.9174507  72.2031025  69.4872231   2.8614762  72.1010479
  65.5362956  -2.6764416  79.1837483  64.7230821  -2.3770245  79.5902676
  66.0321950  -3.0708727  79.9011966  67.6871534   7.3193341  81.1171748
  67.6447713   7.5454188  80.1880280  68.6034233   7.0856716  81.2657549
  71.1337168  -2.2122591  88.0152377  71.4886555  -1.9851118  88.8746843
  71.7809299  -1.8804214  87.3929633  76.8634905   0.9095845  78.7201706
  76.7252803   1.0997441  77.7922896  76.5071123   1.6715228  79.1769758
  76.8904284   2.9772372  83.7312978  77.3240791   2.8847661  84.5796032
  77.6035865   2.9529872  83.0932994  65.8037335   4.1956370  80.9133711
  66.5977933   3.7006690  80.7116286  65.0929027   3.6674233  80.5501416
  70.6232179   6.5774466  85.2646078  70.6769201   7.1465402  86.0323794
  69.7546960   6.7476351  84.9000116  62.1120098  -1.6600548  76.9893464
  61.1817686  -1.7216093  77.2063426  62.2077570  -2.1824595  76.1930105
  62.0305647  -5.1345735  79.5771705  62.2912464  -4.2200402  79.4680866
  62.8522819  -5.6021293  79.7268318  63.5030572  -3.7207978  86.7470530
  64.1753626  -3.9290616  86.0983179  62.6760359  -3.9185892  86.3075762
  77.7519834   3.0196072  86.2645863  77.9455724   3.9241883  86.5105138
  77.6520452   2.5603491  87.0984448  72.8134942   3.1702815  91.8386744
  72.6620449   2.9413367  90.9216828  72.8039622   4.1273417  91.8518089
  69.5820279   0.7434728  86.8233010  70.5112339   0.8945887  86.6501978
  69.1611309   0.8318749  85.9681657  68.3808611   4.7685392  84.5931548
  68.2419696   4.4004177  85.4657486  67.5923207   5.2833032  84.4215506
  68.9756763   9.8694489  75.9357084  69.1508518   9.3982532  76.7502707
  68.2889551  10.4960255  76.1638345  69.9313826   4.1466995  81.9820386
  69.5963658   4.1067765  82.8778036  69.4317771   3.4811711  81.5090796
  63.9058070  -0.4465375  87.5072967  63.7677868  -1.1785136  88.1084506
  64.8162993  -0.5356475  87.2257155  72.8673017   1.4923029  72.2557445
  72.2502188   0.7669857  72.1590498  72.3989506   2.2532390  71.9124520
  66.5340370  -0.7345416  86.9956647  67.2439989  -1.3752224  86.9543265
  66.4909679  -0.4832521  87.9182827  74.5227149   6.2021938  89.9163226
  74.4639695   5.5181158  89.2493809  74.9246667   6.9440928  89.4643852
  65.2469304  -3.7480198  88.8152286  64.7106661  -4.1989459  89.4673882
  64.6586013  -3.6134289  88.0722750  63.5417848  13.0183851  82.7096945
  63.7814446  13.6502376  83.3875963  62.6987044  12.6671892  82.9962304
  64.6571563  -4.2891546  71.3778750  63.7801030  -4.4102746  71.0140996
  65.1329316  -5.0805468  71.1257638  74.5244556   4.1661522  88.1477205
  73.6371335   3.8287443  88.2703604  75.0943107   3.4344553  88.3845971
  56.1773703   0.4985613  81.4720257  56.8644743   0.1847343  80.8841272
  56.0221832   1.4026978  81.1987508  60.9808426  -4.6124190  85.9005281
  60.8966614  -5.2198521  85.1655690  60.1591132  -4.1215172  85.9014777
  68.0545710   8.8262974  85.1138449  67.9815881   9.6317945  85.6257753
  67.6123103   9.0254940  84.2886470  67.8435489   8.0634744  78.6241270
  67.0603011   8.6056424  78.7179495  68.5428234   8.5808724  79.0235511
  70.5144393   8.7249808  87.2696607  71.2272365   9.3597273  87.1972509
  70.0234422   8.8213674  86.4536609  72.2361920   2.6301061  78.8413899
  71.3018199   2.7502523  78.6718603  72.4138589   1.7273527  78.5773909
  65.5656307   6.4744251  88.0902178  66.2665766   7.1080734  88.2431572
  65.0951422   6.8158983  87.3297817  73.6910703   4.8162201  76.3750085
  73.9670546   4.7018796  77.2843959  72.8215201   4.4179686  76.3362258
  73.3657593  -0.9711141  85.9154728  72.7129043  -0.7235234  85.2607181
  73.7437973  -1.7847003  85.5817206  70.3264767   9.0648552  80.0182899
  70.5087161   8.2470208  80.4810651  71.1497753   9.2816244  79.5807789
  70.6606932   7.9916737  77.2797947  71.1894699   7.4809192  76.6668109
  70.9235152   7.6759267  78.1443480  69.4145166  -0.2291330  92.4020766
  68.7385803  -0.3297201  93.0723141  70.2372800  -0.3852116  92.8656763
  61.1624025   6.0080606  85.0233281  61.7477462   5.2624294  85.1561185
  60.9648863   6.3184563  85.9069945  64.0162680   9.0431854  80.0395723
  63.3473055   9.5277981  79.5559763  63.8775550   9.2901074  80.9539102
  55.7541680  -1.4213793  83.7437724  55.7925779  -1.9550203  84.5374842
  55.2481972  -1.9478588  83.1248701  68.1567949  11.0775597  86.6378382
  68.7086257  11.2407219  87.4027467  68.4974142  11.6680035  85.9658406
  62.6084714  -4.5026120  90.8873301  63.2356753  -4.8849043  91.5010825
  61.7512633  -4.7211918  91.2528993  73.0078823   5.9036855  92.4927036
  73.5518727   6.5166813  91.9981991  72.4265668   6.4616433  93.0094049
  59.3850257  -2.6949691  76.8191655  59.6803698  -3.6039013  76.7658709
  58.4838293  -2.7161952  76.4972658  71.2936336   9.0257573  83.6242064
  71.1687475   8.2247313  83.1153009  71.9515427   9.5203766  83.1356034
  62.9144504  -4.6193695  82.8019204  62.1931090  -4.0057727  82.6626677
  63.7037760  -4.0835930  82.7235850  73.3571244   6.8266593  85.2521614
  72.4101580   6.7071944  85.1799941  73.7054017   5.9389091  85.3347875
  61.1138099  -5.0135594  76.9430980  60.7850805  -5.8938215  76.7606086
  61.4677469  -5.0687925  77.8307370  70.3617678   6.6219309  81.4525966
  70.2142640   5.6936017  81.6333536  71.1871171   6.6439400  80.9683041
  64.2279922  -4.7262624  77.3106458  64.5675994  -4.1976702  76.5885067
  64.6752042  -4.3882218  78.0865025  73.9651799   7.4447868  82.5390839
  74.8898347   7.2390729  82.4015290  73.7967103   7.1964269  83.4480180
  65.0978413  -2.5657140  83.0228828  64.9522994  -2.2516837  83.9153109
  64.6203617  -1.9472240  82.4699726  73.7547116   7.9633535  77.8952930
  73.9283993   7.3979958  77.1426783  74.2476007   8.7634430  77.7132420
  59.5724075  -0.0251796  85.9616489  59.0277544   0.7508012  86.0936763
  60.4503425   0.3219009  85.8035610  74.7422288   7.2800300  74.9949829
  75.4373193   7.9006992  75.2137143  75.0845438   6.4295651  75.2702206
  60.3590097  -0.8981899  88.8546646  59.6171833  -0.7499264  89.4411276
  60.0382842  -0.6373634  87.9913395  76.6413711   4.7300005  76.5237159
  77.1665035   5.0687278  75.7986479  76.5536064   3.7947021  76.3400294
  68.3033760   8.6434079  88.6527036  68.6120886   8.3983226  89.5249735
  69.1009242   8.8480717  88.1645906  68.3254372  10.7971989  80.8832412
  67.8859362  10.3048367  81.5765269  69.0762489  10.2544956  80.6424488
  60.8046711   6.9883529  80.8857041  61.6304731   6.6887301  80.5055684
  60.4540763   6.2191152  81.3346829  65.7728244   6.3409998  82.9554714
  65.1508253   5.6780703  82.6556942  66.4433111   6.3671130  82.2728362
  59.0055316   4.9069856  81.8445974  58.1687224   4.4792030  81.6629975
  58.9778961   5.1002299  82.7816765  76.3307617   5.3632909  91.8288357
  75.5403161   5.3457048  91.2892857  76.0940972   5.9021203  92.5837394
  76.4505492   2.2125375  89.1421086  76.5003497   2.0475383  90.0836609
  76.3419416   1.3452634  88.7518967  65.3341751   4.8913921  76.4313175
  65.4829871   5.5749385  75.7779847  66.1408195   4.8719011  76.9462630
  77.9523689   4.6322317  89.3863107  77.6608497   4.9952297  90.2226568
  77.3395820   3.9189325  89.2076439  79.1519372   2.1975197  81.9065678
  79.9866263   2.6365001  82.0703238  79.2878500   1.7213850  81.0873923
  76.2010877  -0.2445069  87.8543165  76.6764999  -0.0517422  87.0462017
  75.2776443  -0.1885883  87.6086549  63.0894384   0.9179099  77.4374244
  62.8440426   0.0141429  77.6354454  63.2590299   0.9196249  76.4953722
  62.3590032  -3.3492544  74.9360405  61.6659277  -3.2748189  74.2800441
  62.1141783  -4.1132200  75.4581922  68.8337157   7.3862051  73.9024922
  68.2611124   8.0052239  73.4495394  69.4069950   7.9361413  74.4364844
  72.0534416   7.6699202  75.0333504  72.9865090   7.6044763  75.2366380
  71.9657629   8.5055468  74.5748037  74.6822433   6.9865072  71.9937452
  74.6036065   6.6524936  72.8873210  75.5032100   7.4786840  71.9928924
  69.2183955  -1.2777136  71.2440975  70.1643060  -1.4070928  71.3129393
  68.8398200  -2.0162474  71.7210403  69.1022648   2.7740610  92.7041632
  70.0225657   2.9519209  92.8981678  69.0672231   1.8296656  92.5521331
  67.4026872  -3.3527159  71.1795860  66.4958328  -3.6494047  71.2558573
  67.6802853  -3.6497341  70.3130146  58.3204813  -2.0320796  81.6294906
  58.0007597  -2.8855488  81.3369280  57.7738241  -1.8172218  82.3852874
  62.0984720   0.6841645  85.3464413  62.3170730   1.6158753  85.3652447
  62.5110494   0.3249619  86.1319217  66.9712585  -3.7425149  94.7367162
  66.8709312  -2.7930792  94.6679253  66.7534128  -4.0706910  93.8643232
  58.1893073   1.5882116  83.5988028  57.4956544   1.1736068  83.0857982
  58.9366064   1.6302652  83.0021447  66.8343856  -0.3128010  93.5532223
  66.3510937   0.4872350  93.7596112  66.9204795  -0.3020066  92.5999667
  60.1029815   1.5200369  81.4754043  60.0800503   1.6188057  80.5235926
  60.4130452   2.3665520  81.7971209  62.7617193   3.5776524  85.5900657
  63.7160447   3.5460467  85.5230589  62.5629717   3.1167148  86.4050883
  63.3516575   2.1477640  88.1571455  64.1709464   2.6421719  88.1806292
  63.6253383   1.2309609  88.1289022  61.1167422   9.1196144  82.6070855
  60.9821890   8.3596545  82.0408853  60.6999484   9.8437044  82.1399644
  72.2526385   4.3033067  71.6147430  72.9562235   4.5083070  72.2305086
  71.5289034   4.8709829  71.8796514  73.0824195   0.0542929  77.7349700
  73.0259396   0.5111480  76.8957333  73.6352538  -0.7066387  77.5572543
  64.2736548  10.0165461  82.8189298  64.1568932  10.9610893  82.7167988
  63.4528994   9.7139022  83.2075097  74.1613082   4.7415597  73.6645890
  74.9958686   4.3096795  73.4823365  73.9997425   4.5697610  74.5922785
  73.8158974   1.2447710  75.0302230  73.7607778   1.0791981  74.0890674
  73.1905030   1.9523743  75.1864419  58.6051489  -3.5184226  88.8563652
  59.2510353  -4.0285272  89.3450877  58.3968641  -2.7815544  89.4307077
  71.1304882   3.5496622  94.3555792  71.9996041   3.7237274  93.9942427
  70.6511633   4.3691039  94.2331522  65.2991062  10.6693723  86.0345226
  66.2018309  10.7017333  86.3511721  65.0728432   9.7394174  86.0491562
  67.0544664   9.4224709  82.6955305  66.1040295   9.4226571  82.5819677
  67.3577150   8.6757444  82.1791339  82.7897357  15.2585248  83.7601067
  83.4275767  15.1391995  83.0564407  82.6718200  16.2066092  83.8189019
  79.5987064  15.2112676  83.6962592  79.2605575  15.0953740  82.8083127
  80.4676832  14.8103841  83.6763598  75.4573879  17.0648152  79.6859483
  74.8938744  16.9738089  78.9175770  75.3426274  16.2448057  80.1661975
  80.0806847  16.3647527  89.6548797  80.0695487  15.9700326  88.7829301
  80.2427486  15.6313600  90.2482569  73.0038311  18.5599344  82.5243703
  73.7959603  18.2190168  82.1090002  73.2434961  18.6694319  83.4445856
  81.0373438  20.7319120  74.9973948  80.3861418  21.3173200  74.6107961
  81.8317801  21.2625315  75.0568985  74.9629065  17.8208257  75.3961082
  75.7359941  17.2737244  75.2573958  75.3154464  18.6852506  75.6075543
  76.8014108  19.1484639  88.6027981  76.5103974  20.0530270  88.4874648
  77.4371092  19.1901167  89.3172051  77.7270315  16.5261488  85.1929341
  78.3233887  16.3017510  84.4786304  77.7845286  15.7846233  85.7954789
  77.2995343  13.9800923  73.0279532  77.5520864  13.4582444  72.2662995
  76.3619902  13.8167069  73.1306215  82.3438626  12.9836702  80.8354275
  83.1301715  12.5656125  80.4844692  82.6077330  13.8882794  81.0035923
  82.5148703  18.4209552  75.5342932  81.8794536  18.4944178  76.2463837
  82.1846110  19.0103151  74.8562011  87.7447053  12.9211935  81.7387254
  88.4772225  12.3511152  81.9725083  86.9886409  12.5333535  82.1793759
  77.0191632  15.8829029  75.2303907  76.9027890  15.2073932  75.8984991
  77.1293892  15.3961403  74.4136060  79.3623173  15.3439176  78.9350596
  78.9981380  14.8169797  79.6463518  80.2190289  14.9537645  78.7617081
  85.2672473   6.6333509  86.1981862  84.9355798   7.5028920  85.9743077
  84.6718087   6.3169793  86.8775893  79.0028660  10.3729076  73.9311945
  79.1703062  11.2409312  74.2982416  78.8125829  10.5356358  73.0073234
  81.7603993  18.8346055  85.5977775  81.4604716  19.7371094  85.4893582
  81.4155052  18.5678238  86.4498928  75.2116474  15.2859852  81.6314479
  74.2866971  15.1536066  81.8392171  75.4600887  16.0654071  82.1284422
  85.1601137  11.3528595  83.2775212  84.2518014  11.2844003  82.9833973
  85.1088732  11.8300540  84.1057038  78.9817881  12.8286733  74.9158611
  78.8617506  13.2743784  75.7544092  78.2870469  13.1772051  74.3572150
  72.5725285  14.9293125  82.4658268  72.7017666  15.1827604  83.3797680
  71.8922737  15.5220833  82.1462924  76.7424773  25.5990375  78.5648743
  76.6648802  26.5498200  78.6437223  76.1386416  25.2536248  79.2223669
  79.2342002  12.7718241  91.2210110  78.4575336  13.3312161  91.2112974
  79.8732565  13.2575024  91.7424980  87.0262783   9.5545033  85.0553086
  86.3837163   9.8477567  84.4092881  86.5217712   9.4397954  85.8606283
  84.6802947  13.3008207  75.7438945  85.5920803  13.5335593  75.5686643
  84.1712594  13.8845251  75.1814024  77.4888375  15.5803694  90.7828077
  78.2303059  16.1188738  90.5062900  76.7825360  16.2069983  90.9399628
  82.9643714  17.7232834  89.3800238  83.3727070  17.2815245  88.6354870
  82.2420976  17.1485462  89.6334431  79.3174784  12.6605441  86.7533795
  80.1635980  13.0844855  86.8968444  79.2573422  12.0039065  87.4472358
  83.2872529  18.2834025  83.1352527  82.6581391  18.4479739  82.4328595
  82.8998191  18.6975635  83.9063491  87.1661761  19.2188463  80.4896891
  86.4812799  19.5987364  79.9393924  87.2505610  19.8283790  81.2228838
  82.4674230  10.3209810  88.4114969  82.2235162  11.0751870  87.8749244
  82.7434160  10.6995157  89.2462216  84.4212692  16.8648422  87.0892234
  84.6329588  17.5080182  86.4126615  84.3742441  16.0310738  86.6214164
  82.0238921   9.4766243  83.9928806  81.1623400   9.7747496  84.2845544
  82.0501356   9.6936641  83.0609839  78.8400491  18.0208433  80.4002612
  79.3038836  18.2996136  79.6107235  78.5757289  17.1191878  80.2175703
  75.7324572  17.5679915  83.3382375  76.3025929  17.9967183  82.6999860
  76.3232684  17.2862499  84.0366561  77.7769377  14.1431586  77.2092177
  78.4793420  14.5952629  77.6766104  77.4450005  13.5015404  77.8372070
  76.2249738  12.7343342  91.5843387  75.5948399  13.4159623  91.8178783
  76.1185826  12.6226424  90.6396525  71.5194711  12.4015138  82.5109311
  70.7293765  12.6572667  82.0349421  72.0105958  13.2163476  82.6161351
  85.5358520  19.7420377  85.2614592  86.3575964  19.3400565  84.9797273
  85.5320923  19.6388611  86.2130707  73.4709456  12.7659717  79.4692787
  72.6740620  12.8778412  79.9876283  73.2435048  13.1046370  78.6033678
  79.3015124  19.2904421  87.4175302  79.3659556  19.7524828  88.2533474
  78.5926048  18.6601786  87.5457612  69.8032414  12.6545629  84.9424302
  70.0540452  13.5392639  85.2081877  70.3391962  12.4750230  84.1699393
  93.6264513  16.0859126  81.6099563  92.8728222  15.5166524  81.4543567
  93.7612055  16.0521790  82.5570198  79.0163142  20.9572528  77.2854282
  78.8808816  21.8024064  77.7139130  79.5572954  21.1591806  76.5220216
  75.5030481   7.0364108  93.9468638  75.1097427   6.4830307  94.6216282
  76.3196621   7.3474686  94.3375155  72.4692539  18.4747966  77.8582207
  72.9817059  19.2691216  78.0087772  73.1215252  17.7774257  77.7915809
  74.2787424  21.5913722  79.9404961  74.4554052  22.5131687  79.7525945
  75.0744257  21.2772142  80.3699340  78.4198442   8.4521987  91.5388894
  79.1608156   9.0529140  91.4593357  78.6516365   7.7099625  90.9806937
  73.5639780  13.6378354  89.8167124  73.4493295  12.7363612  90.1174223
  72.7084298  13.8842051  89.4651940  80.6431618  21.5796095  91.4154624
  80.1995472  20.7932473  91.0975529  81.3048831  21.7675245  90.7498515
  75.4018739  23.1091896  85.9415303  75.9526164  22.9808960  85.1692297
  74.5630215  23.4086785  85.5910196  82.7412856  21.8598895  89.4436026
  82.7231331  22.6807776  88.9516295  83.6632776  21.7352970  89.6686167
  79.1985910  19.3743024  90.2859534  79.7314247  18.6131312  90.0558842
  78.6699991  19.0816676  91.0283689  82.3655605   4.4803090  85.8153176
  82.0219874   5.3704732  85.7392286  82.7334568   4.2904748  84.9522761
  70.4341456  16.8036620  78.6341778  71.2716678  17.2133629  78.4175486
  70.6119723  15.8636063  78.6041972  82.3305888  14.4711701  74.3225611
  81.8152511  15.2416306  74.5613998  82.0583196  13.7976837  74.9458672
  79.9152999   9.3161402  79.3810849  79.0594595   8.9268252  79.2016488
  80.3279951   9.3953363  78.5210635  81.4452145   6.8507745  83.7802409
  80.9416941   6.8137880  82.9670214  81.7382752   7.7600488  83.8399066
  77.6895031   6.9346475  82.7868591  78.5548028   6.7389284  82.4274480
  77.7572540   6.7056827  83.7137948  87.3040162  17.2244056  76.2578784
  86.5269605  16.8855215  75.8133947  87.9831643  17.2296679  75.5833749
  82.1192191  12.3438793  76.1485392  81.8142327  12.6584942  76.9995535
  83.0722633  12.4220213  76.1912725  80.5638623  18.5029017  77.7978346
  80.0359984  17.7681776  77.4851584  80.0626126  19.2803693  77.5518314
  85.5431469  16.6978037  82.9145392  84.8855143  17.3877298  83.0025521
  86.3471868  17.0874469  83.2579379  75.2957350   9.1648683  80.1584958
  75.8701102   8.9423864  79.4258151  75.8828333   9.2337377  80.9113559
  84.3536928  15.0522410  80.9649334  84.8668809  15.6852402  81.4671044
  85.0038152  14.4523605  80.5992694  75.6226938  11.1953144  74.1780843
  74.7864250  11.5327830  74.4990118  75.4831707  11.0602124  73.2407980
  77.5980018   6.0389932  78.8860027  76.9444430   5.7238949  78.2616642
  77.5560492   5.4165672  79.6119850  78.7091223  16.3209227  70.8013319
  77.8018285  16.0898480  71.0004468  79.2062255  15.5246846  70.9887301
  81.6159302  25.0306734  73.7210005  80.9421001  25.3338431  74.3294963
  82.0025124  25.8335814  73.3715462  80.8317759  12.5271865  83.2107675
  79.9140320  12.7486812  83.0529363  81.2477902  12.6018176  82.3519382
  81.6152806  13.9263281  78.3410355  82.3624625  14.4384678  78.0317477
  81.8844396  13.6047334  79.2014749  79.8879456  16.4221822  75.3237309
  78.9790676  16.1380854  75.4209779  79.9174540  16.8420900  74.4640616
  85.1198724  20.0328411  79.0928477  84.6661051  19.1919321  79.1493667
  84.4892691  20.6689810  79.4303257  84.0631643  10.9620397  80.3229144
  83.3254400  10.4497783  80.6539387  84.3158417  10.5220779  79.5112421
  83.5631663  21.8704908  80.0278295  83.8554637  22.4309965  79.3090661
  84.0730284  22.1633469  80.7831454  84.1643271   3.7396649  80.9170914
  84.4702148   2.8794013  80.6296829  84.8895876   4.3314269  80.7169907
  70.4567627  14.1427336  79.3052511  70.2592027  13.5496696  78.5803578
  69.9014291  13.8379546  80.0228450  78.4364350  14.0350442  81.4247105
  78.4912960  13.0824279  81.3489581  77.6255553  14.1909881  81.9088403
  79.5855544  17.9630565  72.6625388  79.1474974  17.2466424  72.2031025
  80.3265985  18.1906680  72.1010479  76.3756710  12.6527502  79.1837483
  75.5624576  12.9521673  79.5902676  76.8715705  12.2583191  79.9011966
  78.5265288  22.6485259  81.1171748  78.4841467  22.8746105  80.1880280
  79.4427987  22.4148634  81.2657549  81.9730922  13.1169326  88.0152377
  82.3280310  13.3440800  88.8746843  82.6203053  13.4487703  87.3929633
  87.7028659  16.2387762  78.7201706  87.5646558  16.4289358  77.7922896
  87.3464878  17.0007145  79.1769758  75.8670785  10.2245858  84.7998718
  76.5070164  10.0834617  84.1021682  75.0348316   9.9380371  84.4237320
  87.7298039  18.3064289  83.7312978  88.1634545  18.2139578  84.5796032
  88.4429619  18.2821790  83.0932994  76.6431089  19.5248288  80.9133711
  77.4371688  19.0298608  80.7116286  75.9322781  18.9966151  80.5501416
  81.4625934  21.9066383  85.2646078  81.5162956  22.4757320  86.0323794
  80.5940715  22.0768269  84.9000116  72.9513853  13.6691370  76.9893464
  72.0211441  13.6075825  77.2063426  73.0471325  13.1467322  76.1930105
  72.8699402  10.1946183  79.5771705  73.1306219  11.1091516  79.4680866
  73.6916574   9.7270625  79.7268318  74.3424327  11.6083940  86.7470530
  75.0147380  11.4001302  86.0983179  73.5154113  11.4106026  86.3075762
  88.5913588  18.3487990  86.2645863  88.7849478  19.2533801  86.5105138
  88.4914206  17.8895409  87.0984448  80.2449899   8.2345881  88.7636191
  79.5977814   8.9335830  88.6700667  81.0150914   8.6682025  89.1312439
  83.6528697  18.4994733  91.8386744  83.5014203  18.2705284  90.9216828
  83.6433376  19.4565334  91.8518089  80.4214033  16.0726646  86.8233010
  81.3506093  16.2237805  86.6501978  80.0005063  16.1610666  85.9681657
  79.2202365  20.0977310  84.5931548  79.0813451  19.7296094  85.4657486
  78.4316961  20.6124949  84.4215506  79.8150517  25.1986406  75.9357084
  79.9902273  24.7274450  76.7502707  79.1283305  25.8252173  76.1638345
  80.7707580  19.4758913  81.9820386  80.4357413  19.4359683  82.8778036
  80.2711526  18.8103629  81.5090796  74.7451824  14.8826543  87.5072967
  74.6071622  14.1506781  88.1084506  75.6556748  14.7935443  87.2257155
  83.7066772  16.8214947  72.2557445  83.0895942  16.0961775  72.1590498
  83.2383260  17.5824307  71.9124520  77.3734125  14.5946502  86.9956647
  78.0833743  13.9539694  86.9543265  77.3303433  14.8459397  87.9182827
  85.3620904  21.5313855  89.9163226  85.3033450  20.8473075  89.2493809
  85.7640422  22.2732845  89.4643852  76.0863059  11.5811720  88.8152286
  75.5500416  11.1302458  89.4673882  75.4979767  11.7157629  88.0722750
  75.4965318  11.0400371  71.3778750  74.6194784  10.9189172  71.0140996
  75.9723071  10.2486450  71.1257638  85.3638311  19.4953439  88.1477205
  84.4765090  19.1579361  88.2703604  85.9336862  18.7636470  88.3845971
  67.0167458  15.8277531  81.4720257  67.7038498  15.5139261  80.8841272
  66.8615587  16.7318896  81.1987508  71.8202180  10.7167728  85.9005281
  71.7360369  10.1093397  85.1655690  70.9984886  11.2076746  85.9014777
  78.8939464  24.1554892  85.1138449  78.8209636  24.9609863  85.6257753
  78.4516857  24.3546857  84.2886470  78.6829244  23.3926662  78.6241270
  77.8996766  23.9348342  78.7179495  79.3821989  23.9100641  79.0235511
  81.9925894   9.2021291  81.2675476  82.4894593   8.4491253  80.9476546
  81.2212875   9.2385608  80.7018685  89.8455651  14.9061657  82.9093767
  89.8345528  15.7886372  82.5387700  88.9773031  14.5533207  82.7148304
  81.3538148  24.0541726  87.2696607  82.0666120  24.6889190  87.1972509
  80.8628176  24.1505592  86.4536609  83.0755675  17.9592978  78.8413899
  82.1411953  18.0794441  78.6718603  83.2532343  17.0565445  78.5773909
  78.5760863  11.3438674  80.9947160  78.2058650  10.7909714  81.6828066
  79.0719955  10.7396808  80.4422160  86.4628226  13.8010298  79.3763933
  86.9288678  14.6338289  79.3024236  86.9135726  13.3355279  80.0809192
  76.4050061  21.8036169  88.0902178  77.1059521  22.4372652  88.2431572
  75.9345176  22.1450901  87.3297817  84.5304457  20.1454119  76.3750085
  84.8064301  20.0310713  77.2843959  83.6608956  19.7471604  76.3362258
  84.4344889   6.1690885  83.4154834  83.5207969   6.3995111  83.5837041
  84.8637990   6.2529329  84.2668867  84.2051347  14.3580777  85.9154728
  83.5522797  14.6056684  85.2607181  84.5831727  13.5444915  85.5817206
  81.1658521  24.3940470  80.0182899  81.3480916  23.5762126  80.4810651
  81.9891507  24.6108162  79.5807789  81.5000687  23.3208655  77.2797947
  82.0288453  22.8101109  76.6668109  81.7628906  23.0051185  78.1443480
  80.2538920  15.1000588  92.4020766  79.5779557  14.9994717  93.0723141
  81.0766554  14.9439801  92.8656763  74.8556435  24.3723772  80.0395723
  74.1866810  24.8569899  79.5559763  74.7169304  24.6192992  80.9539102
  66.5935434  13.9078124  83.7437724  66.6319534  13.3741715  84.5374842
  66.0875727  13.3813330  83.1248701  78.9961703  26.4067515  86.6378382
  79.5480011  26.5699137  87.4027467  79.3367897  26.9971953  85.9658406
  73.9726196   8.7542665  87.2400266  74.0367523   9.6157496  86.8277664
  73.9093317   8.1416667  86.5072625  73.4478469  10.8265797  90.8873301
  74.0750508  10.4442875  91.5010825  72.5906388  10.6079999  91.2528993
  83.8472577  21.2328773  92.4927036  84.3912481  21.8458731  91.9981991
  83.2659422  21.7908351  93.0094049  70.2244012  12.6342227  76.8191655
  70.5197453  11.7252905  76.7658709  69.3232047  12.6129966  76.4972658
  82.1330090  24.3549491  83.6242064  82.0081230  23.5539230  83.1153009
  82.7909182  24.8495684  83.1356034  73.7538259  10.7098223  82.8019204
  73.0324844  11.3234191  82.6626677  74.5431514  11.2455988  82.7235850
  84.1964999  22.1558511  85.2521614  83.2495334  22.0363862  85.1799941
  84.5447772  21.2681009  85.3347875  76.5564572   8.0452650  89.0759856
  77.0798974   8.2914946  89.8386165  76.3376905   8.8772684  88.6562993
  71.9531853  10.3156324  76.9430980  71.6244559   9.4353703  76.7606086
  72.3071224  10.2603993  77.8307370  81.2011432  21.9511227  81.4525966
  81.0536395  21.0227934  81.6333536  82.0264926  21.9731318  80.9683041
  75.0673676  10.6029294  77.3106458  75.4069749  11.1315215  76.5885067
  75.5145797  10.9409700  78.0865025  84.8045554  22.7739786  82.5390839
  85.7292101  22.5682647  82.4015290  84.6360857  22.5256187  83.4480180
  77.7617117   8.9866345  86.7609526  77.4213938   8.1874158  87.1630206
  77.0556123   9.2868056  86.1886359  78.4133589   6.0715657  85.2136849
  79.2359658   5.5976135  85.0915740  78.6571653   6.8506141  85.7135536
  77.0541824   9.1003916  75.5099751  77.7750186   9.4785168  75.0063468
  76.4307128   9.8192792  75.6134729  81.1972946   9.8049065  76.4458083
  81.4136561  10.6873702  76.1446911  80.7167014   9.4135278  75.7163725
  75.9372168  12.7634778  83.0228828  75.7916748  13.0775081  83.9153109
  75.4597371  13.3819678  82.4699726  77.7968551   9.7537326  83.0709717
  77.7830119   8.8578419  82.7342015  78.5140979   9.7607989  83.7048003
  79.6494681  10.1874666  85.1162845  79.3912459  11.1091737  85.1147175
  79.1179722   9.7905100  85.8063309  84.5940870  23.2925453  77.8952930
  84.7677748  22.7271876  77.1426783  85.0869761  24.0926348  77.7132420
  70.4117830  15.3040122  85.9616489  69.8671298  16.0799930  86.0936763
  71.2897180  15.6510927  85.8035610  77.2005447   8.6351706  78.3397288
  77.3221358   7.7068352  78.5388175  76.9107489   8.6490392  77.4275603
  80.0696637   6.3206616  81.4764007  80.0918334   6.3845950  80.5215987
  80.4864696   5.4811125  81.6704514  90.4480261  16.0561876  79.5143230
  90.8911407  15.3069201  79.1162353  89.5706772  16.0472012  79.1316962
  85.5816043  22.6092217  74.9949829  86.2766947  23.2298910  75.2137143
  85.9239193  21.7587569  75.2702206  71.1983852  14.4310018  88.8546646
  70.4565588  14.5792654  89.4411276  70.8776596  14.6918284  87.9913395
  87.4807466  20.0591923  76.5237159  88.0058790  20.3979196  75.7986479
  87.3929818  19.1238938  76.3400294  79.1427514  23.9725997  88.6527036
  79.4514641  23.7275143  89.5249735  79.9402996  24.1772635  88.1645906
  79.1648126  26.1263906  80.8832412  78.7253117  25.6340285  81.5765269
  79.9156243  25.5836874  80.6424488  71.6440465  22.3175447  80.8857041
  72.4698485  22.0179219  80.5055684  71.2934517  21.5483070  81.3346829
  76.6121999  21.6701915  82.9554714  75.9902008  21.0072620  82.6556942
  77.2826866  21.6963047  82.2728362  69.8449071  20.2361774  81.8445974
  69.0080979  19.8083948  81.6629975  69.8172716  20.4294217  82.7816765
  76.6846526  10.1483703  92.5487220  76.7334682  11.0245826  92.1664990
  77.2269040   9.6061096  91.9758863  87.1701372  20.6924827  91.8288357
  86.3796916  20.6748965  91.2892857  86.9334726  21.2313120  92.5837394
  87.2899247  17.5417293  89.1421086  87.3397252  17.3767300  90.0836609
  87.1813170  16.6744552  88.7518967  76.1735506  20.2205839  76.4313175
  76.3223626  20.9041303  75.7779847  76.9801949  20.2010929  76.9462630
  84.5803009  13.5248221  90.4580392  85.4812872  13.3854686  90.1664390
  84.6550984  13.6902676  91.3978570  78.9145815  10.9015076  89.3033579
  78.0449124  11.1948642  89.0316167  79.1505295  11.4855521  90.0240842
  88.7917444  19.9614235  89.3863107  88.5002252  20.3244215  90.2226568
  88.1789575  19.2481243  89.2076439  89.9913126  17.5267114  81.9065678
  90.8260017  17.9656918  82.0703238  90.1272255  17.0505768  81.0873923
  87.0404632  15.0846849  87.8543165  87.5158754  15.2774495  87.0462017
  86.1170197  15.1406035  87.6086549  73.9288139  16.2471016  77.4374244
  73.6834180  15.3433346  77.6354454  74.0984053  16.2488167  76.4953722
  81.6184848   7.1194693  86.8198999  82.1366792   7.8555720  86.4945488
  81.2639981   7.4258686  87.6545758  73.1983786  11.9799374  74.9360405
  72.5053031  12.0543729  74.2800441  72.9535538  11.2159718  75.4581922
  81.8697443   3.5394975  82.3399896  82.1499196   2.8718164  82.9660322
  82.6548049   3.7324071  81.8274560  79.6730911  22.7153969  73.9024922
  79.1004878  23.3344156  73.4495394  80.2463705  23.2653331  74.4364844
  85.7406301  11.9612609  86.0871471  86.6923724  12.0610707  86.1083695
  85.5709751  11.1690878  86.5969555  83.7620680   9.0468192  86.2730872
  83.1670612   9.3273205  85.5777360  83.4770377   9.5362093  87.0447613
  82.8928171  22.9991119  75.0333504  83.8258844  22.9336681  75.2366380
  82.8051384  23.8347386  74.5748037  85.5216188  22.3156990  71.9937452
  85.4429819  21.9816853  72.8873210  86.3425854  22.8078758  71.9928924
  88.2194379  15.1818729  85.2013771  88.1870699  14.2434730  85.3873454
  88.8295002  15.2602766  84.4679595  80.0577710  14.0514782  71.2440975
  81.0036814  13.9220990  71.3129393  79.6791955  13.3129444  71.7210403
  88.3688867  11.9729772  85.2472054  87.8527916  11.1888229  85.0601983
  89.2528816  11.6448489  85.4118573  86.0299594   5.7170788  81.2067866
  85.8324415   5.4085876  82.0911198  86.6399300   6.4432427  81.3365796
  94.0370929  16.2434736  84.3419807  94.7674317  15.9820024  84.9027511
  93.4277874  15.5063458  84.3821875  92.1186226  14.3842598  84.9394259
  91.3919389  14.2498563  84.3310750  91.7033513  14.6919427  85.7450977
  79.9416402  18.1032528  92.7041632  80.8619412  18.2811127  92.8981678
  79.9065985  17.1588573  92.5521331  78.2420627  11.9764758  71.1795860
  77.3352082  11.6797871  71.2558573  78.5196608  11.6794576  70.3130146
  69.1598567  13.2971122  81.6294906  68.8401351  12.4436430  81.3369280
  68.6131995  13.5119700  82.3852874  72.9378475  16.0133563  85.3464413
  73.1564484  16.9450671  85.3652447  73.3504248  15.6541537  86.1319217
  79.8582692   6.5201648  77.3340101  79.0483421   6.1748733  77.7095347
  80.5467109   6.2109192  77.9227713  81.7873241   5.5979695  78.9564398
  82.3404279   6.0175148  79.6154421  82.0243327   4.6715443  78.9987354
  77.8106340  11.5866768  94.7367162  77.7103067  12.5361125  94.6679253
  77.5927882  11.2585007  93.8643232  77.0119411   8.8351694  71.3207839
  77.8738575   9.1606592  71.5803656  77.1969756   8.0483189  70.8080905
  85.1652048   7.7080220  78.4643062  84.5850717   8.3665024  78.0821114
  84.8987981   6.8857565  78.0530480  83.6155614   7.1085278  80.6664382
  84.1155393   7.2201812  79.8578701  84.2591222   6.8046331  81.3065191
  77.6737610  15.0163907  93.5532223  77.1904692  15.8164267  93.7596112
  77.7598549  15.0271852  92.5999667  70.9423570  16.8492287  81.4754043
  70.9194258  16.9479974  80.5235926  71.2524206  17.6957438  81.7971209
  73.6010948  18.9068442  85.5900657  74.5554201  18.8752384  85.5230589
  73.4023471  18.4459066  86.4050883  74.1910330  17.4769558  88.1571455
  75.0103219  17.9713637  88.1806292  74.4647137  16.5601526  88.1289022
  83.9476926   9.8680310  77.5199410  83.0602781  10.1529961  77.3019605
  84.3630915   9.7074074  76.6726687  87.2991462   9.8926831  81.2353750
  88.0751852  10.3823284  81.5078366  86.5739596  10.3184886  81.6925619
  89.7364021  10.6054451  82.2927690  90.3308511  10.3650187  81.5820998
  89.8090604   9.8861581  82.9201226  83.0920139  19.6324985  71.6147430
  83.7955989  19.8374988  72.2305086  82.3682788  20.2001747  71.8796514
  83.9217950  15.3834846  77.7349700  83.8653151  15.8403398  76.8957333
  84.4746292  14.6225531  77.5572543  87.7322756  11.1724578  78.5599820
  87.4759690  10.7721214  79.3908028  87.1075624  11.8868372  78.4349959
  92.0435093  13.9120651  81.0671111  91.4834651  13.9813841  81.8402673
  91.4378597  13.7361636  80.3470608  75.1130302  25.3457379  82.8189298
  74.9962686  26.2902811  82.7167988  74.2922748  25.0430940  83.2075097
  85.0006837  20.0707514  73.6645890  85.8352441  19.6388713  73.4823365
  84.8391180  19.8989528  74.5922785  84.6552729  16.5739628  75.0302230
  84.6001533  16.4083899  74.0890674  84.0298784  17.2815660  75.1864419
  69.4445244  11.8107692  88.8563652  70.0904107  11.3006646  89.3450877
  69.2362395  12.5476374  89.4307077  81.9698636  18.8788539  94.3555792
  82.8389796  19.0529192  93.9942427  81.4905388  19.6982956  94.2331522
  77.9648854   6.0747737  74.6087548  77.9527524   7.0189576  74.7655819
  78.8572276   5.8917882  74.3147009  77.8938418  24.7516627  82.6955305
  76.9434049  24.7518489  82.5819677  78.1970904  24.0049362  82.1791339
  81.7800974   2.6690513  78.8633485  81.0133370   2.1149000  79.0090167
  82.1911679   2.7412382  79.7247636  73.7842735   8.9575309  92.9538666
  74.6474196   8.6012114  93.1641991  73.2108146   8.6189204  93.6414070
  93.6291112  30.5877165  83.7601067  94.2669522  30.4683913  83.0564407
  93.5111955  31.5358009  83.8189019  90.4380818  30.5404593  83.6962592
  90.0999330  30.4245658  82.8083127  91.3070586  30.1395759  83.6763598
  86.2967634  32.3940070  79.6859483  85.7332499  32.3030007  78.9175770
  86.1820029  31.5739974  80.1661975  90.9200601  31.6939445  89.6548797
  90.9089242  31.2992243  88.7829301  91.0821241  30.9605518  90.2482569
  83.8432066  33.8891261  82.5243703  84.6353358  33.5482086  82.1090002
  84.0828716  33.9986237  83.4445856  91.8767193  36.0611038  74.9973948
  91.2255172  36.6465118  74.6107961  92.6711555  36.5917232  75.0568985
  85.8022820  33.1500175  75.3961082  86.5753696  32.6029162  75.2573958
  86.1548219  34.0144424  75.6075543  87.6407862  34.4776557  88.6027981
  87.3497728  35.3822188  88.4874648  88.2764847  34.5193085  89.3172051
  88.5664069  31.8553405  85.1929341  89.1627641  31.6309428  84.4786304
  88.6239041  31.1138151  85.7954789  88.1389097  29.3092841  73.0279532
  88.3914618  28.7874362  72.2662995  87.2013657  29.1458986  73.1306215
  93.1832380  28.3128619  80.8354275  93.9695470  27.8948042  80.4844692
  93.4471085  29.2174711  81.0035923  93.3542458  33.7501469  75.5342932
  92.7188291  33.8236096  76.2463837  93.0239864  34.3395068  74.8562011
  98.5840807  28.2503852  81.7387254  99.3165979  27.6803069  81.9725083
  97.8280163  27.8625453  82.1793759  87.8585386  31.2120947  75.2303907
  87.7421644  30.5365850  75.8984991  87.9687646  30.7253321  74.4136060
  90.2016927  30.6731094  78.9350596  89.8375134  30.1461715  79.6463518
  91.0584043  30.2829563  78.7617081  96.1066228  21.9625426  86.1981862
  95.7749553  22.8320837  85.9743077  95.5111841  21.6461710  86.8775893
  89.8422414  25.7020994  73.9311945  90.0096816  26.5701230  74.2982416
  89.6519583  25.8648275  73.0073234  92.5997747  34.1637972  85.5977775
  92.2998470  35.0663011  85.4893582  92.2548807  33.8970156  86.4498928
  86.0510229  30.6151769  81.6314479  85.1260725  30.4827983  81.8392171
  86.2994642  31.3945989  82.1284422  95.9994891  26.6820513  83.2775212
  95.0911768  26.6135921  82.9833973  95.9482487  27.1592458  84.1057038
  89.8211635  28.1578651  74.9158611  89.7011260  28.6035702  75.7544092
  89.1264223  28.5063969  74.3572150  83.4119040  30.2585043  82.4658268
  83.5411421  30.5119522  83.3797680  82.7316491  30.8512751  82.1462924
  87.5818527  40.9282293  78.5648743  87.5042557  41.8790118  78.6437223
  86.9780171  40.5828165  79.2223669  90.0735757  28.1010158  91.2210110
  89.2969091  28.6604078  91.2112974  90.7126320  28.5866941  91.7424980
  97.8656537  24.8836951  85.0553086  97.2230918  25.1769484  84.4092881
  97.3611466  24.7689871  85.8606283  95.5196701  28.6300124  75.7438945
  96.4314557  28.8627511  75.5686643  95.0106348  29.2137168  75.1814024
  88.3282129  30.9095612  90.7828077  89.0696814  31.4480656  90.5062900
  87.6219115  31.5361900  90.9399628  93.8037469  33.0524752  89.3800238
  94.2120825  32.6107163  88.6354870  93.0814730  32.4777380  89.6334431
  90.1568539  27.9897359  86.7533795  91.0029734  28.4136772  86.8968444
  90.0967177  27.3330983  87.4472358  94.1266283  33.6125943  83.1352527
  93.4975146  33.7771657  82.4328595  93.7391946  34.0267552  83.9063491
  98.0055515  34.5480381  80.4896891  97.3206554  34.9279282  79.9393924
  98.0899365  35.1575707  81.2228838  93.3067984  25.6501727  88.4114969
  93.0628916  26.4043788  87.8749244  93.5827915  26.0287075  89.2462216
  95.2606447  32.1940340  87.0892234  95.4723342  32.8372099  86.4126615
  95.2136195  31.3602656  86.6214164  92.8632676  24.8058160  83.9928806
  92.0017155  25.1039414  84.2845544  92.8895111  25.0228559  83.0609839
  89.6794245  33.3500351  80.4002612  90.1432591  33.6288054  79.6107235
  89.4151043  32.4483795  80.2175703  86.5718326  32.8971832  83.3382375
  87.1419683  33.3259101  82.6999860  87.1626438  32.6154417  84.0366561
  88.6163131  29.4723503  77.2092177  89.3187175  29.9244547  77.6766104
  88.2843760  28.8307322  77.8372070  87.0643493  28.0635260  91.5843387
  86.4342154  28.7451541  91.8178783  86.9579581  27.9518341  90.6396525
  82.3588465  27.7307056  82.5109311  81.5687519  27.9864584  82.0349421
  82.8499713  28.5455394  82.6161351  96.3752275  35.0712295  85.2614592
  97.1969719  34.6692482  84.9797273  96.3714678  34.9680529  86.2130707
  84.3103211  28.0951635  79.4692787  83.5134374  28.2070329  79.9876283
  84.0828803  28.4338287  78.6033678  90.1408878  34.6196338  87.4175302
  90.2053311  35.0816746  88.2533474  89.4319802  33.9893703  87.5457612
  80.6426168  27.9837546  84.9424302  80.8934207  28.8684556  85.2081877
  81.1785717  27.8042148  84.1699393 104.4658268  31.4151043  81.6099563
 103.7121976  30.8458442  81.4543567 104.6005809  31.3813708  82.5570198
  89.8556896  36.2864446  77.2854282  89.7202571  37.1315982  77.7139130
  90.3966709  36.4883723  76.5220216  86.3424236  22.3656026  93.9468638
  85.9491181  21.8122224  94.6216282  87.1590376  22.6766604  94.3375155
  83.3086293  33.8039884  77.8582207  83.8210814  34.5983134  78.0087772
  83.9609006  33.1066174  77.7915809  85.1181178  36.9205640  79.9404961
  85.2947806  37.8423605  79.7525945  85.9138012  36.6064059  80.3699340
  89.2592197  23.7813905  91.5388894  90.0001910  24.3821058  91.4593357
  89.4910119  23.0391543  90.9806937  84.4033535  28.9670272  89.8167124
  84.2887050  28.0655529  90.1174223  83.5478052  29.2133969  89.4651940
  91.4825372  36.9088012  91.4154624  91.0389227  36.1224391  91.0975529
  92.1442586  37.0967163  90.7498515  86.2412494  38.4383814  85.9415303
  86.7919919  38.3100877  85.1692297  85.4023969  38.7378703  85.5910196
  93.5806610  37.1890812  89.4436026  93.5625086  38.0099693  88.9516295
  94.5026531  37.0644887  89.6686167  90.0379665  34.7034942  90.2859534
  90.5708001  33.9423230  90.0558842  89.5093746  34.4108594  91.0283689
  93.2049360  19.8095008  85.8153176  92.8613629  20.6996649  85.7392286
  93.5728322  19.6196665  84.9522761  81.2735210  32.1328538  78.6341778
  82.1110432  32.5425546  78.4175486  81.4513478  31.1927980  78.6041972
  93.1699642  29.8003619  74.3225611  92.6546266  30.5708223  74.5613998
  92.8976951  29.1268755  74.9458672  90.7546753  24.6453320  79.3810849
  89.8988350  24.2560170  79.2016488  91.1673705  24.7245280  78.5210635
  92.2845900  22.1799663  83.7802409  91.7810696  22.1429798  82.9670214
  92.5776507  23.0892406  83.8399066  88.5288786  22.2638393  82.7868591
  89.3941783  22.0681201  82.4274480  88.5966295  22.0348744  83.7137948
  98.1433916  32.5535973  76.2578784  97.3663359  32.2147133  75.8133947
  98.8225397  32.5588597  75.5833749  92.9585945  27.6730711  76.1485392
  92.6536081  27.9876860  76.9995535  93.9116388  27.7512131  76.1912725
  91.4032377  33.8320934  77.7978346  90.8753739  33.0973694  77.4851584
  90.9019880  34.6095611  77.5518314  96.3825223  32.0269955  82.9145392
  95.7248898  32.7169216  83.0025521  97.1865623  32.4166387  83.2579379
  86.1351105  24.4940600  80.1584958  86.7094857  24.2715782  79.4258151
  86.7222087  24.5629295  80.9113559  95.1930682  30.3814327  80.9649334
  95.7062564  31.0144319  81.4671044  95.8431906  29.7815523  80.5992694
  86.4620692  26.5245062  74.1780843  85.6258004  26.8619748  74.4990118
  86.3225462  26.3894041  73.2407980  88.4373773  21.3681849  78.8860027
  87.7838185  21.0530867  78.2616642  88.3954247  20.7457590  79.6119850
  89.5484977  31.6501144  70.8013319  88.6412039  31.4190398  71.0004468
  90.0456009  30.8538764  70.9887301  92.4553056  40.3598652  73.7210005
  91.7814755  40.6630348  74.3294963  92.8418878  41.1627732  73.3715462
  91.6711513  27.8563783  83.2107675  90.7534074  28.0778730  83.0529363
  92.0871657  27.9310093  82.3519382  92.4546561  29.2555199  78.3410355
  93.2018380  29.7676596  78.0317477  92.7238150  28.9339251  79.2014749
  90.7273211  31.7513739  75.3237309  89.8184430  31.4672772  75.4209779
  90.7568295  32.1712818  74.4640616  95.9592478  35.3620329  79.0928477
  95.5054805  34.5211239  79.1493667  95.3286445  35.9981727  79.4303257
  94.9025398  26.2912315  80.3229144  94.1648155  25.7789701  80.6539387
  95.1552171  25.8512696  79.5112421  94.4025418  37.1996826  80.0278295
  94.6948392  37.7601883  79.3090661  94.9124038  37.4925387  80.7831454
  95.0037025  19.0688567  80.9170914  95.3095902  18.2085930  80.6296829
  95.7289630  19.6606187  80.7169907  81.2961381  29.4719253  79.3052511
  81.0985781  28.8788614  78.5803578  80.7408045  29.1671464  80.0228450
  89.2758105  29.3642360  81.4247105  89.3306715  28.4116196  81.3489581
  88.4649307  29.5201799  81.9088403  90.4249299  33.2922483  72.6625388
  89.9868729  32.5758342  72.2031025  91.1659740  33.5198598  72.1010479
  87.2150465  27.9819420  79.1837483  86.4018330  28.2813590  79.5902676
  87.7109459  27.5875108  79.9011966  89.3659043  37.9777177  81.1171748
  89.3235222  38.2038023  80.1880280  90.2821742  37.7440551  81.2657549
  92.8124677  28.4461244  88.0152377  93.1674064  28.6732717  88.8746843
  93.4596808  28.7779621  87.3929633  98.5422414  31.5679680  78.7201706
  98.4040312  31.7581276  77.7922896  98.1858632  32.3299063  79.1769758
  86.7064540  25.5537775  84.7998718  87.3463919  25.4126534  84.1021682
  85.8742070  25.2672289  84.4237320  98.5691793  33.6356207  83.7312978
  99.0028300  33.5431496  84.5796032  99.2823374  33.6113708  83.0932994
  87.4824844  34.8540206  80.9133711  88.2765442  34.3590526  80.7116286
  86.7716536  34.3258069  80.5501416  92.3019688  37.2358301  85.2646078
  92.3556710  37.8049237  86.0323794  91.4334469  37.4060186  84.9000116
  83.7907607  28.9983287  76.9893464  82.8605195  28.9367743  77.2063426
  83.8865079  28.4759240  76.1930105  83.7093156  25.5238100  79.5771705
  83.9699973  26.4383433  79.4680866  84.5310328  25.0562543  79.7268318
  85.1818081  26.9375857  86.7470530  85.8541135  26.7293219  86.0983179
  84.3547868  26.7397943  86.3075762  99.4307343  33.6779908  86.2645863
  99.6243233  34.5825718  86.5105138  99.3307961  33.2187327  87.0984448
  91.0843653  23.5637798  88.7636191  90.4371568  24.2627748  88.6700667
  91.8544669  23.9973942  89.1312439  94.4922451  33.8286650  91.8386744
  94.3407958  33.5997202  90.9216828  94.4827131  34.7857252  91.8518089
  91.2607788  31.4018563  86.8233010  92.1899848  31.5529723  86.6501978
  90.8398818  31.4902584  85.9681657  90.0596120  35.4269228  84.5931548
  89.9207205  35.0588012  85.4657486  89.2710716  35.9416867  84.4215506
  90.6544272  40.5278324  75.9357084  90.8296027  40.0566367  76.7502707
  89.9677060  41.1544090  76.1638345  91.6101335  34.8050830  81.9820386
  91.2751167  34.7651600  82.8778036  91.1105280  34.1395546  81.5090796
  85.5845579  30.2118460  87.5072967  85.4465377  29.4798699  88.1084506
  86.4950502  30.1227360  87.2257155  94.5460526  32.1506865  72.2557445
  93.9289697  31.4253693  72.1590498  94.0777015  32.9116225  71.9124520
  88.2127879  29.9238420  86.9956647  88.9227498  29.2831612  86.9543265
  88.1697187  30.1751315  87.9182827  96.2014658  36.8605773  89.9163226
  96.1427204  36.1764993  89.2493809  96.6034176  37.6024763  89.4643852
  86.9256813  26.9103638  88.8152286  86.3894170  26.4594376  89.4673882
  86.3373522  27.0449546  88.0722750  85.2205357  43.6767687  82.7096945
  85.4601955  44.3086211  83.3875963  84.3774553  43.3255727  82.9962304
  86.3359072  26.3692289  71.3778750  85.4588539  26.2481090  71.0140996
  86.8116825  25.5778367  71.1257638  96.2032065  34.8245357  88.1477205
  95.3158844  34.4871279  88.2703604  96.7730616  34.0928388  88.3845971
  77.8561212  31.1569449  81.4720257  78.5432252  30.8431179  80.8841272
  77.7009341  32.0610813  81.1987508  82.6595935  26.0459645  85.9005281
  82.5754123  25.4385315  85.1655690  81.8378641  26.5368664  85.9014777
  89.7333219  39.4846809  85.1138449  89.6603390  40.2901781  85.6257753
  89.2910612  39.6838775  84.2886470  89.5222998  38.7218579  78.6241270
  88.7390520  39.2640259  78.7179495  90.2215743  39.2392559  79.0235511
  92.8319648  24.5313209  81.2675476  93.3288348  23.7783171  80.9476546
  92.0606630  24.5677525  80.7018685 100.6849406  30.2353574  82.9093767
 100.6739282  31.1178290  82.5387700  99.8166785  29.8825125  82.7148304
  92.1931902  39.3833643  87.2696607  92.9059874  40.0181108  87.1972509
  91.7021931  39.4797509  86.4536609  93.9149429  33.2884896  78.8413899
  92.9805708  33.4086358  78.6718603  94.0926098  32.3857363  78.5773909
  89.4154617  26.6730592  80.9947160  89.0452405  26.1201632  81.6828066
  89.9113710  26.0688725  80.4422160  97.3021980  29.1302215  79.3763933
  97.7682433  29.9630207  79.3024236  97.7529481  28.6647197  80.0809192
  87.2443816  37.1328087  88.0902178  87.9453275  37.7664570  88.2431572
  86.7738931  37.4742818  87.3297817  95.3698212  35.4746037  76.3750085
  95.6458055  35.3602631  77.2843959  94.5002710  35.0763521  76.3362258
  95.2738643  21.4982802  83.4154834  94.3601723  21.7287029  83.5837041
  95.7031745  21.5821246  84.2668867  95.0445102  29.6872694  85.9154728
  94.3916552  29.9348602  85.2607181  95.4225482  28.8736832  85.5817206
  92.0052276  39.7232387  80.0182899  92.1874670  38.9054043  80.4810651
  92.8285262  39.9400080  79.5807789  92.3394441  38.6500573  77.2797947
  92.8682207  38.1393027  76.6668109  92.6022661  38.3343103  78.1443480
  91.0932675  30.4292505  92.4020766  90.4173312  30.3286635  93.0723141
  91.9160309  30.2731719  92.8656763  82.8411534  36.6664442  85.0233281
  83.4264971  35.9208130  85.1561185  82.6436372  36.9768399  85.9069945
  85.6950189  39.7015689  80.0395723  85.0260564  40.1861817  79.5559763
  85.5563059  39.9484910  80.9539102  77.4329189  29.2370042  83.7437724
  77.4713288  28.7033633  84.5374842  76.9269481  28.7105248  83.1248701
  89.8355458  41.7359433  86.6378382  90.3873766  41.8991054  87.4027467
  90.1761651  42.3263871  85.9658406  84.8119951  24.0834583  87.2400266
  84.8761277  24.9449413  86.8277664  84.7487071  23.4708584  86.5072625
  84.2872223  26.1557715  90.8873301  84.9144262  25.7734792  91.5010825
  83.4300142  25.9371917  91.2528993  94.6866332  36.5620690  92.4927036
  95.2306236  37.1750649  91.9981991  94.1053177  37.1200269  93.0094049
  81.0637766  27.9634144  76.8191655  81.3591207  27.0544823  76.7658709
  80.1625802  27.9421884  76.4972658  92.9723845  39.6841408  83.6242064
  92.8474984  38.8831148  83.1153009  93.6302936  40.1787602  83.1356034
  84.5932013  26.0390141  82.8019204  83.8718599  26.6526108  82.6626677
  85.3825269  26.5747906  82.7235850  95.0358753  37.4850428  85.2521614
  94.0889089  37.3655780  85.1799941  95.3841526  36.5972926  85.3347875
  87.3958327  23.3744567  89.0759856  87.9192728  23.6206864  89.8386165
  87.1770660  24.2064602  88.6562993  82.7925608  25.6448242  76.9430980
  82.4638314  24.7645621  76.7606086  83.1464978  25.5895911  77.8307370
  92.0405187  37.2803145  81.4525966  91.8930149  36.3519852  81.6333536
  92.8658680  37.3023235  80.9683041  85.9067431  25.9321212  77.3106458
  86.2463503  26.4607133  76.5885067  86.3539551  26.2701618  78.0865025
  95.6439308  38.1031703  82.5390839  96.5685856  37.8974565  82.4015290
  95.4754612  37.8548104  83.4480180  88.6010872  24.3158262  86.7609526
  88.2607692  23.5166075  87.1630206  87.8949878  24.6159973  86.1886359
  89.2527343  21.4007575  85.2136849  90.0753413  20.9268053  85.0915740
  89.4965407  22.1798059  85.7135536  87.8935578  24.4295833  75.5099751
  88.6143940  24.8077086  75.0063468  87.2700882  25.1484710  75.6134729
  92.0366701  25.1340982  76.4458083  92.2530315  26.0165620  76.1446911
  91.5560768  24.7427196  75.7163725  86.7765922  28.0926695  83.0228828
  86.6310503  28.4066999  83.9153109  86.2991126  28.7111596  82.4699726
  88.6362305  25.0829243  83.0709717  88.6223874  24.1870337  82.7342015
  89.3534733  25.0899907  83.7048003  90.4888436  25.5166584  85.1162845
  90.2306214  26.4383654  85.1147175  89.9573476  25.1197018  85.8063309
  95.4334625  38.6217371  77.8952930  95.6071502  38.0563793  77.1426783
  95.9263516  39.4218266  77.7132420  81.2511584  30.6332040  85.9616489
  80.7065052  31.4091848  86.0936763  82.1290934  30.9802844  85.8035610
  88.0399201  23.9643624  78.3397288  88.1615112  23.0360270  78.5388175
  87.7501243  23.9782310  77.4275603  90.9090391  21.6498534  81.4764007
  90.9312088  21.7137867  80.5215987  91.3258450  20.8103043  81.6704514
 101.2874016  31.3853794  79.5143230 101.7305162  30.6361119  79.1162353
 100.4100526  31.3763930  79.1316962  96.4209797  37.9384135  74.9949829
  97.1160702  38.5590828  75.2137143  96.7632947  37.0879486  75.2702206
  82.0377606  29.7601936  88.8546646  81.2959342  29.9084571  89.4411276
  81.7170351  30.0210202  87.9913395  98.3201220  35.3883841  76.5237159
  98.8452544  35.7271113  75.7986479  98.2323573  34.4530856  76.3400294
  89.9821269  39.3017914  88.6527036  90.2908395  39.0567061  89.5249735
  90.7796751  39.5064553  88.1645906  90.0041881  41.4555824  80.8832412
  89.5646871  40.9632203  81.5765269  90.7549998  40.9128792  80.6424488
  82.4834220  37.6467365  80.8857041  83.3092240  37.3471137  80.5055684
  82.1328272  36.8774987  81.3346829  87.4515753  36.9993833  82.9554714
  86.8295762  36.3364538  82.6556942  88.1220620  37.0254965  82.2728362
  80.6842825  35.5653691  81.8445974  79.8474733  35.1375866  81.6629975
  80.6566470  35.7586135  82.7816765  87.5240281  25.4775621  92.5487220
  87.5728436  26.3537744  92.1664990  88.0662795  24.9353014  91.9758863
  98.0095126  36.0216744  91.8288357  97.2190670  36.0040883  91.2892857
  97.7728481  36.5605038  92.5837394  98.1293001  32.8709211  89.1421086
  98.1791006  32.7059218  90.0836609  98.0206925  32.0036470  88.7518967
  87.0129260  35.5497756  76.4313175  87.1617380  36.2333221  75.7779847
  87.8195703  35.5302846  76.9462630  95.4196764  28.8540139  90.4580392
  96.3206626  28.7146604  90.1664390  95.4944738  29.0194594  91.3978570
  89.7539569  26.2306993  89.3033579  88.8842878  26.5240560  89.0316167
  89.9899049  26.8147438  90.0240842  99.6311198  35.2906152  89.3863107
  99.3396006  35.6536133  90.2226568  99.0183329  34.5773160  89.2076439
 100.8306880  32.8559032  81.9065678 101.6653772  33.2948836  82.0703238
 100.9666009  32.3797685  81.0873923  97.8798386  30.4138767  87.8543165
  98.3552508  30.6066413  87.0462017  96.9563952  30.4697953  87.6086549
  84.7681893  31.5762934  77.4374244  84.5227935  30.6725264  77.6354454
  84.9377808  31.5780084  76.4953722  92.4578603  22.4486610  86.8198999
  92.9760547  23.1847637  86.4945488  92.1033736  22.7550604  87.6545758
  84.0377541  27.3091292  74.9360405  83.3446785  27.3835647  74.2800441
  83.7929292  26.5451635  75.4581922  92.7091197  18.8686893  82.3399896
  92.9892951  18.2010082  82.9660322  93.4941804  19.0615989  81.8274560
  90.5124666  38.0445887  73.9024922  89.9398633  38.6636074  73.4495394
  91.0857459  38.5945249  74.4364844  96.5800055  27.2904527  86.0871471
  97.5317478  27.3902625  86.1083695  96.4103506  26.4982795  86.5969555
  94.6014435  24.3760110  86.2730872  94.0064367  24.6565123  85.5777360
  94.3164132  24.8654011  87.0447613  93.7321925  38.3283037  75.0333504
  94.6652598  38.2628599  75.2366380  93.6445138  39.1639304  74.5748037
  96.3609942  37.6448907  71.9937452  96.2823574  37.3108771  72.8873210
  97.1819609  38.1370675  71.9928924  99.0588133  30.5110647  85.2013771
  99.0264453  29.5726647  85.3873454  99.6688757  30.5894683  84.4679595
  90.8971464  29.3806700  71.2440975  91.8430569  29.2512908  71.3129393
  90.5185709  28.6421361  71.7210403  99.2082622  27.3021690  85.2472054
  98.6921670  26.5180147  85.0601983 100.0922570  26.9740407  85.4118573
  96.8693349  21.0462706  81.2067866  96.6718170  20.7377794  82.0911198
  97.4793054  21.7724345  81.3365796 104.8764683  31.5726653  84.3419807
 105.6068072  31.3111942  84.9027511 104.2671629  30.8355375  84.3821875
 102.9579980  29.7134516  84.9394259 102.2313144  29.5790481  84.3310750
 102.5427267  30.0211345  85.7450977  90.7810157  33.4324446  92.7041632
  91.7013166  33.6103045  92.8981678  90.7459740  32.4880491  92.5521331
  89.0814381  27.3056676  71.1795860  88.1745837  27.0089789  71.2558573
  89.3590362  27.0086494  70.3130146  79.9992322  28.6263039  81.6294906
  79.6795106  27.7728348  81.3369280  79.4525750  28.8411618  82.3852874
  83.7772229  31.3425480  85.3464413  83.9958239  32.2742588  85.3652447
  84.1898003  30.9833455  86.1319217  90.6976447  21.8493566  77.3340101
  89.8877175  21.5040651  77.7095347  91.3860864  21.5401109  77.9227713
  92.6266995  20.9271613  78.9564398  93.1798034  21.3467066  79.6154421
  92.8637082  20.0007361  78.9987354  88.6500094  26.9158686  94.7367162
  88.5496821  27.8653043  94.6679253  88.4321637  26.5876925  93.8643232
  87.8513166  24.1643611  71.3207839  88.7132330  24.4898510  71.5803656
  88.0363510  23.3775107  70.8080905  96.0045802  23.0372138  78.4643062
  95.4244471  23.6956942  78.0821114  95.7381735  22.2149482  78.0530480
  94.4549369  22.4377195  80.6664382  94.9549147  22.5493730  79.8578701
  95.0984977  22.1338248  81.3065191  88.5131365  30.3455825  93.5532223
  88.0298446  31.1456185  93.7596112  88.5992304  30.3563770  92.5999667
  81.7817324  32.1784205  81.4754043  81.7588012  32.2771892  80.5235926
  82.0917961  33.0249355  81.7971209  84.4404702  34.2360360  85.5900657
  85.3947956  34.2044302  85.5230589  84.2417226  33.7750983  86.4050883
  85.0304084  32.8061476  88.1571455  85.8496973  33.3005554  88.1806292
  85.3040892  31.8893444  88.1289022  94.7870680  25.1972228  77.5199410
  93.8996535  25.4821879  77.3019605  95.2024669  25.0365991  76.6726687
  98.1385216  25.2218749  81.2353750  98.9145607  25.7115201  81.5078366
  97.4133351  25.6476803  81.6925619 100.5757775  25.9346368  82.2927690
 101.1702266  25.6942104  81.5820998 100.6484359  25.2153499  82.9201226
  82.7954931  39.7779979  82.6070855  82.6609399  39.0180380  82.0408853
  82.3786993  40.5020879  82.1399644  93.9313894  34.9616903  71.6147430
  94.6349744  35.1666905  72.2305086  93.2076543  35.5293665  71.8796514
  94.7611704  30.7126764  77.7349700  94.7046905  31.1695315  76.8957333
  95.3140047  29.9517449  77.5572543  98.5716510  26.5016496  78.5599820
  98.3153444  26.1013132  79.3908028  97.9469378  27.2160290  78.4349959
 102.8828848  29.2412569  81.0671111 102.3228406  29.3105758  81.8402673
 102.2772351  29.0653554  80.3470608  85.9524057  40.6749296  82.8189298
  85.8356441  41.6194729  82.7167988  85.1316503  40.3722858  83.2075097
  95.8400591  35.3999432  73.6645890  96.6746195  34.9680630  73.4823365
  95.6784934  35.2281446  74.5922785  95.4946483  31.9031545  75.0302230
  95.4395287  31.7375817  74.0890674  94.8692539  32.6107578  75.1864419
  80.2838998  27.1399610  88.8563652  80.9297862  26.6298564  89.3450877
  80.0756149  27.8768291  89.4307077  92.8092391  34.2080457  94.3555792
  93.6783550  34.3821109  93.9942427  92.3299142  35.0274874  94.2331522
  88.8042609  21.4039654  74.6087548  88.7921279  22.3481494  74.7655819
  89.6966031  21.2209800  74.3147009  86.9778571  41.3277558  86.0345226
  87.8805817  41.3601168  86.3511721  86.7515941  40.3978009  86.0491562
  88.7332173  40.0808545  82.6955305  87.7827804  40.0810406  82.5819677
  89.0364659  39.3341279  82.1791339  92.6194728  17.9982431  78.8633485
  91.8527124  17.4440918  79.0090167  93.0305433  18.0704300  79.7247636
  84.6236489  24.2867227  92.9538666  85.4867951  23.9304032  93.1641991
  84.0501900  23.9481121  93.6414070 104.4684866  45.9169083  83.7601067
 105.1063276  45.7975830  83.0564407 104.3505709  46.8649927  83.8189019
 101.2774573  45.8696511  83.6962592 100.9393084  45.7537576  82.8083127
 102.1464341  45.4687676  83.6763598  97.1361388  47.7231988  79.6859483
  96.5726253  47.6321924  78.9175770  97.0213783  46.9031892  80.1661975
 101.7594356  47.0231363  89.6548797 101.7482996  46.6284161  88.7829301
 101.9214995  46.2897435  90.2482569  94.6825820  49.2183179  82.5243703
  95.4747112  48.8774004  82.1090002  94.9222470  49.3278154  83.4445856
 102.7160947  51.3902955  74.9973948 102.0648927  51.9757036  74.6107961
 103.5105310  51.9209150  75.0568985  96.6416574  48.4792092  75.3961082
  97.4147450  47.9321079  75.2573958  96.9941973  49.3436342  75.6075543
  98.4801617  49.8068475  88.6027981  98.1891483  50.7114105  88.4874648
  99.1158601  49.8485002  89.3172051  99.4057824  47.1845323  85.1929341
 100.0021396  46.9601346  84.4786304  99.4632795  46.4430069  85.7954789
  98.9782852  44.6384759  73.0279532  99.2308373  44.1166280  72.2662995
  98.0407411  44.4750904  73.1306215 104.0226135  43.6420537  80.8354275
 104.8089224  43.2239960  80.4844692 104.2864839  44.5466629  81.0035923
 104.1936212  49.0793387  75.5342932 103.5582045  49.1528014  76.2463837
 103.8633619  49.6686986  74.8562011 109.4234562  43.5795770  81.7387254
 110.1559734  43.0094987  81.9725083 108.6673918  43.1917371  82.1793759
  98.6979141  46.5412864  75.2303907  98.5815399  45.8657768  75.8984991
  98.8081401  46.0545238  74.4136060 101.0410682  46.0023012  78.9350596
 100.6768889  45.4753633  79.6463518 101.8977798  45.6121481  78.7617081
 106.9459982  37.2917344  86.1981862 106.6143307  38.1612755  85.9743077
 106.3505596  36.9753628  86.8775893 100.6816169  41.0312911  73.9311945
 100.8490571  41.8993148  74.2982416 100.4913338  41.1940193  73.0073234
 103.4391502  49.4929890  85.5977775 103.1392225  50.3954929  85.4893582
 103.0942561  49.2262073  86.4498928  96.8903983  45.9443687  81.6314479
  95.9654480  45.8119901  81.8392171  97.1388396  46.7237906  82.1284422
 106.8388646  42.0112430  83.2775212 105.9305523  41.9427839  82.9833973
 106.7876241  42.4884375  84.1057038 100.6605389  43.4870569  74.9158611
 100.5405015  43.9327620  75.7544092  99.9657978  43.8355886  74.3572150
  94.2512794  45.5876961  82.4658268  94.3805175  45.8411439  83.3797680
  93.5710246  46.1804669  82.1462924  98.4212282  56.2574211  78.5648743
  98.3436311  57.2082036  78.6437223  97.8173925  55.9120083  79.2223669
 100.9129511  43.4302076  91.2210110 100.1362845  43.9895996  91.2112974
 101.5520074  43.9158859  91.7424980 108.7050292  40.2128869  85.0553086
 108.0624672  40.5061402  84.4092881 108.2005221  40.0981789  85.8606283
 106.3590456  43.9592042  75.7438945 107.2708312  44.1919429  75.5686643
 105.8500103  44.5429086  75.1814024  99.1675884  46.2387529  90.7828077
  99.9090568  46.7772573  90.5062900  98.4612869  46.8653818  90.9399628
 104.6431223  48.3816670  89.3800238 105.0514579  47.9399080  88.6354870
 103.9208485  47.8069297  89.6334431 100.9962293  43.3189277  86.7533795
 101.8423489  43.7428690  86.8968444 100.9360931  42.6622901  87.4472358
 104.9660038  48.9417860  83.1352527 104.3368900  49.1063575  82.4328595
 104.5785700  49.3559470  83.9063491 108.8449270  49.8772298  80.4896891
 108.1600308  50.2571200  79.9393924 108.9293119  50.4867625  81.2228838
 104.1461739  40.9793645  88.4114969 103.9022671  41.7335705  87.8749244
 104.4221669  41.3578993  89.2462216 106.1000201  47.5232257  87.0892234
 106.3117097  48.1664017  86.4126615 106.0529950  46.6894574  86.6214164
 103.7026430  40.1350078  83.9928806 102.8410909  40.4331331  84.2845544
 103.7288865  40.3520477  83.0609839 100.5188000  48.6792268  80.4002612
 100.9826345  48.9579971  79.6107235 100.2544798  47.7775713  80.2175703
  97.4112081  48.2263750  83.3382375  97.9813438  48.6551018  82.6999860
  98.0020193  47.9446335  84.0366561  99.4556886  44.8015421  77.2092177
 100.1580929  45.2536465  77.6766104  99.1237514  44.1599240  77.8372070
  97.9037247  43.3927177  91.5843387  97.2735908  44.0743458  91.8178783
  97.7973335  43.2810259  90.6396525  93.1982220  43.0598974  82.5109311
  92.4081274  43.3156502  82.0349421  93.6893467  43.8747311  82.6161351
 107.2146029  50.4004213  85.2614592 108.0363473  49.9984400  84.9797273
 107.2108432  50.2972447  86.2130707  95.1496965  43.4243553  79.4692787
  94.3528128  43.5362247  79.9876283  94.9222557  43.7630205  78.6033678
 100.9802633  49.9488256  87.4175302 101.0447065  50.4108663  88.2533474
 100.2713557  49.3185621  87.5457612  91.4819923  43.3129464  84.9424302
  91.7327961  44.1976474  85.2081877  92.0179471  43.1334065  84.1699393
 115.3052022  46.7442961  81.6099563 114.5515731  46.1750359  81.4543567
 115.4399564  46.7105626  82.5570198 100.6950650  51.6156363  77.2854282
 100.5596325  52.4607899  77.7139130 101.2360463  51.8175641  76.5220216
  97.1817990  37.6947943  93.9468638  96.7884936  37.1414142  94.6216282
  97.9984130  38.0058522  94.3375155  94.1480048  49.1331802  77.8582207
  94.6604568  49.9275052  78.0087772  94.8002761  48.4358092  77.7915809
  95.9574933  52.2497558  79.9404961  96.1341561  53.1715522  79.7525945
  96.7531766  51.9355977  80.3699340 100.0985951  39.1105822  91.5388894
 100.8395664  39.7112976  91.4593357 100.3303874  38.3683460  90.9806937
  95.2427289  44.2962190  89.8167124  95.1280804  43.3947447  90.1174223
  94.3871807  44.5425886  89.4651940 102.3219127  52.2379930  91.4154624
 101.8782981  51.4516309  91.0975529 102.9836340  52.4259080  90.7498515
  97.0806248  53.7675732  85.9415303  97.6313673  53.6392795  85.1692297
  96.2417724  54.0670621  85.5910196 104.4200365  52.5182730  89.4436026
 104.4018840  53.3391611  88.9516295 105.3420285  52.3936805  89.6686167
 100.8773419  50.0326859  90.2859534 101.4101756  49.2715148  90.0558842
 100.3487500  49.7400511  91.0283689 104.0443114  35.1386925  85.8153176
 103.7007383  36.0288567  85.7392286 104.4122077  34.9488583  84.9522761
  92.1128965  47.4620456  78.6341778  92.9504187  47.8717464  78.4175486
  92.2907232  46.5219898  78.6041972 104.0093397  45.1295536  74.3225611
 103.4940020  45.9000141  74.5613998 103.7370705  44.4560673  74.9458672
 101.5940508  39.9745237  79.3810849 100.7382104  39.5852088  79.2016488
 102.0067460  40.0537198  78.5210635 103.1239654  37.5091581  83.7802409
 102.6204450  37.4721716  82.9670214 103.4170261  38.4184323  83.8399066
  99.3682540  37.5930310  82.7868591 100.2335537  37.3973119  82.4274480
  99.4360049  37.3640662  83.7137948 108.9827671  47.8827891  76.2578784
 108.2057114  47.5439051  75.8133947 109.6619152  47.8880514  75.5833749
 103.7979700  43.0022629  76.1485392 103.4929836  43.3168778  76.9995535
 104.7510142  43.0804048  76.1912725 102.2426132  49.1612852  77.7978346
 101.7147493  48.4265611  77.4851584 101.7413635  49.9387528  77.5518314
 107.2218978  47.3561872  82.9145392 106.5642652  48.0461134  83.0025521
 108.0259377  47.7458304  83.2579379  96.9744859  39.8232518  80.1584958
  97.5488611  39.6007700  79.4258151  97.5615842  39.8921213  80.9113559
 106.0324437  45.7106245  80.9649334 106.5456318  46.3436237  81.4671044
 106.6825661  45.1107441  80.5992694  97.3014447  41.8536979  74.1780843
  96.4651759  42.1911666  74.4990118  97.1619216  41.7185959  73.2407980
  99.2767527  36.6973767  78.8860027  98.6231939  36.3822784  78.2616642
  99.2348001  36.0749508  79.6119850 100.3878732  46.9793062  70.8013319
  99.4805794  46.7482316  71.0004468 100.8849764  46.1830681  70.9887301
 103.2946811  55.6890569  73.7210005 102.6208510  55.9922266  74.3294963
 103.6812633  56.4919650  73.3715462 102.5105267  43.1855701  83.2107675
 101.5927829  43.4070648  83.0529363 102.9265411  43.2602011  82.3519382
 103.2940315  44.5847116  78.3410355 104.0412134  45.0968513  78.0317477
 103.5631905  44.2631169  79.2014749 101.5666965  47.0805657  75.3237309
 100.6578185  46.7964690  75.4209779 101.5962049  47.5004736  74.4640616
 106.7986233  50.6912247  79.0928477 106.3448560  49.8503156  79.1493667
 106.1680200  51.3273645  79.4303257 105.7419152  41.6204233  80.3229144
 105.0041909  41.1081619  80.6539387 105.9945926  41.1804614  79.5112421
 105.2419172  52.5288743  80.0278295 105.5342146  53.0893800  79.3090661
 105.7517793  52.8217304  80.7831454 105.8430780  34.3980485  80.9170914
 106.1489657  33.5377848  80.6296829 106.5683385  34.9898105  80.7169907
  92.1355136  44.8011171  79.3052511  91.9379536  44.2080532  78.5803578
  91.5801800  44.4963381  80.0228450 100.1151859  44.6934278  81.4247105
 100.1700469  43.7408114  81.3489581  99.3043061  44.8493717  81.9088403
 101.2643053  48.6214401  72.6625388 100.8262483  47.9050260  72.2031025
 102.0053494  48.8490515  72.1010479  98.0544219  43.3111337  79.1837483
  97.2412085  43.6105508  79.5902676  98.5503214  42.9167026  79.9011966
 100.2052797  53.3069094  81.1171748 100.1628976  53.5329941  80.1880280
 101.1215496  53.0732469  81.2657549 103.6518431  43.7753162  88.0152377
 104.0067819  44.0024635  88.8746843 104.2990562  44.1071539  87.3929633
 109.3816168  46.8971598  78.7201706 109.2434067  47.0873194  77.7922896
 109.0252387  47.6590981  79.1769758  97.5458294  40.8829693  84.7998718
  98.1857673  40.7418452  84.1021682  96.7135825  40.5964206  84.4237320
 109.4085548  48.9648125  83.7312978 109.8422054  48.8723414  84.5796032
 110.1217128  48.9405625  83.0932994  98.3218598  50.1832123  80.9133711
  99.1159197  49.6882443  80.7116286  97.6110290  49.6549986  80.5501416
 103.1413443  52.5650219  85.2646078 103.1950465  53.1341155  86.0323794
 102.2728224  52.7352104  84.9000116  94.6301362  44.3275205  76.9893464
  93.6998950  44.2659661  77.2063426  94.7258834  43.8051158  76.1930105
  94.5486911  40.8530018  79.5771705  94.8093728  41.7675351  79.4680866
  95.3704083  40.3854460  79.7268318  96.0211836  42.2667775  86.7470530
  96.6934889  42.0585137  86.0983179  95.1941622  42.0689861  86.3075762
 110.2701097  49.0071825  86.2645863 110.4636987  49.9117636  86.5105138
 110.1701715  48.5479244  87.0984448 101.9237408  38.8929716  88.7636191
 101.2765323  39.5919666  88.6700667 102.6938423  39.3265860  89.1312439
 105.3316206  49.1578568  91.8386744 105.1801712  48.9289120  90.9216828
 105.3220885  50.1149170  91.8518089 102.1001542  46.7310481  86.8233010
 103.0293602  46.8821640  86.6501978 101.6792572  46.8194502  85.9681657
 100.8989874  50.7561145  84.5931548 100.7600960  50.3879930  85.4657486
 100.1104470  51.2708785  84.4215506 101.4938026  55.8570242  75.9357084
 101.6689782  55.3858285  76.7502707 100.8070814  56.4836008  76.1638345
 102.4495089  50.1342748  81.9820386 102.1144922  50.0943518  82.8778036
 101.9499035  49.4687464  81.5090796  96.4239333  45.5410378  87.5072967
  96.2859131  44.8090617  88.1084506  97.3344257  45.4519278  87.2257155
 105.3854281  47.4798782  72.2557445 104.7683451  46.7545610  72.1590498
 104.9170769  48.2408143  71.9124520  99.0521634  45.2530337  86.9956647
  99.7621252  44.6123530  86.9543265  99.0090942  45.5043232  87.9182827
 107.0408412  52.1897691  89.9163226 106.9820959  51.5056911  89.2493809
 107.4427931  52.9316681  89.4643852  97.7650568  42.2395555  88.8152286
  97.2287925  41.7886294  89.4673882  97.1767276  42.3741464  88.0722750
  96.0599111  59.0059605  82.7096945  96.2995710  59.6378129  83.3875963
  95.2168308  58.6547645  82.9962304  97.1752827  41.6984207  71.3778750
  96.2982293  41.5773007  71.0140996  97.6510580  40.9070285  71.1257638
 107.0425820  50.1537275  88.1477205 106.1552599  49.8163196  88.2703604
 107.6124371  49.4220306  88.3845971  88.6954967  46.4861366  81.4720257
  89.3826007  46.1723096  80.8841272  88.5403096  47.3902731  81.1987508
  93.4989689  41.3751563  85.9005281  93.4147878  40.7677232  85.1655690
  92.6772395  41.8660581  85.9014777 100.5726973  54.8138727  85.1138449
 100.4997145  55.6193698  85.6257753 100.1304366  55.0130693  84.2886470
 100.3616753  54.0510497  78.6241270  99.5784275  54.5932177  78.7179495
 101.0609498  54.5684477  79.0235511 103.6713403  39.8605126  81.2675476
 104.1682102  39.1075089  80.9476546 102.9000384  39.8969443  80.7018685
 111.5243160  45.5645492  82.9093767 111.5133037  46.4470207  82.5387700
 110.6560540  45.2117043  82.7148304 103.0325657  54.7125561  87.2696607
 103.7453629  55.3473026  87.1972509 102.5415685  54.8089427  86.4536609
 104.7543184  48.6176814  78.8413899 103.8199462  48.7378276  78.6718603
 104.9319852  47.7149280  78.5773909 100.2548372  42.0022509  80.9947160
  99.8846159  41.4493550  81.6828066 100.7507464  41.3980643  80.4422160
 108.1415735  44.4594133  79.3763933 108.6076187  45.2922125  79.3024236
 108.5923235  43.9939115  80.0809192  98.0837570  52.4620004  88.0902178
  98.7847030  53.0956487  88.2431572  97.6132685  52.8034736  87.3297817
 106.2091966  50.8037954  76.3750085 106.4851810  50.6894549  77.2843959
 105.3396465  50.4055439  76.3362258 106.1132398  36.8274720  83.4154834
 105.1995477  37.0578947  83.5837041 106.5425499  36.9113164  84.2668867
 105.8838856  45.0164612  85.9154728 105.2310306  45.2640519  85.2607181
 106.2619236  44.2028750  85.5817206 102.8446030  55.0524305  80.0182899
 103.0268425  54.2345961  80.4810651 103.6679016  55.2691997  79.5807789
 103.1788196  53.9792490  77.2797947 103.7075962  53.4684945  76.6668109
 103.4416415  53.6635020  78.1443480 101.9326429  45.7584423  92.4020766
 101.2567066  45.6578552  93.0723141 102.7554063  45.6023637  92.8656763
  93.6805288  51.9956359  85.0233281  94.2658725  51.2500047  85.1561185
  93.4830127  52.3060316  85.9069945  96.5343943  55.0307607  80.0395723
  95.8654319  55.5153735  79.5559763  96.3956813  55.2776827  80.9539102
  88.2722943  44.5661960  83.7437724  88.3107043  44.0325550  84.5374842
  87.7663236  44.0397165  83.1248701 100.6749212  57.0651350  86.6378382
 101.2267520  57.2282972  87.4027467 101.0155406  57.6555788  85.9658406
  95.6513705  39.4126500  87.2400266  95.7155032  40.2741331  86.8277664
  95.5880826  38.8000502  86.5072625  95.1265978  41.4849633  90.8873301
  95.7538017  41.1026710  91.5010825  94.2693897  41.2663835  91.2528993
 105.5260086  51.8912608  92.4927036 106.0699990  52.5042566  91.9981991
 104.9446931  52.4492186  93.0094049  91.9031521  43.2926062  76.8191655
  92.1984962  42.3836740  76.7658709  91.0019556  43.2713801  76.4972658
 103.8117599  55.0133326  83.6242064 103.6868739  54.2123066  83.1153009
 104.4696690  55.5079519  83.1356034  95.4325768  41.3682058  82.8019204
  94.7112353  41.9818026  82.6626677  96.2219023  41.9039823  82.7235850
 105.8752508  52.8142346  85.2521614 104.9282843  52.6947697  85.1799941
 106.2235281  51.9264844  85.3347875  98.2352081  38.7036485  89.0759856
  98.7586483  38.9498781  89.8386165  98.0164414  39.5356520  88.6562993
  93.6319362  40.9740160  76.9430980  93.3032068  40.0937538  76.7606086
  93.9858733  40.9187828  77.8307370 102.8798941  52.6095062  81.4525966
 102.7323903  51.6811770  81.6333536 103.7052435  52.6315153  80.9683041
  96.7461185  41.2613129  77.3106458  97.0857258  41.7899051  76.5885067
  97.1933306  41.5993535  78.0865025 106.4833063  53.4323621  82.5390839
 107.4079610  53.2266482  82.4015290 106.3148366  53.1840022  83.4480180
  99.4404626  39.6450180  86.7609526  99.1001447  38.8457993  87.1630206
  98.7343632  39.9451891  86.1886359 100.0921098  36.7299492  85.2136849
 100.9147167  36.2559971  85.0915740 100.3359162  37.5089976  85.7135536
  98.7329332  39.7587751  75.5099751  99.4537695  40.1369004  75.0063468
  98.1094637  40.4776628  75.6134729 102.8760455  40.4632900  76.4458083
 103.0924070  41.3457538  76.1446911 102.3954523  40.0719113  75.7163725
  97.6159677  43.4218613  83.0228828  97.4704257  43.7358916  83.9153109
  97.1384880  44.0403513  82.4699726  99.4756060  40.4121161  83.0709717
  99.4617628  39.5162254  82.7342015 100.1928488  40.4191825  83.7048003
 101.3282190  40.8458501  85.1162845 101.0699968  41.7675572  85.1147175
 100.7967231  40.4488936  85.8063309 106.2728379  53.9509288  77.8952930
 106.4465257  53.3855711  77.1426783 106.7657270  54.7510183  77.7132420
  92.0905339  45.9623957  85.9616489  91.5458807  46.7383765  86.0936763
  92.9684689  46.3094762  85.8035610  98.8792956  39.2935541  78.3397288
  99.0008867  38.3652188  78.5388175  98.5894998  39.3074227  77.4275603
 101.7484146  36.9790452  81.4764007 101.7705843  37.0429785  80.5215987
 102.1652205  36.1394960  81.6704514 112.1267770  46.7145711  79.5143230
 112.5698916  45.9653037  79.1162353 111.2494281  46.7055848  79.1316962
 107.2603552  53.2676053  74.9949829 107.9554456  53.8882745  75.2137143
 107.6026702  52.4171404  75.2702206  92.8771361  45.0893854  88.8546646
  92.1353097  45.2376489  89.4411276  92.5564105  45.3502119  87.9913395
 109.1594975  50.7175758  76.5237159 109.6846299  51.0563031  75.7986479
 109.0717327  49.7822774  76.3400294 100.8215023  54.6309832  88.6527036
 101.1302150  54.3858979  89.5249735 101.6190505  54.8356470  88.1645906
 100.8435635  56.7847742  80.8832412 100.4040626  56.2924120  81.5765269
 101.5943752  56.2420709  80.6424488  93.3227974  52.9759282  80.8857041
  94.1485994  52.6763054  80.5055684  92.9722026  52.2066905  81.3346829
  98.2909508  52.3285751  82.9554714  97.6689517  51.6656456  82.6556942
  98.9614375  52.3546883  82.2728362  91.5236579  50.8945609  81.8445974
  90.6868488  50.4667783  81.6629975  91.4960225  51.0878052  82.7816765
  98.3634035  40.8067539  92.5487220  98.4122191  41.6829662  92.1664990
  98.9056549  40.2644932  91.9758863 108.8488881  51.3508662  91.8288357
 108.0584424  51.3332801  91.2892857 108.6122235  51.8896956  92.5837394
 108.9686756  48.2001128  89.1421086 109.0184761  48.0351136  90.0836609
 108.8600679  47.3328387  88.7518967  97.8523015  50.8789674  76.4313175
  98.0011135  51.5625138  75.7779847  98.6589458  50.8594764  76.9462630
 106.2590518  44.1832056  90.4580392 107.1600381  44.0438521  90.1664390
 106.3338493  44.3486511  91.3978570 100.5933324  41.5598911  89.3033579
  99.7236633  41.8532477  89.0316167 100.8292804  42.1439356  90.0240842
 110.4704953  50.6198070  89.3863107 110.1789761  50.9828050  90.2226568
 109.8577084  49.9065078  89.2076439 111.6700635  48.1850950  81.9065678
 112.5047526  48.6240754  82.0703238 111.8059764  47.7089603  81.0873923
 108.7192141  45.7430685  87.8543165 109.1946262  45.9358331  87.0462017
 107.7957706  45.7989870  87.6086549  95.6075647  46.9054852  77.4374244
  95.3621689  46.0017182  77.6354454  95.7771562  46.9072002  76.4953722
 103.2972357  37.7778528  86.8198999 103.8154301  38.5139555  86.4945488
 102.9427490  38.0842521  87.6545758  94.8771295  42.6383209  74.9360405
  94.1840540  42.7127564  74.2800441  94.6323047  41.8743553  75.4581922
 103.5484952  34.1978811  82.3399896 103.8286705  33.5302000  82.9660322
 104.3335558  34.3907906  81.8274560 101.3518420  53.3737804  73.9024922
 100.7792387  53.9927992  73.4495394 101.9251214  53.9237166  74.4364844
 107.4193810  42.6196445  86.0871471 108.3711233  42.7194542  86.1083695
 107.2497260  41.8274713  86.5969555 105.4408189  39.7052028  86.2730872
 104.8458121  39.9857041  85.5777360 105.1557886  40.1945929  87.0447613
 104.5715680  53.6574955  75.0333504 105.5046353  53.5920516  75.2366380
 104.4838893  54.4931221  74.5748037 107.2003697  52.9740825  71.9937452
 107.1217328  52.6400689  72.8873210 108.0213363  53.4662593  71.9928924
 109.8981888  45.8402564  85.2013771 109.8658208  44.9018565  85.3873454
 110.5082511  45.9186601  84.4679595 101.7365219  44.7098617  71.2440975
 102.6824323  44.5804825  71.3129393 101.3579463  43.9713279  71.7210403
 110.0476376  42.6313608  85.2472054 109.5315425  41.8472064  85.0601983
 110.9316325  42.3032324  85.4118573 107.7087103  36.3754623  81.2067866
 107.5111924  36.0669711  82.0911198 108.3186809  37.1016262  81.3365796
 115.7158438  46.9018571  84.3419807 116.4461826  46.6403859  84.9027511
 115.1065383  46.1647293  84.3821875 113.7973735  45.0426434  84.9394259
 113.0706898  44.9082399  84.3310750 113.3821022  45.3503262  85.7450977
 101.6203911  48.7616363  92.7041632 102.5406921  48.9394962  92.8981678
 101.5853494  47.8172409  92.5521331  99.9208136  42.6348594  71.1795860
  99.0139591  42.3381706  71.2558573 100.1984117  42.3378412  70.3130146
  90.8386076  43.9554957  81.6294906  90.5188860  43.1020265  81.3369280
  90.2919504  44.1703535  82.3852874  94.6165984  46.6717398  85.3464413
  94.8351993  47.6034506  85.3652447  95.0291757  46.3125372  86.1319217
 101.5370201  37.1785483  77.3340101 100.7270930  36.8332568  77.7095347
 102.2254618  36.8693027  77.9227713 103.4660750  36.2563530  78.9564398
 104.0191788  36.6758984  79.6154421 103.7030836  35.3299278  78.9987354
  99.4893849  42.2450604  94.7367162  99.3890576  43.1944961  94.6679253
  99.2715391  41.9168843  93.8643232  98.6906920  39.4935529  71.3207839
  99.5526084  39.8190427  71.5803656  98.8757264  38.7067025  70.8080905
  90.7074336  47.5757869  83.5988028  90.0137808  47.1611821  83.0857982
  91.4547327  47.6178405  83.0021447 106.8439557  38.3664055  78.4643062
 106.2638226  39.0248859  78.0821114 106.5775489  37.5441400  78.0530480
 105.2943123  37.7669113  80.6664382 105.7942902  37.8785648  79.8578701
 105.9378731  37.4630166  81.3065191  99.3525119  45.6747743  93.5532223
  98.8692201  46.4748103  93.7596112  99.4386058  45.6855688  92.5999667
  92.6211079  47.5076122  81.4754043  92.5981767  47.6063810  80.5235926
  92.9311715  48.3541273  81.7971209  95.2798456  49.5652277  85.5900657
  96.2341710  49.5336220  85.5230589  95.0810980  49.1042901  86.4050883
  95.8697839  48.1353393  88.1571455  96.6890728  48.6297472  88.1806292
  96.1434646  47.2185362  88.1289022 105.6264435  40.5264146  77.5199410
 104.7390290  40.8113796  77.3019605 106.0418424  40.3657909  76.6726687
 108.9778971  40.5510667  81.2353750 109.7539361  41.0407119  81.5078366
 108.2527105  40.9768721  81.6925619 111.4151530  41.2638286  82.2927690
 112.0096020  41.0234022  81.5820998 111.4878113  40.5445416  82.9201226
  93.6348685  55.1071897  82.6070855  93.5003153  54.3472298  82.0408853
  93.2180748  55.8312797  82.1399644 104.7707648  50.2908820  71.6147430
 105.4743498  50.4958823  72.2305086 104.0470297  50.8585582  71.8796514
 105.6005459  46.0418682  77.7349700 105.5440660  46.4987233  76.8957333
 106.1533801  45.2809366  77.5572543 109.4110264  41.8308414  78.5599820
 109.1547199  41.4305049  79.3908028 108.7863133  42.5452207  78.4349959
 113.7222602  44.5704487  81.0671111 113.1622160  44.6397676  81.8402673
 113.1166106  44.3945471  80.3470608  96.7917811  56.0041214  82.8189298
  96.6750195  56.9486646  82.7167988  95.9710257  55.7014775  83.2075097
 106.6794346  50.7291350  73.6645890 107.5139950  50.2972548  73.4823365
 106.5178689  50.5573363  74.5922785 106.3340238  47.2323463  75.0302230
 106.2789042  47.0667734  74.0890674 105.7086293  47.9399496  75.1864419
  91.1232753  42.4691527  88.8563652  91.7691616  41.9590481  89.3450877
  90.9149904  43.2060209  89.4307077 103.6486145  49.5372375  94.3555792
 104.5177305  49.7113027  93.9942427 103.1692897  50.3566792  94.2331522
  99.6436363  36.7331572  74.6087548  99.6315033  37.6773412  74.7655819
 100.5359785  36.5501717  74.3147009  97.8172325  56.6569476  86.0345226
  98.7199572  56.6893086  86.3511721  97.5909695  55.7269927  86.0491562
  99.5725927  55.4100462  82.6955305  98.6221558  55.4102324  82.5819677
  99.8758413  54.6633197  82.1791339 103.4588483  33.3274349  78.8633485
 102.6920879  32.7732835  79.0090167 103.8699188  33.3996217  79.7247636
  95.4630244  39.6159144  92.9538666  96.3261705  39.2595949  93.1641991
  94.8895655  39.2773039  93.6414070 115.3078621  61.2461001  83.7601067
 115.9457031  61.1267748  83.0564407 115.1899464  62.1941845  83.8189019
 112.1168327  61.1988429  83.6962592 111.7786839  61.0829493  82.8083127
 112.9858095  60.7979594  83.6763598 107.9755143  63.0523905  79.6859483
 107.4120008  62.9613842  78.9175770 107.8607538  62.2323810  80.1661975
 112.5988110  62.3523281  89.6548797 112.5876751  61.9576079  88.7829301
 112.7608750  61.6189353  90.2482569 105.5219575  64.5475097  82.5243703
 106.3140867  64.2065921  82.1090002 105.7616225  64.6570072  83.4445856
 113.5554701  66.7194873  74.9973948 112.9042681  67.3048953  74.6107961
 114.3499064  67.2501068  75.0568985 107.4810329  63.8084010  75.3961082
 108.2541205  63.2612997  75.2573958 107.8335728  64.6728259  75.6075543
 109.3195371  65.1360392  88.6027981 109.0285237  66.0406023  88.4874648
 109.9552356  65.1776920  89.3172051 110.2451578  62.5137241  85.1929341
 110.8415150  62.2893263  84.4786304 110.3026550  61.7721986  85.7954789
 109.8176606  59.9676676  73.0279532 110.0702127  59.4458197  72.2662995
 108.8801166  59.8042822  73.1306215 114.8619889  58.9712455  80.8354275
 115.6482978  58.5531878  80.4844692 115.1258594  59.8758547  81.0035923
 115.0329967  64.4085305  75.5342932 114.3975800  64.4819931  76.2463837
 114.7027373  64.9978904  74.8562011 120.2628316  58.9087688  81.7387254
 120.9953488  58.3386905  81.9725083 119.5067672  58.5209288  82.1793759
 109.5372895  61.8704782  75.2303907 109.4209153  61.1949686  75.8984991
 109.6475155  61.3837156  74.4136060 111.8804436  61.3314929  78.9350596
 111.5162643  60.8045550  79.6463518 112.7371552  60.9413398  78.7617081
 117.7853737  52.6209262  86.1981862 117.4537062  53.4904673  85.9743077
 117.1899350  52.3045546  86.8775893 111.5209923  56.3604829  73.9311945
 111.6884325  57.2285065  74.2982416 111.3307092  56.5232111  73.0073234
 114.2785256  64.8221808  85.5977775 113.9785979  65.7246847  85.4893582
 113.9336316  64.5553991  86.4498928 107.7297738  61.2735605  81.6314479
 106.8048234  61.1411819  81.8392171 107.9782151  62.0529824  82.1284422
 117.6782400  57.3404348  83.2775212 116.7699277  57.2719756  82.9833973
 117.6269996  57.8176293  84.1057038 111.4999144  58.8162486  74.9158611
 111.3798769  59.2619537  75.7544092 110.8051732  59.1647804  74.3572150
 105.0906549  60.9168878  82.4658268 105.2198930  61.1703357  83.3797680
 104.4104000  61.5096586  82.1462924 109.2606036  71.5866128  78.5648743
 109.1830066  72.5373953  78.6437223 108.6567680  71.2412001  79.2223669
 111.7523266  58.7593994  91.2210110 110.9756600  59.3187914  91.2112974
 112.3913829  59.2450777  91.7424980 119.5444046  55.5420786  85.0553086
 118.9018427  55.8353320  84.4092881 119.0398975  55.4273707  85.8606283
 117.1984210  59.2883960  75.7438945 118.1102066  59.5211346  75.5686643
 116.6893857  59.8721004  75.1814024 110.0069638  61.5679447  90.7828077
 110.7484323  62.1064491  90.5062900 109.3006624  62.1945736  90.9399628
 115.4824978  63.7108587  89.3800238 115.8908334  63.2690998  88.6354870
 114.7602239  63.1361215  89.6334431 111.8356048  58.6481194  86.7533795
 112.6817243  59.0720608  86.8968444 111.7754686  57.9914819  87.4472358
 115.8053792  64.2709778  83.1352527 115.1762655  64.4355492  82.4328595
 115.4179455  64.6851388  83.9063491 119.6843024  65.2064216  80.4896891
 118.9994062  65.5863117  79.9393924 119.7686874  65.8159543  81.2228838
 114.9855493  56.3085563  88.4114969 114.7416425  57.0627623  87.8749244
 115.2615424  56.6870910  89.2462216 116.9393956  62.8524175  87.0892234
 117.1510851  63.4955935  86.4126615 116.8923704  62.0186491  86.6214164
 114.5420185  55.4641996  83.9928806 113.6804664  55.7623249  84.2845544
 114.5682620  55.6812394  83.0609839 111.3581754  64.0084186  80.4002612
 111.8220100  64.2871889  79.6107235 111.0938552  63.1067631  80.2175703
 108.2505835  63.5555668  83.3382375 108.8207192  63.9842936  82.6999860
 108.8413947  63.2738252  84.0366561 110.2950640  60.1307339  77.2092177
 110.9974684  60.5828382  77.6766104 109.9631269  59.4891157  77.8372070
 108.7431002  58.7219095  91.5843387 108.1129662  59.4035376  91.8178783
 108.6367090  58.6102177  90.6396525 104.0375974  58.3890891  82.5109311
 103.2475028  58.6448420  82.0349421 104.5287222  59.2039229  82.6161351
 118.0539784  65.7296130  85.2614592 118.8757228  65.3276318  84.9797273
 118.0502187  65.6264365  86.2130707 105.9890720  58.7535470  79.4692787
 105.1921883  58.8654165  79.9876283 105.7616312  59.0922123  78.6033678
 111.8196387  65.2780174  87.4175302 111.8840820  65.7400581  88.2533474
 111.1107311  64.6477539  87.5457612 102.3213677  58.6421382  84.9424302
 102.5721716  59.5268392  85.2081877 102.8573226  58.4625983  84.1699393
 126.1445777  62.0734879  81.6099563 125.3909485  61.5042277  81.4543567
 126.2793318  62.0397543  82.5570198 111.5344405  66.9448281  77.2854282
 111.3990080  67.7899817  77.7139130 112.0754217  67.1467559  76.5220216
 108.0211745  53.0239861  93.9468638 107.6278690  52.4706060  94.6216282
 108.8377885  53.3350439  94.3375155 104.9873802  64.4623719  77.8582207
 105.4998323  65.2566969  78.0087772 105.6396515  63.7650010  77.7915809
 106.7968687  67.5789475  79.9404961 106.9735315  68.5007440  79.7525945
 107.5925521  67.2647895  80.3699340 110.9379706  54.4397740  91.5388894
 111.6789419  55.0404893  91.4593357 111.1697628  53.6975378  90.9806937
 106.0821044  59.6254107  89.8167124 105.9674559  58.7239365  90.1174223
 105.2265561  59.8717804  89.4651940 113.1612881  67.5671848  91.4154624
 112.7176736  66.7808226  91.0975529 113.8230095  67.7550998  90.7498515
 107.9200003  69.0967649  85.9415303 108.4707428  68.9684713  85.1692297
 107.0811478  69.3962538  85.5910196 115.2594119  67.8474648  89.4436026
 115.2412595  68.6683529  88.9516295 116.1814039  67.7228723  89.6686167
 111.7167174  65.3618777  90.2859534 112.2495510  64.6007065  90.0558842
 111.1881255  65.0692429  91.0283689 114.8836869  50.4678843  85.8153176
 114.5401138  51.3580485  85.7392286 115.2515831  50.2780501  84.9522761
 102.9522719  62.7912373  78.6341778 103.7897941  63.2009382  78.4175486
 103.1300987  61.8511816  78.6041972 114.8487151  60.4587454  74.3225611
 114.3333775  61.2292059  74.5613998 114.5764460  59.7852590  74.9458672
 112.4334262  55.3037155  79.3810849 111.5775859  54.9144005  79.2016488
 112.8461214  55.3829116  78.5210635 113.9633409  52.8383498  83.7802409
 113.4598205  52.8013633  82.9670214 114.2564016  53.7476241  83.8399066
 110.2076295  52.9222228  82.7868591 111.0729292  52.7265037  82.4274480
 110.2753804  52.6932580  83.7137948 119.8221425  63.2119809  76.2578784
 119.0450868  62.8730968  75.8133947 120.5012906  63.2172432  75.5833749
 114.6373454  58.3314546  76.1485392 114.3323590  58.6460695  76.9995535
 115.5903897  58.4095966  76.1912725 113.0819886  64.4904770  77.7978346
 112.5541248  63.7557529  77.4851584 112.5807389  65.2679446  77.5518314
 118.0612732  62.6853790  82.9145392 117.4036407  63.3753051  83.0025521
 118.8653132  63.0750222  83.2579379 107.8138614  55.1524436  80.1584958
 108.3882366  54.9299617  79.4258151 108.4009596  55.2213130  80.9113559
 116.8718191  61.0398163  80.9649334 117.3850073  61.6728155  81.4671044
 117.5219415  60.4399358  80.5992694 108.1408201  57.1828897  74.1780843
 107.3045513  57.5203583  74.4990118 108.0012971  57.0477877  73.2407980
 110.1161282  52.0265685  78.8860027 109.4625694  51.7114702  78.2616642
 110.0741756  51.4041425  79.6119850 111.2272486  62.3084980  70.8013319
 110.3199548  62.0774233  71.0004468 111.7243518  61.5122599  70.9887301
 114.1340565  71.0182487  73.7210005 113.4602264  71.3214184  74.3294963
 114.5206387  71.8211567  73.3715462 113.3499022  58.5147618  83.2107675
 112.4321583  58.7362565  83.0529363 113.7659166  58.5893929  82.3519382
 114.1334070  59.9139034  78.3410355 114.8805889  60.4260431  78.0317477
 114.4025659  59.5923087  79.2014749 112.4060720  62.4097575  75.3237309
 111.4971939  62.1256607  75.4209779 112.4355804  62.8296653  74.4640616
 117.6379987  66.0204164  79.0928477 117.1842314  65.1795074  79.1493667
 117.0073954  66.6565563  79.4303257 116.5812907  56.9496150  80.3229144
 115.8435664  56.4373536  80.6539387 116.8339680  56.5096532  79.5112421
 116.0812927  67.8580661  80.0278295 116.3735901  68.4185718  79.3090661
 116.5911547  68.1509222  80.7831454 116.6824534  49.7272402  80.9170914
 116.9883411  48.8669766  80.6296829 117.4077139  50.3190022  80.7169907
 102.9748890  60.1303089  79.3052511 102.7773290  59.5372450  78.5803578
 102.4195554  59.8255299  80.0228450 110.9545614  60.0226195  81.4247105
 111.0094224  59.0700032  81.3489581 110.1436816  60.1785634  81.9088403
 112.1036808  63.9506318  72.6625388 111.6656238  63.2342177  72.2031025
 112.8447249  64.1782433  72.1010479 108.8937974  58.6403255  79.1837483
 108.0805839  58.9397426  79.5902676 109.3896968  58.2458944  79.9011966
 111.0446552  68.6361012  81.1171748 111.0022731  68.8621858  80.1880280
 111.9609251  68.4024387  81.2657549 114.4912186  59.1045080  88.0152377
 114.8461573  59.3316553  88.8746843 115.1384317  59.4363456  87.3929633
 120.2209923  62.2263515  78.7201706 120.0827821  62.4165111  77.7922896
 119.8646141  62.9882898  79.1769758 108.3852049  56.2121611  84.7998718
 109.0251428  56.0710370  84.1021682 107.5529579  55.9256124  84.4237320
 120.2479302  64.2940042  83.7312978 120.6815809  64.2015331  84.5796032
 120.9610883  64.2697543  83.0932994 109.1612353  65.5124041  80.9133711
 109.9552951  65.0174361  80.7116286 108.4504045  64.9841904  80.5501416
 113.9807197  67.8942137  85.2646078 114.0344219  68.4633073  86.0323794
 113.1121978  68.0644022  84.9000116 105.4695116  59.6567123  76.9893464
 104.5392704  59.5951578  77.2063426 105.5652588  59.1343075  76.1930105
 105.3880665  56.1821936  79.5771705 105.6487482  57.0967269  79.4680866
 106.2097837  55.7146378  79.7268318 106.8605590  57.5959693  86.7470530
 107.5328644  57.3877055  86.0983179 106.0335377  57.3981779  86.3075762
 121.1094852  64.3363743  86.2645863 121.3030742  65.2409554  86.5105138
 121.0095470  63.8771162  87.0984448 112.7631162  54.2221634  88.7636191
 112.1159077  54.9211583  88.6700667 113.5332178  54.6557778  89.1312439
 116.1709960  64.4870486  91.8386744 116.0195467  64.2581037  90.9216828
 116.1614640  65.4441087  91.8518089 112.9395297  62.0602399  86.8233010
 113.8687357  62.2113558  86.6501978 112.5186327  62.1486419  85.9681657
 111.7383629  66.0853063  84.5931548 111.5994714  65.7171847  85.4657486
 110.9498225  66.6000702  84.4215506 112.3331781  71.1862159  75.9357084
 112.5083536  70.7150203  76.7502707 111.6464569  71.8127926  76.1638345
 113.2888844  65.4634666  81.9820386 112.9538676  65.4235436  82.8778036
 112.7892789  64.7979382  81.5090796 107.2633088  60.8702296  87.5072967
 107.1252886  60.1382535  88.1084506 108.1738011  60.7811196  87.2257155
 116.2248035  62.8090700  72.2557445 115.6077206  62.0837528  72.1590498
 115.7564524  63.5700060  71.9124520 109.8915388  60.5822255  86.9956647
 110.6015007  59.9415447  86.9543265 109.8484696  60.8335150  87.9182827
 117.8802167  67.5189608  89.9163226 117.8214713  66.8348828  89.2493809
 118.2821685  68.2608598  89.4643852 108.6044322  57.5687473  88.8152286
 108.0681679  57.1178211  89.4673882 108.0161031  57.7033382  88.0722750
 106.8992866  74.3351522  82.7096945 107.1389464  74.9670046  83.3875963
 106.0562062  73.9839562  82.9962304 108.0146581  57.0276124  71.3778750
 107.1376048  56.9064925  71.0140996 108.4904334  56.2362203  71.1257638
 117.8819574  65.4829192  88.1477205 116.9946353  65.1455114  88.2703604
 118.4518125  64.7512224  88.3845971  99.5348721  61.8153284  81.4720257
 100.2219761  61.5015014  80.8841272  99.3796850  62.7194649  81.1987508
 104.3383444  56.7043481  85.9005281 104.2541632  56.0969150  85.1655690
 103.5166150  57.1952499  85.9014777 111.4120728  70.1430645  85.1138449
 111.3390899  70.9485616  85.6257753 110.9698121  70.3422610  84.2886470
 111.2010507  69.3802415  78.6241270 110.4178029  69.9224095  78.7179495
 111.9003252  69.8976394  79.0235511 114.5107157  55.1897044  81.2675476
 115.0075857  54.4367006  80.9476546 113.7394139  55.2261361  80.7018685
 122.3636915  60.8937410  82.9093767 122.3526791  61.7762125  82.5387700
 121.4954294  60.5408960  82.7148304 113.8719411  70.0417479  87.2696607
 114.5847383  70.6764943  87.1972509 113.3809440  70.1381345  86.4536609
 115.5936938  63.9468731  78.8413899 114.6593217  64.0670194  78.6718603
 115.7713607  63.0441198  78.5773909 111.0942126  57.3314427  80.9947160
 110.7239914  56.7785467  81.6828066 111.5901219  56.7272561  80.4422160
 118.9809489  59.7886051  79.3763933 119.4469942  60.6214042  79.3024236
 119.4316990  59.3231032  80.0809192 108.9231325  67.7911922  88.0902178
 109.6240784  68.4248405  88.2431572 108.4526440  68.1326654  87.3297817
 117.0485721  66.1329872  76.3750085 117.3245564  66.0186466  77.2843959
 116.1790219  65.7347357  76.3362258 116.9526152  52.1566638  83.4154834
 116.0389232  52.3870864  83.5837041 117.3819254  52.2405082  84.2668867
 116.7232611  60.3456530  85.9154728 116.0704061  60.5932437  85.2607181
 117.1012991  59.5320668  85.5817206 113.6839785  70.3816223  80.0182899
 113.8662179  69.5637879  80.4810651 114.5072771  70.5983915  79.5807789
 114.0181950  69.3084408  77.2797947 114.5469716  68.7976862  76.6668109
 114.2810170  68.9926938  78.1443480 112.7720184  61.0876341  92.4020766
 112.0960821  60.9870470  93.0723141 113.5947818  60.9315554  92.8656763
 104.5199043  67.3248277  85.0233281 105.1052480  66.5791965  85.1561185
 104.3223881  67.6352234  85.9069945 107.3737698  70.3599525  80.0395723
 106.7048073  70.8445652  79.5559763 107.2350568  70.6068745  80.9539102
  99.1116698  59.8953877  83.7437724  99.1500797  59.3617468  84.5374842
  98.6056990  59.3689083  83.1248701 111.5142967  72.3943268  86.6378382
 112.0661275  72.5574890  87.4027467 111.8549160  72.9847706  85.9658406
 106.4907460  54.7418418  87.2400266 106.5548786  55.6033249  86.8277664
 106.4274580  54.1292420  86.5072625 105.9659732  56.8141550  90.8873301
 106.5931771  56.4318628  91.5010825 105.1087651  56.5955752  91.2528993
 116.3653841  67.2204526  92.4927036 116.9093745  67.8334484  91.9981991
 115.7840686  67.7784104  93.0094049 102.7425275  58.6217980  76.8191655
 103.0378716  57.7128658  76.7658709 101.8413311  58.6005719  76.4972658
 114.6511354  70.3425244  83.6242064 114.5262493  69.5414983  83.1153009
 115.3090445  70.8371437  83.1356034 106.2719522  56.6973976  82.8019204
 105.5506108  57.3109944  82.6626677 107.0612778  57.2331741  82.7235850
 116.7146262  68.1434264  85.2521614 115.7676598  68.0239615  85.1799941
 117.0629035  67.2556762  85.3347875 109.0745836  54.0328403  89.0759856
 109.5980237  54.2790699  89.8386165 108.8558169  54.8648437  88.6562993
 104.4713117  56.3032077  76.9430980 104.1425823  55.4229456  76.7606086
 104.8252487  56.2479746  77.8307370 113.7192696  67.9386980  81.4525966
 113.5717658  67.0103687  81.6333536 114.5446189  67.9607071  80.9683041
 107.5854940  56.5905047  77.3106458 107.9251012  57.1190968  76.5885067
 108.0327060  56.9285453  78.0865025 117.3226817  68.7615539  82.5390839
 118.2473365  68.5558400  82.4015290 117.1542121  68.5131940  83.4480180
 110.2798381  54.9742098  86.7609526 109.9395201  54.1749911  87.1630206
 109.5737387  55.2743809  86.1886359 110.9314852  52.0591410  85.2136849
 111.7540922  51.5851888  85.0915740 111.1752916  52.8381894  85.7135536
 109.5723087  55.0879669  75.5099751 110.2931449  55.4660921  75.0063468
 108.9488391  55.8068545  75.6134729 113.7154210  55.7924818  76.4458083
 113.9317824  56.6749455  76.1446911 113.2348277  55.4011031  75.7163725
 108.4553431  58.7510531  83.0228828 108.3098012  59.0650834  83.9153109
 107.9778635  59.3695431  82.4699726 110.3149814  55.7413079  83.0709717
 110.3011383  54.8454172  82.7342015 111.0322242  55.7483743  83.7048003
 112.1675945  56.1750419  85.1162845 111.9093723  57.0967490  85.1147175
 111.6360985  55.7780854  85.8063309 117.1122134  69.2801206  77.8952930
 117.2859011  68.7147629  77.1426783 117.6051025  70.0802101  77.7132420
 102.9299093  61.2915875  85.9616489 102.3852561  62.0675683  86.0936763
 103.8078443  61.6386680  85.8035610 109.7186710  54.6227459  78.3397288
 109.8402621  53.6944105  78.5388175 109.4288752  54.6366145  77.4275603
 112.5877900  52.3082369  81.4764007 112.6099597  52.3721703  80.5215987
 113.0045959  51.4686878  81.6704514 122.9661525  62.0437629  79.5143230
 123.4092671  61.2944954  79.1162353 122.0888035  62.0347765  79.1316962
 118.0997306  68.5967971  74.9949829 118.7948211  69.2174663  75.2137143
 118.4420456  67.7463322  75.2702206 103.7165115  60.4185771  88.8546646
 102.9746851  60.5668407  89.4411276 103.3957860  60.6794037  87.9913395
 119.9988729  66.0467676  76.5237159 120.5240053  66.3854949  75.7986479
 119.9111082  65.1114691  76.3400294 111.6608778  69.9601750  88.6527036
 111.9695904  69.7150896  89.5249735 112.4584260  70.1648388  88.1645906
 111.6829390  72.1139659  80.8832412 111.2434380  71.6216038  81.5765269
 112.4337507  71.5712627  80.6424488 104.1621729  68.3051200  80.8857041
 104.9879749  68.0054972  80.5055684 103.8115781  67.5358823  81.3346829
 109.1303262  67.6577668  82.9554714 108.5083271  66.9948373  82.6556942
 109.8008129  67.6838800  82.2728362 102.3630334  66.2237527  81.8445974
 101.5262242  65.7959701  81.6629975 102.3353979  66.4169970  82.7816765
 109.2027790  56.1359456  92.5487220 109.2515945  57.0121579  92.1664990
 109.7450304  55.5936849  91.9758863 119.6882635  66.6800580  91.8288357
 118.8978179  66.6624719  91.2892857 119.4515990  67.2188873  92.5837394
 119.8080510  63.5293046  89.1421086 119.8578515  63.3643053  90.0836609
 119.6994434  62.6620305  88.7518967 108.6916769  66.2081592  76.4313175
 108.8404889  66.8917056  75.7779847 109.4983212  66.1886682  76.9462630
 117.0984273  59.5123974  90.4580392 117.9994135  59.3730439  90.1664390
 117.1732247  59.6778429  91.3978570 111.4327078  56.8890829  89.3033579
 110.5630387  57.1824395  89.0316167 111.6686558  57.4731274  90.0240842
 121.3098707  65.9489988  89.3863107 121.0183515  66.3119968  90.2226568
 120.6970838  65.2356996  89.2076439 122.5094389  63.5142867  81.9065678
 123.3441281  63.9532671  82.0703238 122.6453518  63.0381521  81.0873923
 119.5585895  61.0722602  87.8543165 120.0340017  61.2650248  87.0462017
 118.6351461  61.1281788  87.6086549 106.4469402  62.2346769  77.4374244
 106.2015444  61.3309099  77.6354454 106.6165317  62.2363920  76.4953722
 114.1366112  53.1070446  86.8198999 114.6548056  53.8431473  86.4945488
 113.7821245  53.4134439  87.6545758 105.7165050  57.9675127  74.9360405
 105.0234294  58.0419482  74.2800441 105.4716801  57.2035471  75.4581922
 114.3878706  49.5270728  82.3399896 114.6680460  48.8593917  82.9660322
 115.1729313  49.7199824  81.8274560 112.1912175  68.7029722  73.9024922
 111.6186142  69.3219909  73.4495394 112.7644968  69.2529084  74.4364844
 118.2587564  57.9488362  86.0871471 119.2104987  58.0486460  86.1083695
 118.0891015  57.1566631  86.5969555 116.2801944  55.0343945  86.2730872
 115.6851876  55.3148958  85.5777360 115.9951641  55.5237846  87.0447613
 115.4109434  68.9866872  75.0333504 116.3440107  68.9212434  75.2366380
 115.3232647  69.8223139  74.5748037 118.0397451  68.3032743  71.9937452
 117.9611083  67.9692606  72.8873210 118.8607118  68.7954511  71.9928924
 120.7375642  61.1694482  85.2013771 120.7051962  60.2310483  85.3873454
 121.3476266  61.2478519  84.4679595 112.5758973  60.0390535  71.2440975
 113.5218078  59.9096743  71.3129393 112.1973218  59.3005197  71.7210403
 120.8870131  57.9605525  85.2472054 120.3709179  57.1763982  85.0601983
 121.7710079  57.6324242  85.4118573 118.5480858  51.7046541  81.2067866
 118.3505679  51.3961629  82.0911198 119.1580563  52.4308180  81.3365796
 126.5552192  62.2310489  84.3419807 127.2855580  61.9695777  84.9027511
 125.9459138  61.4939211  84.3821875 124.6367489  60.3718351  84.9394259
 123.9100653  60.2374316  84.3310750 124.2214776  60.6795180  85.7450977
 112.4597666  64.0908281  92.7041632 113.3800675  64.2686880  92.8981678
 112.4247249  63.1464326  92.5521331 110.7601890  57.9640511  71.1795860
 109.8533346  57.6673624  71.2558573 111.0377871  57.6670329  70.3130146
 101.6779831  59.2846875  81.6294906 101.3582615  58.4312183  81.3369280
 101.1313259  59.4995453  82.3852874 105.4559738  62.0009316  85.3464413
 105.6745748  62.9326424  85.3652447 105.8685512  61.6417290  86.1319217
 112.3763956  52.5077401  77.3340101 111.5664684  52.1624486  77.7095347
 113.0648373  52.1984945  77.9227713 114.3054504  51.5855448  78.9564398
 114.8585543  52.0050901  79.6154421 114.5424591  50.6591196  78.9987354
 110.3287603  57.5742521  94.7367162 110.2284330  58.5236878  94.6679253
 110.1109145  57.2460760  93.8643232 109.5300675  54.8227447  71.3207839
 110.3919839  55.1482345  71.5803656 109.7151019  54.0358942  70.8080905
 101.5468091  62.9049786  83.5988028 100.8531562  62.4903739  83.0857982
 102.2941082  62.9470323  83.0021447 117.6833311  53.6955973  78.4643062
 117.1031980  54.3540777  78.0821114 117.4169244  52.8733318  78.0530480
 116.1336878  53.0961031  80.6664382 116.6336656  53.2077565  79.8578701
 116.7772486  52.7922084  81.3065191 110.1918873  61.0039660  93.5532223
 109.7085955  61.8040020  93.7596112 110.2779813  61.0147605  92.5999667
 103.4604833  62.8368040  81.4754043 103.4375521  62.9355727  80.5235926
 103.7705470  63.6833191  81.7971209 106.1192211  64.8944195  85.5900657
 107.0735465  64.8628137  85.5230589 105.9204735  64.4334819  86.4050883
 106.7091593  63.4645311  88.1571455 107.5284482  63.9589390  88.1806292
 106.9828401  62.5477279  88.1289022 116.4658189  55.8556063  77.5199410
 115.5784044  56.1405714  77.3019605 116.8812178  55.6949827  76.6726687
 119.8172725  55.8802584  81.2353750 120.5933116  56.3699037  81.5078366
 119.0920860  56.3060639  81.6925619 122.2545284  56.5930204  82.2927690
 122.8489775  56.3525940  81.5820998 122.3271868  55.8737334  82.9201226
 104.4742440  70.4363815  82.6070855 104.3396908  69.6764215  82.0408853
 104.0574502  71.1604714  82.1399644 115.6101403  65.6200738  71.6147430
 116.3137253  65.8250741  72.2305086 114.8864052  66.1877500  71.8796514
 116.4399213  61.3710599  77.7349700 116.3834414  61.8279151  76.8957333
 116.9927556  60.6101284  77.5572543 120.2504019  57.1600331  78.5599820
 119.9940953  56.7596967  79.3908028 119.6256887  57.8744125  78.4349959
 124.5616357  59.8996404  81.0671111 124.0015915  59.9689594  81.8402673
 123.9559860  59.7237389  80.3470608 107.6311566  71.3333132  82.8189298
 107.5143950  72.2778564  82.7167988 106.8104012  71.0306693  83.2075097
 117.5188100  66.0583267  73.6645890 118.3533704  65.6264466  73.4823365
 117.3572443  65.8865281  74.5922785 117.1733992  62.5615381  75.0302230
 117.1182796  62.3959652  74.0890674 116.5480048  63.2691413  75.1864419
 101.9626507  57.7983445  88.8563652 102.6085371  57.2882399  89.3450877
 101.7543658  58.5352127  89.4307077 114.4879900  64.8664292  94.3555792
 115.3571059  65.0404945  93.9942427 114.0086651  65.6858709  94.2331522
 110.4830118  52.0623490  74.6087548 110.4708788  53.0065329  74.7655819
 111.3753540  51.8793635  74.3147009 108.6566080  71.9861393  86.0345226
 109.5593326  72.0185004  86.3511721 108.4303450  71.0561844  86.0491562
 110.4119682  70.7392380  82.6955305 109.4615313  70.7394242  82.5819677
 110.7152168  69.9925115  82.1791339 114.2982237  48.6566266  78.8633485
 113.5314633  48.1024753  79.0090167 114.7092942  48.7288135  79.7247636
 106.3023998  54.9451062  92.9538666 107.1655460  54.5887867  93.1641991
 105.7289409  54.6064957  93.6414070 126.1472375  76.5752918  83.7601067
 126.7850785  76.4559666  83.0564407 126.0293218  77.5233762  83.8189019
 122.9562082  76.5280346  83.6962592 122.6180593  76.4121411  82.8083127
 123.8251850  76.1271512  83.6763598 118.8148897  78.3815823  79.6859483
 118.2513762  78.2905760  78.9175770 118.7001292  77.5615727  80.1661975
 123.4381865  77.6815198  89.6548797 123.4270505  77.2867996  88.7829301
 123.6002504  76.9481271  90.2482569 116.3613329  79.8767014  82.5243703
 117.1534621  79.5357839  82.1090002 116.6009979  79.9861990  83.4445856
 124.3948456  82.0486791  74.9973948 123.7436436  82.6340871  74.6107961
 125.1892819  82.5792985  75.0568985 118.3204083  79.1375928  75.3961082
 119.0934959  78.5904915  75.2573958 118.6729482  80.0020177  75.6075543
 120.1589126  80.4652310  88.6027981 119.8678992  81.3697941  88.4874648
 120.7946110  80.5068838  89.3172051 121.0845333  77.8429159  85.1929341
 121.6808905  77.6185181  84.4786304 121.1420304  77.1013904  85.7954789
 120.6570361  75.2968594  73.0279532 120.9095882  74.7750115  72.2662995
 119.7194920  75.1334739  73.1306215 125.7013644  74.3004372  80.8354275
 126.4876733  73.8823795  80.4844692 125.9652348  75.2050464  81.0035923
 125.8723721  79.7377223  75.5342932 125.2369554  79.8111849  76.2463837
 125.5421128  80.3270821  74.8562011 131.1022071  74.2379605  81.7387254
 131.8347243  73.6678822  81.9725083 130.3461427  73.8501206  82.1793759
 120.3766650  77.1996700  75.2303907 120.2602908  76.5241603  75.8984991
 120.4868910  76.7129074  74.4136060 122.7198191  76.6606847  78.9350596
 122.3556398  76.1337468  79.6463518 123.5765307  76.2705316  78.7617081
 128.6247491  67.9501180  86.1981862 128.2930816  68.8196590  85.9743077
 128.0293105  67.6337464  86.8775893 122.3603678  71.6896747  73.9311945
 122.5278080  72.5576983  74.2982416 122.1700847  71.8524028  73.0073234
 125.1179011  80.1513726  85.5977775 124.8179734  81.0538764  85.4893582
 124.7730070  79.8845909  86.4498928 118.5691492  76.6027522  81.6314479
 117.6441989  76.4703736  81.8392171 118.8175905  77.3821742  82.1284422
 128.5176155  72.6696266  83.2775212 127.6093032  72.6011674  82.9833973
 128.4663750  73.1468211  84.1057038 122.3392898  74.1454404  74.9158611
 122.2192524  74.5911455  75.7544092 121.6445487  74.4939722  74.3572150
 115.9300303  76.2460796  82.4658268 116.0592684  76.4995275  83.3797680
 115.2497755  76.8388504  82.1462924 120.0999791  86.9158046  78.5648743
 120.0223820  87.8665871  78.6437223 119.4961434  86.5703918  79.2223669
 122.5917020  74.0885911  91.2210110 121.8150354  74.6479831  91.2112974
 123.2307583  74.5742694  91.7424980 130.3837801  70.8712704  85.0553086
 129.7412181  71.1645237  84.4092881 129.8792729  70.7565624  85.8606283
 128.0377965  74.6175877  75.7438945 128.9495821  74.8503264  75.5686643
 127.5287612  75.2012922  75.1814024 120.8463393  76.8971365  90.7828077
 121.5878077  77.4356409  90.5062900 120.1400378  77.5237653  90.9399628
 126.3218732  79.0400505  89.3800238 126.7302088  78.5982916  88.6354870
 125.5995994  78.4653133  89.6334431 122.6749802  73.9773112  86.7533795
 123.5210998  74.4012525  86.8968444 122.6148440  73.3206736  87.4472358
 126.6447547  79.6001696  83.1352527 126.0156409  79.7647410  82.4328595
 126.2573209  80.0143305  83.9063491 130.5236779  80.5356134  80.4896891
 129.8387817  80.9155035  79.9393924 130.6080628  81.1451460  81.2228838
 125.8249248  71.6377480  88.4114969 125.5810180  72.3919541  87.8749244
 126.1009178  72.0162828  89.2462216 127.7787710  78.1816093  87.0892234
 127.9904606  78.8247853  86.4126615 127.7317459  77.3478409  86.6214164
 125.3813939  70.7933913  83.9928806 124.5198418  71.0915167  84.2845544
 125.4076374  71.0104312  83.0609839 122.1975509  79.3376104  80.4002612
 122.6613854  79.6163807  79.6107235 121.9332307  78.4359548  80.2175703
 119.0899590  78.8847585  83.3382375 119.6600947  79.3134854  82.6999860
 119.6807702  78.6030170  84.0366561 121.1344395  75.4599256  77.2092177
 121.8368438  75.9120300  77.6766104 120.8025023  74.8183075  77.8372070
 119.5824756  74.0511013  91.5843387 118.9523417  74.7327294  91.8178783
 119.4760844  73.9394094  90.6396525 114.8769729  73.7182809  82.5109311
 114.0868783  73.9740337  82.0349421 115.3680976  74.5331147  82.6161351
 128.8933538  81.0588048  85.2614592 129.7150982  80.6568235  84.9797273
 128.8895941  80.9556282  86.2130707 116.8284474  74.0827388  79.4692787
 116.0315637  74.1946082  79.9876283 116.6010066  74.4214040  78.6033678
 122.6590142  80.6072091  87.4175302 122.7234574  81.0692499  88.2533474
 121.9501066  79.9769456  87.5457612 113.1607432  73.9713299  84.9424302
 113.4115470  74.8560309  85.2081877 113.6966980  73.7917901  84.1699393
 136.9839531  77.4026797  81.6099563 136.2303240  76.8334195  81.4543567
 137.1187073  77.3689461  82.5570198 122.3738159  82.2740199  77.2854282
 122.2383834  83.1191735  77.7139130 122.9147972  82.4759476  76.5220216
 118.8605499  68.3531779  93.9468638 118.4672445  67.7997977  94.6216282
 119.6771639  68.6642357  94.3375155 115.8267557  79.7915637  77.8582207
 116.3392077  80.5858887  78.0087772 116.4790270  79.0941927  77.7915809
 117.6362442  82.9081393  79.9404961 117.8129070  83.8299358  79.7525945
 118.4319275  82.5939812  80.3699340 121.7773460  69.7689658  91.5388894
 122.5183173  70.3696811  91.4593357 122.0091383  69.0267296  90.9806937
 116.9214798  74.9546025  89.8167124 116.8068313  74.0531282  90.1174223
 116.0659316  75.2009722  89.4651940 124.0006636  82.8963765  91.4154624
 123.5570490  82.1100144  91.0975529 124.6623849  83.0842916  90.7498515
 118.7593757  84.4259567  85.9415303 119.3101182  84.2976630  85.1692297
 117.9205233  84.7254456  85.5910196 126.0987874  83.1766565  89.4436026
 126.0806349  83.9975446  88.9516295 127.0207794  83.0520640  89.6686167
 122.5560928  80.6910695  90.2859534 123.0889265  79.9298983  90.0558842
 122.0275009  80.3984347  91.0283689 125.7230623  65.7970761  85.8153176
 125.3794892  66.6872402  85.7392286 126.0909586  65.6072418  84.9522761
 113.7916474  78.1204291  78.6341778 114.6291696  78.5301300  78.4175486
 113.9694741  77.1803733  78.6041972 125.6880906  75.7879372  74.3225611
 125.1727529  76.5583976  74.5613998 125.4158214  75.1144508  74.9458672
 123.2728017  70.6329073  79.3810849 122.4169613  70.2435923  79.2016488
 123.6854969  70.7121033  78.5210635 124.8027163  68.1675416  83.7802409
 124.2991959  68.1305551  82.9670214 125.0957770  69.0768159  83.8399066
 121.0470049  68.2514146  82.7868591 121.9123046  68.0556954  82.4274480
 121.1147558  68.0224497  83.7137948 130.6615180  78.5411726  76.2578784
 129.8844623  78.2022886  75.8133947 131.3406661  78.5464350  75.5833749
 125.4767209  73.6606464  76.1485392 125.1717345  73.9752613  76.9995535
 126.4297651  73.7387884  76.1912725 123.9213641  79.8196687  77.7978346
 123.3935002  79.0849447  77.4851584 123.4201144  80.5971364  77.5518314
 128.9006487  78.0145708  82.9145392 128.2430161  78.7044969  83.0025521
 129.7046886  78.4042140  83.2579379 118.6532368  70.4816354  80.1584958
 119.2276120  70.2591535  79.4258151 119.2403351  70.5505048  80.9113559
 127.7111946  76.3690080  80.9649334 128.2243827  77.0020072  81.4671044
 128.3613169  75.7691276  80.5992694 120.9555036  67.3557602  78.8860027
 120.3019448  67.0406620  78.2616642 120.9135510  66.7333343  79.6119850
 124.9734320  86.3474405  73.7210005 124.2996019  86.6506101  74.3294963
 125.3600142  87.1503485  73.3715462 124.1892776  73.8439536  83.2107675
 123.2715338  74.0654483  83.0529363 124.6052920  73.9185846  82.3519382
 124.9727824  75.2430952  78.3410355 125.7199643  75.7552349  78.0317477
 125.2419414  74.9215004  79.2014749 123.2454474  77.7389492  75.3237309
 122.3365694  77.4548525  75.4209779 123.2749558  78.1588571  74.4640616
 128.4773742  81.3496082  79.0928477 128.0236069  80.5086992  79.1493667
 127.8467709  81.9857480  79.4303257 127.4206661  72.2788068  80.3229144
 126.6829418  71.7665454  80.6539387 127.6733435  71.8388449  79.5112421
 126.9206681  83.1872579  80.0278295 127.2129655  83.7477636  79.3090661
 127.4305302  83.4801140  80.7831454 127.5218289  65.0564320  80.9170914
 127.8277166  64.1961683  80.6296829 128.2470894  65.6481940  80.7169907
 113.8142645  75.4595006  79.3052511 113.6167045  74.8664367  78.5803578
 113.2589309  75.1547217  80.0228450 121.7939368  75.3518113  81.4247105
 121.8487978  74.3991949  81.3489581 120.9830570  75.5077552  81.9088403
 122.9430562  79.2798236  72.6625388 122.5049992  78.5634095  72.2031025
 123.6841003  79.5074351  72.1010479 119.7331728  73.9695173  79.1837483
 118.9199594  74.2689343  79.5902676 120.2290723  73.5750861  79.9011966
 121.8840306  83.9652930  81.1171748 121.8416485  84.1913776  80.1880280
 122.8003005  83.7316304  81.2657549 125.3305940  74.4336997  88.0152377
 125.6855328  74.6608470  88.8746843 125.9778071  74.7655374  87.3929633
 131.0603677  77.5555433  78.7201706 130.9221576  77.7457029  77.7922896
 130.7039896  78.3174816  79.1769758 119.2245803  71.5413528  84.7998718
 119.8645182  71.4002287  84.1021682 118.3923334  71.2548042  84.4237320
 131.0873057  79.6231960  83.7312978 131.5209563  79.5307249  84.5796032
 131.8004637  79.5989461  83.0932994 120.0006107  80.8415959  80.9133711
 120.7946706  80.3466279  80.7116286 119.2897799  80.3133822  80.5501416
 124.8200952  83.2234054  85.2646078 124.8737974  83.7924990  86.0323794
 123.9515733  83.3935939  84.9000116 116.2274420  71.5113853  79.5771705
 116.4881237  72.4259186  79.4680866 117.0491592  71.0438296  79.7268318
 117.6999345  72.9251610  86.7470530 118.3722398  72.7168973  86.0983179
 116.8729131  72.7273696  86.3075762 131.9488606  79.6655661  86.2645863
 132.1424496  80.5701471  86.5105138 131.8489224  79.2063080  87.0984448
 123.6024917  69.5513551  88.7636191 122.9552832  70.2503501  88.6700667
 124.3725932  69.9849695  89.1312439 127.0103715  79.8162403  91.8386744
 126.8589221  79.5872955  90.9216828 127.0008394  80.7733005  91.8518089
 123.7789051  77.3894316  86.8233010 124.7081111  77.5405476  86.6501978
 123.3580081  77.4778337  85.9681657 122.5777383  81.4144981  84.5931548
 122.4388469  81.0463765  85.4657486 121.7891979  81.9292620  84.4215506
 123.1725535  86.5154077  75.9357084 123.3477291  86.0442120  76.7502707
 122.4858323  87.1419843  76.1638345 124.1282598  80.7926583  81.9820386
 123.7932431  80.7527353  82.8778036 123.6286544  80.1271299  81.5090796
 118.1026842  76.1994213  87.5072967 117.9646640  75.4674452  88.1084506
 119.0131766  76.1103113  87.2257155 127.0641790  78.1382618  72.2557445
 126.4470960  77.4129446  72.1590498 126.5958278  78.8991978  71.9124520
 120.7309143  75.9114173  86.9956647 121.4408761  75.2707365  86.9543265
 120.6878451  76.1627068  87.9182827 128.7195921  82.8481526  89.9163226
 128.6608468  82.1640746  89.2493809 129.1215440  83.5900516  89.4643852
 119.4438077  72.8979391  88.8152286 118.9075434  72.4470129  89.4673882
 118.8554785  73.0325299  88.0722750 117.7386620  89.6643440  82.7096945
 117.9783219  90.2961964  83.3875963 116.8955817  89.3131480  82.9962304
 128.7213329  80.8121110  88.1477205 127.8340108  80.4747032  88.2703604
 129.2911880  80.0804141  88.3845971 110.3742476  77.1445202  81.4720257
 111.0613516  76.8306932  80.8841272 110.2190605  78.0486566  81.1987508
 115.1777198  72.0335398  85.9005281 115.0935387  71.4261068  85.1655690
 114.3559904  72.5244417  85.9014777 122.2514482  85.4722562  85.1138449
 122.1784654  86.2777534  85.6257753 121.8091875  85.6714528  84.2886470
 122.0404262  84.7094332  78.6241270 121.2571784  85.2516013  78.7179495
 122.7397007  85.2268312  79.0235511 125.3500912  70.5188962  81.2675476
 125.8469611  69.7658924  80.9476546 124.5787893  70.5553278  80.7018685
 133.2030669  76.2229327  82.9093767 133.1920546  77.1054043  82.5387700
 132.3348049  75.8700878  82.7148304 124.7113166  85.3709396  87.2696607
 125.4241138  86.0056861  87.1972509 124.2203194  85.4673262  86.4536609
 126.4330693  79.2760649  78.8413899 125.4986971  79.3962111  78.6718603
 126.6107361  78.3733116  78.5773909 121.9335881  72.6606345  80.9947160
 121.5633668  72.1077385  81.6828066 122.4294973  72.0564478  80.4422160
 129.8203244  75.1177968  79.3763933 130.2863696  75.9505960  79.3024236
 130.2710744  74.6522950  80.0809192 119.7625079  83.1203840  88.0902178
 120.4634539  83.7540323  88.2431572 119.2920194  83.4618571  87.3297817
 127.8879475  81.4621790  76.3750085 128.1639319  81.3478384  77.2843959
 127.0183974  81.0639274  76.3362258 127.7919907  67.4858555  83.4154834
 126.8782986  67.7162782  83.5837041 128.2213008  67.5696999  84.2668867
 127.5626365  75.6748447  85.9154728 126.9097815  75.9224355  85.2607181
 127.9406745  74.8612585  85.5817206 124.5233539  85.7108140  80.0182899
 124.7055934  84.8929796  80.4810651 125.3466525  85.9275833  79.5807789
 124.8575705  84.6376326  77.2797947 125.3863471  84.1268780  76.6668109
 125.1203924  84.3218856  78.1443480 123.6113938  76.4168258  92.4020766
 122.9354575  76.3162388  93.0723141 124.4341572  76.2607472  92.8656763
 115.3592797  82.6540195  85.0233281 115.9446234  81.9083883  85.1561185
 115.1617636  82.9644152  85.9069945 118.2131452  85.6891442  80.0395723
 117.5441828  86.1737570  79.5559763 118.0744322  85.9360663  80.9539102
 109.9510452  75.2245795  83.7437724 109.9894552  74.6909386  84.5374842
 109.4450745  74.6981001  83.1248701 122.3536721  87.7235186  86.6378382
 122.9055029  87.8866807  87.4027467 122.6942915  88.3139624  85.9658406
 117.3301214  70.0710336  87.2400266 117.3942541  70.9325166  86.8277664
 117.2668335  69.4584337  86.5072625 116.8053487  72.1433468  90.8873301
 117.4325526  71.7610545  91.5010825 115.9481406  71.9247670  91.2528993
 127.2047595  82.5496443  92.4927036 127.7487499  83.1626402  91.9981991
 126.6234440  83.1076022  93.0094049 113.5819030  73.9509897  76.8191655
 113.8772471  73.0420576  76.7658709 112.6807065  73.9297637  76.4972658
 125.4905108  85.6717161  83.6242064 125.3656248  84.8706901  83.1153009
 126.1484199  86.1663355  83.1356034 117.1113277  72.0265894  82.8019204
 116.3899862  72.6401862  82.6626677 117.9006532  72.5623659  82.7235850
 127.5540017  83.4726181  85.2521614 126.6070352  83.3531533  85.1799941
 127.9022790  82.5848679  85.3347875 119.9139590  69.3620320  89.0759856
 120.4373992  69.6082617  89.8386165 119.6951923  70.1940355  88.6562993
 115.3106871  71.6323995  76.9430980 114.9819577  70.7521374  76.7606086
 115.6646242  71.5771664  77.8307370 124.5586450  83.2678898  81.4525966
 124.4111412  82.3395605  81.6333536 125.3839944  83.2898988  80.9683041
 118.4248694  71.9196965  77.3106458 118.7644767  72.4482886  76.5885067
 118.8720815  72.2577371  78.0865025 128.1620572  84.0907456  82.5390839
 129.0867119  83.8850318  82.4015290 127.9935875  83.8423857  83.4480180
 121.1192135  70.3034015  86.7609526 120.7788956  69.5041828  87.1630206
 120.4131141  70.6035726  86.1886359 121.7708607  67.3883328  85.2136849
 122.5934676  66.9143806  85.0915740 122.0146670  68.1673812  85.7135536
 120.4116841  70.4171586  75.5099751 121.1325204  70.7952839  75.0063468
 119.7882146  71.1360463  75.6134729 124.5547964  71.1216735  76.4458083
 124.7711579  72.0041373  76.1446911 124.0742031  70.7302949  75.7163725
 119.2947186  74.0802448  83.0228828 119.1491766  74.3942752  83.9153109
 118.8172389  74.6987349  82.4699726 121.1543569  71.0704996  83.0709717
 121.1405137  70.1746090  82.7342015 121.8715997  71.0775660  83.7048003
 123.0069699  71.5042337  85.1162845 122.7487477  72.4259407  85.1147175
 122.4754740  71.1072771  85.8063309 127.9515888  84.6093124  77.8952930
 128.1252766  84.0439546  77.1426783 128.4444779  85.4094019  77.7132420
 113.7692848  76.6207793  85.9616489 113.2246316  77.3967601  86.0936763
 114.6472198  76.9678597  85.8035610 120.5580465  69.9519377  78.3397288
 120.6796376  69.0236023  78.5388175 120.2682507  69.9658063  77.4275603
 123.4271655  67.6374287  81.4764007 123.4493352  67.7013620  80.5215987
 123.8439714  66.7978796  81.6704514 133.8055279  77.3729547  79.5143230
 134.2486425  76.6236872  79.1162353 132.9281790  77.3639683  79.1316962
 128.9391061  83.9259888  74.9949829 129.6341965  84.5466581  75.2137143
 129.2814211  83.0755239  75.2702206 114.5558870  75.7477689  88.8546646
 113.8140606  75.8960324  89.4411276 114.2351614  76.0085955  87.9913395
 130.8382484  81.3759594  76.5237159 131.3633808  81.7146866  75.7986479
 130.7504836  80.4406609  76.3400294 122.5002532  85.2893667  88.6527036
 122.8089659  85.0442814  89.5249735 123.2978014  85.4940306  88.1645906
 122.5223144  87.4431577  80.8832412 122.0828135  86.9507956  81.5765269
 123.2731261  86.9004545  80.6424488 115.0015483  83.6343118  80.8857041
 115.8273503  83.3346890  80.5055684 114.6509535  82.8650740  81.3346829
 119.9697017  82.9869586  82.9554714 119.3477026  82.3240291  82.6556942
 120.6401883  83.0130718  82.2728362 113.2024088  81.5529444  81.8445974
 112.3655997  81.1251619  81.6629975 113.1747734  81.7461888  82.7816765
 120.0421544  71.4651374  92.5487220 120.0909700  72.3413497  92.1664990
 120.5844058  70.9228767  91.9758863 130.5276390  82.0092497  91.8288357
 129.7371933  81.9916636  91.2892857 130.2909744  82.5480791  92.5837394
 130.6474265  78.8584964  89.1421086 130.6972270  78.6934971  90.0836609
 130.5388188  77.9912223  88.7518967 119.5310523  81.5373509  76.4313175
 119.6798644  82.2208974  75.7779847 120.3376967  81.5178599  76.9462630
 127.9378027  74.8415892  90.4580392 128.8387890  74.7022357  90.1664390
 128.0126002  75.0070347  91.3978570 122.2720833  72.2182747  89.3033579
 121.4024142  72.5116313  89.0316167 122.5080313  72.8023192  90.0240842
 132.1492462  81.2781905  89.3863107 131.8577270  81.6411886  90.2226568
 131.5364593  80.5648914  89.2076439 133.3488144  78.8434785  81.9065678
 134.1835035  79.2824589  82.0703238 133.4847273  78.3673438  81.0873923
 130.3979650  76.4014520  87.8543165 130.8733771  76.5942166  87.0462017
 129.4745215  76.4573706  87.6086549 117.2863156  77.5638687  77.4374244
 117.0409198  76.6601017  77.6354454 117.4559071  77.5655837  76.4953722
 124.9759866  68.4362363  86.8198999 125.4941810  69.1723390  86.4945488
 124.6214999  68.7426357  87.6545758 125.2272461  64.8562646  82.3399896
 125.5074214  64.1885835  82.9660322 126.0123067  65.0491742  81.8274560
 123.0305929  84.0321640  73.9024922 122.4579896  84.6511827  73.4495394
 123.6038723  84.5821002  74.4364844 129.0981319  73.2780280  86.0871471
 130.0498742  73.3778378  86.1083695 128.9284769  72.4858549  86.5969555
 127.1195698  70.3635863  86.2730872 126.5245630  70.6440876  85.5777360
 126.8345395  70.8529764  87.0447613 126.2503189  84.3158790  75.0333504
 127.1833862  84.2504352  75.2366380 126.1626402  85.1515057  74.5748037
 128.8791205  83.6324660  71.9937452 128.8004837  83.2984524  72.8873210
 129.7000872  84.1246428  71.9928924 131.5769397  76.4986400  85.2013771
 131.5445717  75.5602400  85.3873454 132.1870020  76.5770436  84.4679595
 131.7263885  73.2897443  85.2472054 131.2102934  72.5055900  85.0601983
 132.6103834  72.9616160  85.4118573 129.3874612  67.0338459  81.2067866
 129.1899433  66.7253547  82.0911198 129.9974318  67.7600098  81.3365796
 135.4761244  75.7010269  84.9394259 134.7494407  75.5666234  84.3310750
 135.0608531  76.0087098  85.7450977 123.2991420  79.4200199  92.7041632
 124.2194430  79.5978798  92.8981678 123.2641003  78.4756244  92.5521331
 121.5995645  73.2932429  71.1795860 120.6927100  72.9965542  71.2558573
 121.8771626  72.9962247  70.3130146 112.5173585  74.6138792  81.6294906
 112.1976369  73.7604101  81.3369280 111.9707013  74.8287371  82.3852874
 116.2953493  77.3301233  85.3464413 116.5139502  78.2618341  85.3652447
 116.7079266  76.9709208  86.1319217 123.2157710  67.8369319  77.3340101
 122.4058439  67.4916404  77.7095347 123.9042127  67.5276862  77.9227713
 125.1448259  66.9147366  78.9564398 125.6979297  67.3342819  79.6154421
 125.3818345  65.9883114  78.9987354 121.1681358  72.9034439  94.7367162
 121.0678085  73.8528796  94.6679253 120.9502900  72.5752678  93.8643232
 120.3694429  70.1519364  71.3207839 121.2313593  70.4774263  71.5803656
 120.5544773  69.3650860  70.8080905 112.3861845  78.2341704  83.5988028
 111.6925316  77.8195657  83.0857982 113.1334836  78.2762240  83.0021447
 128.5227066  69.0247891  78.4643062 127.9425735  69.6832695  78.0821114
 128.2562998  68.2025235  78.0530480 126.9730632  68.4252948  80.6664382
 127.4730411  68.5369483  79.8578701 127.6166240  68.1214001  81.3065191
 121.0312628  76.3331578  93.5532223 120.5479710  77.1331938  93.7596112
 121.1173567  76.3439523  92.5999667 114.2998588  78.1659958  81.4754043
 114.2769276  78.2647645  80.5235926 114.6099224  79.0125108  81.7971209
 116.9585965  80.2236113  85.5900657 117.9129219  80.1920055  85.5230589
 116.7598489  79.7626736  86.4050883 117.5485348  78.7937229  88.1571455
 118.3678237  79.2881307  88.1806292 117.8222155  77.8769197  88.1289022
 127.3051944  71.1847981  77.5199410 126.4177799  71.4697632  77.3019605
 127.7205933  71.0241744  76.6726687 130.6566480  71.2094502  81.2353750
 131.4326870  71.6990954  81.5078366 129.9314614  71.6352556  81.6925619
 133.0939039  71.9222121  82.2927690 133.6883529  71.6817857  81.5820998
 133.1665622  71.2029252  82.9201226 115.3136194  85.7655732  82.6070855
 115.1790662  85.0056133  82.0408853 114.8968257  86.4896632  82.1399644
 126.4495157  80.9492656  71.6147430 127.1531007  81.1542658  72.2305086
 125.7257806  81.5169418  71.8796514 127.2792968  76.7002517  77.7349700
 127.2228169  77.1571068  76.8957333 127.8321310  75.9393202  77.5572543
 131.0897773  72.4892249  78.5599820 130.8334708  72.0888885  79.3908028
 130.4650641  73.2036043  78.4349959 135.4010111  75.2288322  81.0671111
 134.8409669  75.2981511  81.8402673 134.7953615  75.0529307  80.3470608
 118.4705320  86.6625049  82.8189298 118.3537704  87.6070482  82.7167988
 117.6497766  86.3598611  83.2075097 128.3581855  81.3875185  73.6645890
 129.1927459  80.9556383  73.4823365 128.1966198  81.2157199  74.5922785
 128.0127747  77.8907298  75.0302230 127.9576551  77.7251570  74.0890674
 127.3873802  78.5983331  75.1864419 112.8020262  73.1275363  88.8563652
 113.4479125  72.6174317  89.3450877 112.5937413  73.8644044  89.4307077
 125.3273654  80.1956210  94.3555792 126.1964814  80.3696862  93.9942427
 124.8480406  81.0150627  94.2331522 121.3223872  67.3915407  74.6087548
 121.3102542  68.3357247  74.7655819 122.2147294  67.2085553  74.3147009
 119.4959834  87.3153311  86.0345226 120.3987081  87.3476921  86.3511721
 119.2697204  86.3853762  86.0491562 121.2513436  86.0684298  82.6955305
 120.3009067  86.0686159  82.5819677 121.5545922  85.3217032  82.1791339
 125.1375992  63.9858184  78.8633485 124.3708388  63.4316671  79.0090167
 125.5486697  64.0580053  79.7247636 117.1417753  70.2742980  92.9538666
 118.0049214  69.9179785  93.1641991 116.5683163  69.9356875  93.6414070
 133.7955836  91.8572264  83.6962592 133.4574348  91.7413329  82.8083127
 134.6645604  91.4563429  83.6763598 129.6542652  93.7107741  79.6859483
 129.0907517  93.6197678  78.9175770 129.5395047  92.8907645  80.1661975
 134.2775619  93.0107116  89.6548797 134.2664260  92.6159914  88.7829301
 134.4396259  92.2773188  90.2482569 127.2007084  95.2058932  82.5243703
 127.9928376  94.8649757  82.1090002 127.4403734  95.3153907  83.4445856
 135.2342210  97.3778708  74.9973948 134.5830190  97.9632789  74.6107961
 136.0286573  97.9084903  75.0568985 129.1597838  94.4667845  75.3961082
 129.9328714  93.9196833  75.2573958 129.5123236  95.3312095  75.6075543
 130.9982880  95.7944228  88.6027981 130.7072746  96.6989859  88.4874648
 131.6339865  95.8360755  89.3172051 131.9239087  93.1721076  85.1929341
 132.5202659  92.9477099  84.4786304 131.9814059  92.4305822  85.7954789
 131.4964115  90.6260512  73.0279532 131.7489636  90.1042033  72.2662995
 130.5588675  90.4626657  73.1306215 136.5407398  89.6296290  80.8354275
 137.3270487  89.2115713  80.4844692 136.8046103  90.5342382  81.0035923
 136.7117476  95.0669140  75.5342932 136.0763309  95.1403767  76.2463837
 136.3814882  95.6562739  74.8562011 131.2160404  92.5288617  75.2303907
 131.0996662  91.8533521  75.8984991 131.3262664  92.0420991  74.4136060
 133.5591945  91.9898765  78.9350596 133.1950152  91.4629386  79.6463518
 134.4159061  91.5997234  78.7617081 133.1997432  87.0188664  73.9311945
 133.3671834  87.8868901  74.2982416 133.0094601  87.1815946  73.0073234
 135.9572765  95.4805643  85.5977775 135.6573488  96.3830682  85.4893582
 135.6123825  95.2137826  86.4498928 129.4085247  91.9319440  81.6314479
 128.4835743  91.7995654  81.8392171 129.6569660  92.7113659  82.1284422
 133.1786653  89.4746322  74.9158611 133.0586278  89.9203373  75.7544092
 132.4839241  89.8231639  74.3572150 126.7694058  91.5752714  82.4658268
 126.8986439  91.8287193  83.3797680 126.0891509  92.1680422  82.1462924
 130.9393545 102.2449964  78.5648743 130.8617575 103.1957789  78.6437223
 130.3355189 101.8995836  79.2223669 133.4310775  89.4177829  91.2210110
 132.6544109  89.9771749  91.2112974 134.0701338  89.9034612  91.7424980
 131.6857147  92.2263282  90.7828077 132.4271832  92.7648326  90.5062900
 130.9794133  92.8529571  90.9399628 137.1612487  94.3692423  89.3800238
 137.5695843  93.9274833  88.6354870 136.4389748  93.7945050  89.6334431
 133.5143557  89.3065030  86.7533795 134.3604752  89.7304443  86.8968444
 133.4542194  88.6498654  87.4472358 137.4841301  94.9293613  83.1352527
 136.8550164  95.0939328  82.4328595 137.0966964  95.3435223  83.9063491
 136.6643002  86.9669398  88.4114969 136.4203934  87.7211458  87.8749244
 136.9402933  87.3454746  89.2462216 136.2207694  86.1225831  83.9928806
 135.3592173  86.4207085  84.2845544 136.2470129  86.3396230  83.0609839
 133.0369263  94.6668022  80.4002612 133.5007609  94.9455724  79.6107235
 132.7726061  93.7651466  80.2175703 129.9293344  94.2139503  83.3382375
 130.4994701  94.6426771  82.6999860 130.5201456  93.9322088  84.0366561
 131.9738149  90.7891174  77.2092177 132.6762193  91.2412218  77.6766104
 131.6418778  90.1474993  77.8372070 130.4218511  89.3802931  91.5843387
 129.7917171  90.0619211  91.8178783 130.3154599  89.2686012  90.6396525
 125.7163483  89.0474727  82.5109311 124.9262537  89.3032255  82.0349421
 126.2074731  89.8623064  82.6161351 127.6678229  89.4119306  79.4692787
 126.8709392  89.5238000  79.9876283 127.4403821  89.7505958  78.6033678
 133.4983896  95.9364009  87.4175302 133.5628329  96.3984416  88.2533474
 132.7894820  95.3061374  87.5457612 124.0001186  89.3005217  84.9424302
 124.2509225  90.1852227  85.2081877 124.5360735  89.1209819  84.1699393
 133.2131914  97.6032117  77.2854282 133.0777589  98.4483652  77.7139130
 133.7541726  97.8051394  76.5220216 129.6999254  83.6823696  93.9468638
 129.3066199  83.1289895  94.6216282 130.5165394  83.9934275  94.3375155
 126.6661311  95.1207555  77.8582207 127.1785832  95.9150805  78.0087772
 127.3184024  94.4233845  77.7915809 128.4756196  98.2373311  79.9404961
 128.6522824  99.1591276  79.7525945 129.2713030  97.9231730  80.3699340
 132.6167215  85.0981575  91.5388894 133.3576928  85.6988729  91.4593357
 132.8485137  84.3559213  90.9806937 127.7608553  90.2837943  89.8167124
 127.6462068  89.3823200  90.1174223 126.9053070  90.5301639  89.4651940
 134.8400390  98.2255683  91.4154624 134.3964245  97.4392062  91.0975529
 135.5017604  98.4134834  90.7498515 129.5987512  99.7551485  85.9415303
 130.1494937  99.6268548  85.1692297 128.7598987 100.0546374  85.5910196
 133.3954683  96.0202612  90.2859534 133.9283019  95.2590901  90.0558842
 132.8668764  95.7276264  91.0283689 136.5624378  81.1262678  85.8153176
 136.2188647  82.0164320  85.7392286 136.9303340  80.9364336  84.9522761
 124.6310228  93.4496209  78.6341778 125.4685450  93.8593217  78.4175486
 124.8088496  92.5095651  78.6041972 136.5274660  91.1171289  74.3225611
 136.0121284  91.8875894  74.5613998 136.2551969  90.4436426  74.9458672
 134.1121771  85.9620990  79.3810849 133.2563368  85.5727841  79.2016488
 134.5248723  86.0412951  78.5210635 135.6420918  83.4967334  83.7802409
 135.1385714  83.4597469  82.9670214 135.9351525  84.4060076  83.8399066
 131.8863804  83.5806063  82.7868591 132.7516801  83.3848872  82.4274480
 131.9541313  83.3516415  83.7137948 136.3160963  88.9898382  76.1485392
 136.0111099  89.3044531  76.9995535 137.2691406  89.0679801  76.1912725
 134.7607395  95.1488605  77.7978346 134.2328757  94.4141364  77.4851584
 134.2594898  95.9263281  77.5518314 129.4926123  85.8108271  80.1584958
 130.0669875  85.5883453  79.4258151 130.0797105  85.8796966  80.9113559
 129.8195710  87.8412732  74.1780843 128.9833022  88.1787419  74.4990118
 129.6800480  87.7061712  73.2407980 131.7948791  82.6849520  78.8860027
 131.1413203  82.3698537  78.2616642 131.7529265  82.0625261  79.6119850
 132.9059995  92.9668815  70.8013319 131.9987057  92.7358069  71.0004468
 133.4031027  92.1706434  70.9887301 135.8128074 101.6766322  73.7210005
 135.1389773 101.9798019  74.3294963 136.1993896 102.4795403  73.3715462
 135.0286531  89.1731454  83.2107675 134.1109092  89.3946401  83.0529363
 135.4446675  89.2477764  82.3519382 135.8121579  90.5722869  78.3410355
 136.5593398  91.0844267  78.0317477 136.0813168  90.2506922  79.2014749
 134.0848229  93.0681410  75.3237309 133.1759448  92.7840443  75.4209779
 134.1143313  93.4880489  74.4640616 124.6536399  90.7886924  79.3052511
 124.4560799  90.1956285  78.5803578 124.0983063  90.4839134  80.0228450
 132.6333123  90.6810031  81.4247105 132.6881733  89.7283867  81.3489581
 131.8224325  90.8369470  81.9088403 133.7824317  94.6090154  72.6625388
 133.3443747  93.8926013  72.2031025 134.5234758  94.8366269  72.1010479
 130.5725483  89.2987090  79.1837483 129.7593348  89.5981261  79.5902676
 131.0684477  88.9042779  79.9011966 132.7234061  99.2944847  81.1171748
 132.6810240  99.5205694  80.1880280 133.6396760  99.0608222  81.2657549
 136.1699695  89.7628915  88.0152377 136.5249082  89.9900388  88.8746843
 136.8171826  90.0947292  87.3929633 130.0639558  86.8705446  84.7998718
 130.7038937  86.7294205  84.1021682 129.2317088  86.5839959  84.4237320
 130.8399862  96.1707876  80.9133711 131.6340460  95.6758196  80.7116286
 130.1291554  95.6425739  80.5501416 135.6594706  98.5525972  85.2646078
 135.7131728  99.1216908  86.0323794 134.7909487  98.7227857  84.9000116
 127.1482625  90.3150958  76.9893464 126.2180213  90.2535414  77.2063426
 127.2440097  89.7926911  76.1930105 127.0668174  86.8405771  79.5771705
 127.3274991  87.7551104  79.4680866 127.8885346  86.3730213  79.7268318
 128.5393099  88.2543528  86.7470530 129.2116153  88.0460890  86.0983179
 127.7122886  88.0565614  86.3075762 134.4418671  84.8805469  88.7636191
 133.7946586  85.5795419  88.6700667 135.2119687  85.3141613  89.1312439
 134.6182806  92.7186234  86.8233010 135.5474866  92.8697394  86.6501978
 134.1973836  92.8070255  85.9681657 133.4171138  96.7436898  84.5931548
 133.2782223  96.3755683  85.4657486 132.6285734  97.2584538  84.4215506
 134.0119289 101.8445995  75.9357084 134.1871045 101.3734038  76.7502707
 133.3252078 102.4711761  76.1638345 134.9676353  96.1218501  81.9820386
 134.6326185  96.0819271  82.8778036 134.4680298  95.4563217  81.5090796
 128.9420597  91.5286131  87.5072967 128.8040395  90.7966370  88.1084506
 129.8525520  91.4395031  87.2257155 131.5702897  91.2406090  86.9956647
 132.2802516  90.5999283  86.9543265 131.5272205  91.4918985  87.9182827
 130.2831831  88.2271308  88.8152286 129.7469188  87.7762047  89.4673882
 129.6948540  88.3617217  88.0722750 128.5780375 104.9935358  82.7096945
 128.8176973 105.6253882  83.3875963 127.7349571 104.6423398  82.9962304
 129.6934090  87.6859960  71.3778750 128.8163557  87.5648760  71.0140996
 130.1691843  86.8946038  71.1257638 121.2136230  92.4737119  81.4720257
 121.9007270  92.1598849  80.8841272 121.0584359  93.3778484  81.1987508
 126.0170953  87.3627316  85.9005281 125.9329141  86.7552985  85.1655690
 125.1953659  87.8536334  85.9014777 133.0908237 100.8014480  85.1138449
 133.0178408 101.6069451  85.6257753 132.6485630 101.0006446  84.2886470
 132.8798016 100.0386250  78.6241270 132.0965538 100.5807930  78.7179495
 133.5790761 100.5560230  79.0235511 136.1894666  85.8480879  81.2675476
 136.6863366  85.0950842  80.9476546 135.4181648  85.8845196  80.7018685
 135.5506920 100.7001314  87.2696607 136.2634892 101.3348779  87.1972509
 135.0596949 100.7965180  86.4536609 137.2724447  94.6052567  78.8413899
 136.3380726  94.7254029  78.6718603 137.4501116  93.7025033  78.5773909
 132.7729635  87.9898262  80.9947160 132.4027423  87.4369303  81.6828066
 133.2688728  87.3856396  80.4422160 130.6018834  98.4495757  88.0902178
 131.3028293  99.0832240  88.2431572 130.1313949  98.7910489  87.3297817
 135.3627294 101.0400058  80.0182899 135.5449688 100.2221714  80.4810651
 136.1860280 101.2567750  79.5807789 135.6969459  99.9668243  77.2797947
 136.2257225  99.4560698  76.6668109 135.9597679  99.6510773  78.1443480
 134.4507693  91.7460176  92.4020766 133.7748330  91.6454305  93.0723141
 135.2735327  91.5899390  92.8656763 126.1986552  97.9832113  85.0233281
 126.7839989  97.2375800  85.1561185 126.0011390  98.2936069  85.9069945
 129.0525207 101.0183360  80.0395723 128.3835582 101.5029488  79.5559763
 128.9138077 101.2652580  80.9539102 120.7904206  90.5537713  83.7437724
 120.8288306  90.0201303  84.5374842 120.2844499  90.0272918  83.1248701
 133.1930476 103.0527103  86.6378382 133.7448784 103.2158725  87.4027467
 133.5336669 103.6431541  85.9658406 128.1694969  85.4002253  87.2400266
 128.2336295  86.2617084  86.8277664 128.1062089  84.7876255  86.5072625
 127.6447241  87.4725386  90.8873301 128.2719280  87.0902463  91.5010825
 126.7875160  87.2539588  91.2528993 124.4212784  89.2801815  76.8191655
 124.7166225  88.3712493  76.7658709 123.5200820  89.2589554  76.4972658
 136.3298863 101.0009079  83.6242064 136.2050002 100.1998819  83.1153009
 136.9877954 101.4955272  83.1356034 127.9507031  87.3557811  82.8019204
 127.2293617  87.9693779  82.6626677 128.7400287  87.8915576  82.7235850
 130.7533345  84.6912238  89.0759856 131.2767746  84.9374535  89.8386165
 130.5345678  85.5232273  88.6562993 126.1500626  86.9615913  76.9430980
 125.8213332  86.0813291  76.7606086 126.5039996  86.9063581  77.8307370
 135.3980205  98.5970815  81.4525966 135.2505167  97.6687523  81.6333536
 136.2233698  98.6190906  80.9683041 129.2642449  87.2488882  77.3106458
 129.6038521  87.7774804  76.5885067 129.7114569  87.5869288  78.0865025
 131.9585890  85.6325933  86.7609526 131.6182710  84.8333746  87.1630206
 131.2524896  85.9327644  86.1886359 132.6102361  82.7175245  85.2136849
 133.4328431  82.2435724  85.0915740 132.8540425  83.4965729  85.7135536
 131.2510596  85.7463504  75.5099751 131.9718958  86.1244757  75.0063468
 130.6275900  86.4652381  75.6134729 135.3941719  86.4508653  76.4458083
 135.6105333  87.3333291  76.1446911 134.9135786  86.0594866  75.7163725
 130.1340940  89.4094366  83.0228828 129.9885521  89.7234669  83.9153109
 129.6566144  90.0279266  82.4699726 131.9937323  86.3996914  83.0709717
 131.9798892  85.5038007  82.7342015 132.7109751  86.4067578  83.7048003
 133.8463454  86.8334254  85.1162845 133.5881232  87.7551325  85.1147175
 133.3148494  86.4364689  85.8063309 124.6086602  91.9499711  85.9616489
 124.0640070  92.7259518  86.0936763 125.4865952  92.2970515  85.8035610
 131.3974219  85.2811294  78.3397288 131.5190130  84.3527941  78.5388175
 131.1076261  85.2949980  77.4275603 134.2665409  82.9666205  81.4764007
 134.2887106  83.0305538  80.5215987 134.6833468  82.1270713  81.6704514
 125.3952624  91.0769607  88.8546646 124.6534360  91.2252242  89.4411276
 125.0745369  91.3377872  87.9913395 133.3396287 100.6185585  88.6527036
 133.6483413 100.3734732  89.5249735 134.1371769 100.8232223  88.1645906
 133.3616899 102.7723495  80.8832412 132.9221889 102.2799873  81.5765269
 134.1125016 102.2296462  80.6424488 125.8409238  98.9635036  80.8857041
 126.6667258  98.6638807  80.5055684 125.4903290  98.1942658  81.3346829
 130.8090771  98.3161504  82.9554714 130.1870780  97.6532209  82.6556942
 131.4795638  98.3422636  82.2728362 124.0417843  96.8821362  81.8445974
 123.2049751  96.4543536  81.6629975 124.0141488  97.0753805  82.7816765
 130.8815299  86.7943292  92.5487220 130.9303454  87.6705415  92.1664990
 131.4237813  86.2520685  91.9758863 130.3704278  96.8665427  76.4313175
 130.5192398  97.5500891  75.7779847 131.1770721  96.8470517  76.9462630
 133.1114587  87.5474664  89.3033579 132.2417896  87.8408230  89.0316167
 133.3474067  88.1315109  90.0240842 128.1256911  92.8930605  77.4374244
 127.8802953  91.9892935  77.6354454 128.2952826  92.8947755  76.4953722
 135.8153621  83.7654281  86.8198999 136.3335565  84.5015308  86.4945488
 135.4608754  84.0718274  87.6545758 127.3952559  88.6258962  74.9360405
 126.7021803  88.7003317  74.2800441 127.1504310  87.8619306  75.4581922
 136.0666215  80.1854564  82.3399896 136.3467969  79.5177753  82.9660322
 136.8516822  80.3783659  81.8274560 133.8699684  99.3613558  73.9024922
 133.2973651  99.9803745  73.4495394 134.4432477  99.9112919  74.4364844
 134.2546482  90.6974370  71.2440975 135.2005587  90.5680578  71.3129393
 133.8760727  89.9589032  71.7210403 134.1385175  94.7492116  92.7041632
 135.0588184  94.9270715  92.8981678 134.1034758  93.8048162  92.5521331
 132.4389399  88.6224347  71.1795860 131.5320855  88.3257459  71.2558573
 132.7165380  88.3254165  70.3130146 123.3567340  89.9430710  81.6294906
 123.0370124  89.0896018  81.3369280 122.8100768  90.1579288  82.3852874
 127.1347247  92.6593151  85.3464413 127.3533257  93.5910259  85.3652447
 127.5473021  92.3001125  86.1319217 134.0551465  83.1661236  77.3340101
 133.2452193  82.8208321  77.7095347 134.7435882  82.8568780  77.9227713
 135.9842013  82.2439283  78.9564398 136.5373052  82.6634737  79.6154421
 136.2212100  81.3175031  78.9987354 132.0075112  88.2326357  94.7367162
 131.9071839  89.1820714  94.6679253 131.7896654  87.9044596  93.8643232
 131.2088184  85.4811282  71.3207839 132.0707348  85.8066180  71.5803656
 131.3938528  84.6942778  70.8080905 123.2255600  93.5633622  83.5988028
 122.5319071  93.1487574  83.0857982 123.9728591  93.6054158  83.0021447
 131.8706382  91.6623496  93.5532223 131.3873464  92.4623856  93.7596112
 131.9567322  91.6731441  92.5999667 125.1392342  93.4951875  81.4754043
 125.1163030  93.5939563  80.5235926 125.4492979  94.3417026  81.7971209
 127.7979720  95.5528030  85.5900657 128.7522974  95.5211973  85.5230589
 127.5992244  95.0918654  86.4050883 128.3879102  94.1229146  88.1571455
 129.2071991  94.6173225  88.1806292 128.6615910  93.2061115  88.1289022
 126.1529949 101.0947650  82.6070855 126.0184417 100.3348051  82.0408853
 125.7362011 101.8188550  82.1399644 129.3099075 101.9916967  82.8189298
 129.1931459 102.9362399  82.7167988 128.4891521 101.6890528  83.2075097
 123.6414016  88.4567280  88.8563652 124.2872880  87.9466234  89.3450877
 123.4331167  89.1935962  89.4307077 136.1667409  95.5248128  94.3555792
 137.0358568  95.6988780  93.9942427 135.6874160  96.3442545  94.2331522
 132.1617627  82.7207325  74.6087548 132.1496297  83.6649165  74.7655819
 133.0541049  82.5377470  74.3147009 130.3353589 102.6445229  86.0345226
 131.2380835 102.6768839  86.3511721 130.1090959 101.7145680  86.0491562
 132.0907191 101.3976215  82.6955305 131.1402822 101.3978077  82.5819677
 132.3939677 100.6508950  82.1791339 135.9769746  79.3150102  78.8633485
 135.2102142  78.7608588  79.0090167 136.3880451  79.3871970  79.7247636
 127.9811507  85.6034897  92.9538666 128.8442969  85.2471702  93.1641991
 127.4076918  85.2648792  93.6414070 136.5557238 104.3766644  82.5109311
 135.7656292 104.6324173  82.0349421 137.0468485 105.1914982  82.6161351
 134.8394941 104.6297135  84.9424302 135.0902979 105.5144145  85.2081877
 135.3754489 104.4501736  84.1699393 135.4703983 108.7788127  78.6341778
 136.3079205 109.1885135  78.4175486 135.6482250 107.8387569  78.6041972
 135.4930154 106.1178842  79.3052511 135.2954554 105.5248203  78.5803578
 134.9376818 105.8131052  80.0228450 132.0529985 107.8029037  81.4720257
 132.7401025 107.4890767  80.8841272 131.8978114 108.7070402  81.1987508
 136.8564707 102.6919234  85.9005281 136.7722896 102.0844903  85.1655690
 136.0347413 103.1828252  85.9014777 131.6297961 105.8829630  83.7437724
 131.6682060 105.3493221  84.5374842 131.1238254 105.3564836  83.1248701
 135.2606539 104.6093733  76.8191655 135.5559980 103.7004411  76.7658709
 134.3594574 104.5881472  76.4972658 136.9894380 102.2907830  76.9430980
 136.6607086 101.4105209  76.7606086 137.3433751 102.2355499  77.8307370
 135.4480357 107.2791628  85.9616489 134.9033825 108.0551436  86.0936763
 136.3259707 107.6262433  85.8035610 136.2346379 106.4061524  88.8546646
 135.4928115 106.5544160  89.4411276 135.9139123 106.6669790  87.9913395
 136.6802992 114.2926953  80.8857041 137.5061012 113.9930725  80.5055684
 136.3297044 113.5234576  81.3346829 134.8811597 112.2113280  81.8445974
 134.0443506 111.7835454  81.6629975 134.8535243 112.4045723  82.7816765
 134.1961094 105.2722628  81.6294906 133.8763878 104.4187936  81.3369280
 133.6494522 105.4871206  82.3852874 134.0649354 108.8925539  83.5988028
 133.3712825 108.4779492  83.0857982 134.8122345 108.9346076  83.0021447
 135.9786097 108.8243793  81.4754043 135.9556785 108.9231480  80.5235926
 136.2886733 109.6708944  81.7971209 136.9923703 116.4239568  82.6070855
 136.8578171 115.6639968  82.0408853 136.5755765 117.1480467  82.1399644
 134.4807771 103.7859198  88.8563652 135.1266634 103.2758152  89.3450877
 134.2724922 104.5227880  89.4307077  76.7424774   2.6052498  65.2894049
  76.6648804   3.5560323  65.3682530  76.1386417   2.2598370  65.9468976
  75.4018740   0.1154019  72.6660610  75.9526165  -0.0128918  71.8937604
  74.5630216   0.4148908  72.3155502  81.6159303   2.0368857  60.4455312
  80.9421002   2.3400553  61.0540270  82.0025125   2.8397937  60.0960769
  79.8150518   2.2048529  62.6602391  79.9902274   1.7336572  63.4748014
  79.1283306   2.8314295  62.8883652  74.3811604   5.3537892  69.4342251
  74.6208202   5.9856416  70.1121270  73.5380800   5.0025932  69.7207611
  78.8939465   1.1617014  71.8383755  78.8209637   1.9671986  72.3503060
  78.4516859   1.3608980  71.0131777  78.6829245   0.3988784  65.3486577
  77.8996767   0.9410464  65.4424801  79.3821990   0.9162764  65.7480818
  81.3538149   1.0603848  73.9941914  82.0666121   1.6951313  73.9217815
  80.8628178   1.1567714  73.1781916  72.0017781  -1.6565353  71.7478587
  72.5871217  -2.4021665  71.8806492  71.8042619  -1.3461397  72.6315251
  74.8556436   1.3785894  66.7641030  74.1866811   1.8632022  66.2805070
  74.7169305   1.6255115  67.6784408  78.9961704   3.4129638  73.3623688
  79.5480012   3.5761259  74.1272773  79.3367898   4.0034075  72.6903713
  79.1427516   0.9788119  75.3772343  79.4514642   0.7337266  76.2495042
  79.9402998   1.1834758  74.8891213  79.1648128   3.1326029  67.6077719
  78.7253118   2.6402408  68.3010576  79.9156245   2.5898997  67.3669794
  71.6440467  -0.6762430  67.6102347  72.4698487  -0.9758658  67.2300991
  71.2934519  -1.4454808  68.0592136  69.8449072  -2.7576104  68.5691281
  69.0080980  -3.1853929  68.3875282  69.8172717  -2.5643660  69.5062072
  71.9561178   1.4550184  69.3316162  71.8215645   0.6950585  68.7654160
  71.5393240   2.1791084  68.8644950  75.1130303   2.3519501  69.5434604
  74.9962688   3.2964934  69.4413295  74.2922750   2.0493063  69.9320403
  76.1384818   3.0047763  72.7590533  77.0412064   3.0371373  73.0757028
  75.9122188   2.0748214  72.7736868  77.8938420   1.7578750  69.4200611
  76.9434051   1.7580611  69.3064984  78.1970906   1.0111484  68.9036646
  93.6291113   7.5939288  70.4846374  94.2669523   7.4746035  69.7809714
  93.5111956   8.5420132  70.5434326  90.4380819   7.5466716  70.4207898
  90.0999331   7.4307781  69.5328433  91.3070588   7.1457881  70.4008905
  86.2967635   9.4002192  66.4104789  85.7332500   9.3092129  65.6421077
  86.1820030   8.5802097  66.8907282  90.9200602   8.7001568  76.3794104
  90.9089243   8.3054366  75.5074608  91.0821242   7.9667640  76.9727875
  83.8432067  10.8953384  69.2489010  84.6353359  10.5544209  68.8335309
  84.0828717  11.0048359  70.1691163  91.8767194  13.0673160  61.7219254
  91.2255174  13.6527241  61.3353268  92.6711557  13.5979355  61.7814292
  85.8022821  10.1562297  62.1206389  86.5753697   9.6091284  61.9819264
  86.1548220  11.0206547  62.3320850  87.6407863  11.4838680  75.3273288
  87.3497729  12.3884310  75.2119954  88.2764848  11.5255207  76.0417357
  88.5664070   8.8615528  71.9174648  89.1627643   8.6371550  71.2031610
  88.6239042   8.1200274  72.5200095  88.1389099   6.3154963  59.7524839
  88.3914619   5.7936485  58.9908302  87.2013658   6.1521109  59.8551522
  93.3542459  10.7563592  62.2588239  92.7188292  10.8298219  62.9709143
  93.0239865  11.3457191  61.5807318  87.8585387   8.2183069  61.9549213
  87.7421646   7.5427973  62.6230298  87.9687647   7.7315443  61.1381367
  90.2016928   7.6793216  65.6595903  89.8375136   7.1523837  66.3708824
  91.0584044   7.2891686  65.4862388  92.5997749  11.1700095  72.3223082
  92.2998472  12.0725134  72.2138889  92.2548808  10.9032278  73.1744234
  86.0510230   7.6213892  68.3559786  85.1260727   7.4890106  68.5637478
  86.2994643   8.4008111  68.8529728  89.8211636   5.1640774  61.6403918
  89.7011261   5.6097824  62.4789398  89.1264225   5.5126091  61.0817456
  83.4119041   7.2647165  69.1903575  83.5411422   7.5181644  70.1042987
  82.7316492   7.8574873  68.8708230  87.5818528  17.9344415  65.2894049
  87.5042558  18.8852241  65.3682530  86.9780172  17.5890288  65.9468976
  90.0735758   5.1072281  77.9455416  89.2969092   5.6666201  77.9358281
  90.7126321   5.5929064  78.4670286  88.3282130   7.9157734  77.5073383
  89.0696815   8.4542778  77.2308207  87.6219116   8.5424023  77.6644935
  93.8037470  10.0586875  76.1045545  94.2120826   9.6169285  75.3600177
  93.0814732   9.4839502  76.3579738  90.1568540   4.9959481  73.4779102
  91.0029735   5.4198895  73.6213751  90.0967178   4.3393106  74.1717665
  94.1266285  10.6188065  69.8597834  93.4975147  10.7833779  69.1573901
  93.7391947  11.0329675  70.6308798  98.0055517  11.5542503  67.2142197
  97.3206555  11.9341405  66.6639231  98.0899366  12.1637830  67.9474145
  95.2606448   9.2002462  73.8137541  95.4723343   9.8434222  73.1371922
  95.2136196   8.3664779  73.3459471  89.6794247  10.3562473  67.1247919
  90.1432592  10.6350176  66.3352541  89.4151045   9.4545918  66.9421009
  86.5718328   9.9033955  70.0627682  87.1419685  10.3321223  69.4245166
  87.1626440   9.6216540  70.7611868  88.6163133   6.4785626  63.9337484
  89.3187176   6.9306669  64.4011410  88.2843761   5.8369445  64.5617377
  87.0643494   5.0697382  78.3088693  86.4342155   5.7513663  78.5424090
  86.9579582   4.9580464  77.3641831  82.3588467   4.7369178  69.2354617
  81.5687521   4.9926707  68.7594728  82.8499714   5.5517516  69.3406658
  96.3752276  12.0774418  71.9859898  97.1969720  11.6754605  71.7042580
  96.3714679  11.9742652  72.9376014  84.3103212   5.1013758  66.1938094
  83.5134375   5.2132452  66.7121590  84.0828804   5.4400410  65.3278985
  90.1408880  11.6258461  74.1420609  90.2053312  12.0878868  74.9778781
  89.4319803  10.9955826  74.2702919  80.6426170   4.9899669  71.6669608
  80.8934208   5.8746679  71.9327184  81.1785718   4.8104270  70.8944700
  89.8556897  13.2926568  64.0099589  89.7202572  14.1378104  64.4384437
  90.3966710  13.4945846  63.2465523  83.3086295  10.8102006  64.5827514
  83.8210815  11.6045257  64.7333079  83.9609007  10.1128297  64.5161116
  85.1181179  13.9267763  66.6650267  85.2947808  14.8485727  66.4771251
  85.9138013  13.6126182  67.0944647  84.4033536   5.9732395  76.5412430
  84.2887051   5.0717652  76.8419529  83.5478054   6.2196091  76.1897247
  91.4825374  13.9150135  78.1399931  91.0389228  13.1286513  77.8220836
  92.1442587  14.1029285  77.4743822  86.2412495  15.4445936  72.6660610
  86.7919920  15.3163000  71.8937604  85.4023971  15.7440826  72.3155502
  93.5806612  14.1952935  76.1681332  93.5625087  15.0161816  75.6761602
  94.5026532  14.0707010  76.3931474  90.0379666  11.7097064  77.0104841
  90.5708003  10.9485352  76.7804149  89.5093747  11.4170716  77.7528995
  81.2735211   9.1390661  65.3587085  82.1110433   9.5487669  65.1420792
  81.4513479   8.1990103  65.3287279  93.1699644   6.8065741  61.0470918
  92.6546267   7.5770346  61.2859305  92.8976952   6.1330878  61.6703979
  98.1433918   9.5598096  62.9824091  97.3663360   9.2209256  62.5379253
  98.8225399   9.5650719  62.3079056  91.4032379  10.8383057  64.5223653
  90.8753740  10.1035816  64.2096890  90.9019881  11.6157733  64.2763621
  96.3825225   9.0332077  69.6390699  95.7248899   9.7231339  69.7270828
  97.1865624   9.4228509  69.9824685  95.1930683   7.3876450  67.6894641
  95.7062565   8.0206442  68.1916351  95.8431907   6.7877645  67.3238001
  86.4620693   3.5307184  60.9026150  85.6258006   3.8681871  61.2235424
  86.3225463   3.3956164  59.9653287  89.5484979   8.6563267  57.5258626
  88.6412040   8.4252521  57.7249775  90.0456011   7.8600886  57.7132607
  92.4553058  17.3660774  60.4455312  91.7814756  17.6692471  61.0540270
  92.8418880  18.1689855  60.0960769  91.6711514   4.8625906  69.9352981
  90.7534076   5.0840853  69.7774669  92.0871658   4.9372216  69.0764689
  92.4546562   6.2617321  65.0655662  93.2018381   6.7738718  64.7562784
  92.7238152   5.9401374  65.9260055  90.7273212   8.7575862  62.0482616
  89.8184431   8.4734895  62.1455086  90.7568296   9.1774940  61.1885923
  95.9592480  12.3682451  65.8173783  95.5054807  11.5273361  65.8738974
  95.3286446  13.0043850  66.1548564  94.4025419  14.2058948  66.7523602
  94.6948393  14.7664005  66.0335967  94.9124039  14.4987509  67.5076761
  81.2961383   6.4781376  66.0297818  81.0985782   5.8850737  65.3048885
  80.7408047   6.1733586  66.7473757  89.2758106   6.3704483  68.1492411
  89.3306716   5.4178319  68.0734888  88.4649308   6.5263922  68.6333710
  90.4249300  10.2984606  59.3870694  89.9868730   9.5820465  58.9276332
  91.1659741  10.5260720  58.8255786  87.2150466   4.9881542  65.9082790
  86.4018332   5.2875713  66.3147982  87.7109460   4.5937231  66.6257272
  89.3659044  14.9839299  67.8417055  89.3235223  15.2100146  66.9125587
  90.2821743  14.7502674  67.9902856  92.8124678   5.4523367  74.7397684
  93.1674066   5.6794840  75.5992150  93.4596809   5.7841744  74.1174939
  98.5422415   8.5741803  65.4447013  98.4040313   8.7643399  64.5168202
  98.1858634   9.3361185  65.9015064  98.5691794  10.6418330  70.4558285
  99.0028301  10.5493619  71.3041339  99.2823375  10.6175830  69.8178301
  87.4824845  11.8602328  67.6379018  88.2765443  11.3652648  67.4361592
  86.7716537  11.3320191  67.2746723  92.3019689  14.2420424  71.9891385
  92.3556712  14.8111360  72.7569101  91.4334471  14.4122309  71.6245422
  83.7907608   6.0045410  63.7138770  82.8605196   5.9429865  63.9308732
  83.8865080   5.4821363  62.9175411  83.7093157   2.5300223  66.3017012
  83.9699975   3.4445556  66.1926172  84.5310330   2.0624665  66.4513625
  85.1818083   3.9437980  73.4715836  85.8541136   3.7355342  72.8228485
  84.3547869   3.7460066  73.0321069  99.4307344  10.6842030  72.9891170
  99.6243234  11.5887841  73.2350445  99.3307962  10.2249449  73.8229755
  94.4922453  10.8348773  78.5632051  94.3407959  10.6059325  77.6462134
  94.4827132  11.7919374  78.5763396  91.2607789   8.4080686  73.5478317
  92.1899849   8.5591845  73.3747284  90.8398819   8.4964707  72.6926963
  90.0596121  12.4331350  71.3176855  89.9207207  12.0650135  72.1902793
  89.2710717  12.9478990  71.1460812  90.6544273  17.5340447  62.6602391
  90.8296028  17.0628490  63.4748014  89.9677061  18.1606213  62.8883652
  91.6101336  11.8112953  68.7065692  91.2751169  11.7713723  69.6023342
  91.1105282  11.1457669  68.2336103  85.5845580   7.2180583  74.2318274
  85.4465378   6.4860822  74.8329813  86.4950503   7.1289483  73.9502461
  94.5460528   9.1568987  58.9802752  93.9289698   8.4315815  58.8835805
  94.0777016   9.9178348  58.6369826  88.2127881   6.9300542  73.7201953
  88.9227499   6.2893734  73.6788572  88.1697189   7.1813437  74.6428134
  96.2014659  13.8667896  76.6408532  96.1427205  13.1827116  75.9739115
  96.6034178  14.6086886  76.1889158  86.9256815   3.9165760  75.5397593
  86.3894172   3.4656499  76.1919189  86.3373523   4.0511669  74.7968057
  85.2205358  20.6829809  69.4342251  85.4601956  21.3148334  70.1121270
  84.3774555  20.3317849  69.7207611  86.3359074   3.3754412  58.1024056
  85.4588540   3.2543212  57.7386303  86.8116827   2.5840490  57.8502945
  96.2032067  11.8307480  74.8722512  95.3158845  11.4933401  74.9948911
  96.7730618  11.0990511  75.1091277  77.8561214   8.1631571  68.1965563
  78.5432253   7.8493301  67.6086579  77.7009342   9.0672936  67.9232815
  82.6595936   3.0521768  72.6250587  82.5754125   2.4447437  71.8900997
  81.8378642   3.5430786  72.6260083  89.7333220  16.4908932  71.8383755
  89.6603391  17.2963903  72.3503060  89.2910613  16.6900898  71.0131777
  89.5223000  15.7280702  65.3486577  88.7390521  16.2702382  65.4424801
  90.2215745  16.2454682  65.7480818  92.1931903  16.3895766  73.9941914
  92.9059876  17.0243231  73.9217815  91.7021932  16.4859632  73.1781916
  93.9149430  10.2947019  65.5659206  92.9805709  10.4148481  65.3963910
  94.0926099   9.3919485  65.3019215  87.2443817  14.1390209  74.8147485
  87.9453276  14.7726692  74.9676879  86.7738932  14.4804941  74.0543124
  95.3698213  12.4808159  63.0995392  95.6458057  12.3664754  64.0089266
  94.5002712  12.0825644  63.0607565  95.0445103   6.6934817  72.6400035
  94.3916553   6.9410724  71.9852488  95.4225483   5.8798955  72.3062512
  92.0052277  16.7294510  66.7428205  92.1874671  15.9116166  67.2055958
  92.8285263  16.9462202  66.3053095  92.3394442  15.6562695  64.0043254
  92.8682209  15.1455150  63.3913416  92.6022662  15.3405225  64.8688787
  91.0932676   7.4354628  79.1266072  90.4173313   7.3348757  79.7968447
  91.9160310   7.2793842  79.5902069  82.8411535  13.6726564  71.7478587
  83.4264972  12.9270252  71.8806492  82.6436374  13.9830521  72.6315251
  85.6950190  16.7077812  66.7641030  85.0260566  17.1923939  66.2805070
  85.5563060  16.9547032  67.6784408  77.4329190   6.2432165  70.4683031
  77.4713289   5.7095755  71.2620149  76.9269483   5.7167370  69.8494008
  89.8355459  18.7421555  73.3623688  90.3873767  18.9053177  74.1272773
  90.1761652  19.3325993  72.6903713  84.2872225   3.1619838  77.6118607
  84.9144263   2.7796915  78.2256131  83.4300143   2.9434040  77.9774300
  94.6866333  13.5682813  79.2172343  95.2306237  14.1812771  78.7227297
  94.1053178  14.1262391  79.7339356  81.0637767   4.9696267  63.5436962
  81.3591208   4.0606945  63.4904016  80.1625803   4.9484006  63.2217964
  92.9723846  16.6903531  70.3487370  92.8474986  15.8893271  69.8398316
  93.6302937  17.1849724  69.8601340  84.5932014   3.0452263  69.5264511
  83.8718600   3.6588231  69.3871984  85.3825270   3.5810028  69.4481157
  95.0358755  14.4912551  71.9766920  94.0889090  14.3717902  71.9045247
  95.3841528  13.6035049  72.0593182  82.7925609   2.6510364  63.6676287
  82.4638315   1.7707743  63.4851393  83.1464980   2.5958033  64.5552676
  92.0405188  14.2865267  68.1771273  91.8930150  13.3581975  68.3578843
  92.8658681  14.3085358  67.6928348  85.9067432   2.9383334  64.0351765
  86.2463505   3.4669255  63.3130373  86.3539553   3.2763740  64.8110331
  95.6439310  15.1093826  69.2636145  96.5685857  14.9036687  69.1260597
  95.4754613  14.8610227  70.1725487  86.7765924   5.0988818  69.7474134
  86.6310504   5.4129121  70.6398416  86.2991127   5.7173718  69.1945033
  95.4334626  15.6279493  64.6198237  95.6071503  15.0625916  63.8672089
  95.9263517  16.4280388  64.4377727  81.2511586   7.6394162  72.6861796
  80.7065054   8.4153970  72.8182070  82.1290936   7.9864967  72.5280917
  96.4209798  14.9446258  61.7195135  97.1160703  15.5652950  61.9382450
  96.7632949  14.0941609  61.9947513  82.0377608   6.7664059  75.5791953
  81.2959344   6.9146694  76.1656583  81.7170352   7.0272324  74.7158702
  98.3201221  12.3945963  63.2482466  98.8452546  12.7333236  62.5231786
  98.2323574  11.4592979  63.0645601  89.9821270  16.3080037  75.3772343
  90.2908397  16.0629184  76.2495042  90.7796752  16.5126675  74.8891213
  90.0041882  18.4617947  67.6077719  89.5646873  17.9694325  68.3010576
  90.7549999  17.9190914  67.3669794  82.4834221  14.6529487  67.6102347
  83.3092241  14.3533259  67.2300991  82.1328273  13.8837110  68.0592136
  87.4515754  14.0055956  69.6800021  86.8295764  13.3426661  69.3802249
  88.1220621  14.0317088  68.9973669  80.6842826  12.5715814  68.5691281
  79.8474735  12.1437988  68.3875282  80.6566472  12.7648257  69.5062072
  98.0095128  13.0278867  78.5533664  97.2190671  13.0103006  78.0138163
  97.7728482  13.5667161  79.3082700  98.1293003   9.8771333  75.8666392
  98.1791008   9.7121341  76.8081915  98.0206926   9.0098592  75.4764273
  87.0129261  12.5559879  63.1558481  87.1617382  13.2395343  62.5025154
  87.8195705  12.5364969  63.6707937  99.6311199  12.2968275  76.1108414
  99.3396008  12.6598255  76.9471875  99.0183331  11.5835283  75.9321746
 100.8306882   9.8621155  68.6310984 101.6653773  10.3010959  68.7948545
 100.9666011   9.3859808  67.8119230  97.8798388   7.4200889  74.5788472
  98.3552509   7.6128536  73.7707323  96.9563953   7.4760075  74.3331856
  84.7681894   8.5825057  64.1619550  84.5227936   7.6787387  64.3599760
  84.9377809   8.5842207  63.2199028  84.0377542   4.3153414  61.6605712
  83.3446787   4.3897769  61.0045748  83.7929294   3.5513758  62.1827229
  90.5124667  15.0508009  60.6270229  89.9398634  15.6698197  60.1740701
  91.0857460  15.6007371  61.1610151  93.7321927  15.3345160  61.7578811
  94.6652600  15.2690721  61.9611687  93.6445139  16.1701426  61.2993344
  96.3609943  14.6511030  58.7182759  96.2823575  14.3170894  59.6118516
  97.1819610  15.1432798  58.7174231  90.8971465   6.3868822  57.9686281
  91.8430570   6.2575030  58.0374699  90.5185710   5.6483484  58.4455709
  90.7810158  10.4386568  79.4286938  91.7013167  10.6165167  79.6226985
  90.7459741   9.4942614  79.2766637  89.0814382   4.3118799  57.9041166
  88.1745838   4.0151911  57.9803880  89.3590363   4.0148617  57.0375453
  79.9992323   5.6325162  68.3540213  79.6795107   4.7790470  68.0614587
  79.4525751   5.8473740  69.1098180  83.7772230   8.3487603  72.0709719
  83.9958240   9.2804711  72.0897753  84.1898004   7.9895577  72.8564523
  88.6500096   3.9220809  81.4612468  88.5496823   4.8715166  81.3924559
  88.4321638   3.5939048  80.5888538  79.8680583   9.2528073  70.3233334
  79.1744054   8.8382026  69.8103289  80.6153574   9.2948610  69.7266753
  88.5131366   7.3517948  80.2777530  88.0298447   8.1518308  80.4841419
  88.5992305   7.3625892  79.3244974  81.7817325   9.1846327  68.1999349
  81.7588013   9.2834015  67.2481232  82.0917962  10.0311478  68.5216515
  84.4404703  11.2422482  72.3145964  85.3947957  11.2106425  72.2475895
  84.2417227  10.7813106  73.1296190  85.0304085   9.8123598  74.8816761
  85.8496974  10.3067677  74.9051599  85.3040893   8.8955566  74.8534329
  82.7954932  16.7842102  69.3316162  82.6609400  16.0242503  68.7654160
  82.3786994  17.5083002  68.8644950  93.9313895  11.9679025  58.3392737
  94.6349745  12.1729028  58.9550393  93.2076544  12.5355787  58.6041820
  94.7611705   7.7188887  64.4595007  94.7046907   8.1757438  63.6202639
  95.3140048   6.9579571  64.2817850  85.9524058  17.6811419  69.5434604
  85.8356442  18.6256851  69.4413295  85.1316504  17.3784980  69.9320403
  95.8400592  12.4061555  60.3891197  96.6746196  11.9742753  60.2068672
  95.6784935  12.2343568  61.3168091  95.4946485   8.9093668  61.7547536
  95.4395288   8.7437939  60.8135980  94.8692540   9.6169701  61.9109726
  80.2839000   4.1461732  75.5808958  80.9297863   3.6360686  76.0696184
  80.0756151   4.8830414  76.1552384  92.8092392  11.2142580  81.0801099
  93.6783551  11.3883232  80.7187734  92.3299143  12.0336996  80.9576828
  86.9778572  18.3339681  72.7590533  87.8805819  18.3663291  73.0757028
  86.7515942  17.4040132  72.7736868  88.7332174  17.0870667  69.4200611
  87.7827805  17.0872529  69.3064984  89.0364660  16.3403402  68.9036646
 104.4684868  22.9231206  70.4846374 105.1063278  22.8037953  69.7809714
 104.3505710  23.8712050  70.5434326 101.2774574  22.8758634  70.4207898
 100.9393085  22.7599698  69.5328433 102.1464342  22.4749799  70.4008905
  97.1361390  24.7294110  66.4104789  96.5726255  24.6384047  65.6421077
  97.0213785  23.9094015  66.8907282 101.7594357  24.0293485  76.3794104
 101.7482998  23.6346284  75.5074608 101.9214996  23.2959558  76.9727875
  94.6825821  26.2245302  69.2489010  95.4747113  25.8836126  68.8335309
  94.9222472  26.3340277  70.1691163 102.7160948  28.3965078  61.7219254
 102.0648928  28.9819158  61.3353268 103.5105311  28.9271273  61.7814292
  96.6416575  25.4854215  62.1206389  97.4147451  24.9383202  61.9819264
  96.9941974  26.3498464  62.3320850  98.4801618  26.8130597  75.3273288
  98.1891484  27.7176228  75.2119954  99.1158602  26.8547125  76.0417357
  99.4057825  24.1907446  71.9174648 100.0021397  23.9663468  71.2031610
  99.4632796  23.4492191  72.5200095  98.9782853  21.6446881  59.7524839
  99.2308374  21.1228402  58.9908302  98.0407412  21.4813027  59.8551522
 104.0226136  20.6482659  67.5599582 104.8089225  20.2302083  67.2089999
 104.2864840  21.5528752  67.7281230 104.1936213  26.0855510  62.2588239
 103.5582046  26.1590136  62.9709143 103.8633620  26.6749109  61.5807318
 109.4234563  20.5857893  68.4632560 110.1559735  20.0157109  68.6970390
 108.6673919  20.1979493  68.9039066  98.6979142  23.5474987  61.9549213
  98.5815400  22.8719890  62.6230298  98.8081402  23.0607361  61.1381367
 101.0410683  23.0085134  65.6595903 100.6768890  22.4815755  66.3708824
 101.8977799  22.6183603  65.4862388 106.9459984  14.2979467  72.9227169
 106.6143308  15.1674878  72.6988384 106.3505597  13.9815751  73.6021199
 100.6816170  18.0375034  60.6557251 100.8490572  18.9055270  61.0227722
 100.4913339  18.2002316  59.7318540 103.4391503  26.4992013  72.3223082
 103.1392226  27.4017052  72.2138889 103.0942563  26.2324196  73.1744234
  96.8903985  22.9505810  68.3559786  95.9654481  22.8182024  68.5637478
  97.1388398  23.7300029  68.8529728 106.8388647  19.0174553  70.0020519
 105.9305524  18.9489961  69.7079280 106.7876243  19.4946498  70.8302344
 100.6605391  20.4932691  61.6403918 100.5405016  20.9389742  62.4789398
  99.9657979  20.8418009  61.0817456  94.2512796  22.5939083  69.1903575
  94.3805177  22.8473562  70.1042987  93.5710247  23.1866791  68.8708230
  98.4212283  33.2636333  65.2894049  98.3436313  34.2144158  65.3682530
  97.8173926  32.9182206  65.9468976 100.9129513  20.4364199  77.9455416
 100.1362847  20.9958119  77.9358281 101.5520076  20.9220982  78.4670286
 108.7050293  17.2190991  71.7798393 108.0624673  17.5123525  71.1338187
 108.2005222  17.1043912  72.5851589 106.3590457  20.9654165  62.4684252
 107.2708313  21.1981551  62.2931950 105.8500104  21.5491209  61.9059331
  99.1675885  23.2449652  77.5073383  99.9090569  23.7834696  77.2308207
  98.4612870  23.8715941  77.6644935 104.6431225  25.3878792  76.1045545
 105.0514581  24.9461203  75.3600177 103.9208486  24.8131420  76.3579738
 100.9962295  20.3251399  73.4779102 101.8423490  20.7490813  73.6213751
 100.9360932  19.6685023  74.1717665 104.9660039  25.9479983  69.8597834
 104.3368902  26.1125697  69.1573901 104.5785701  26.3621593  70.6308798
 108.8449271  26.8834421  67.2142197 108.1600309  27.2633322  66.6639231
 108.9293120  27.4929747  67.9474145 104.1461740  17.9855767  75.1360275
 103.9022672  18.7397828  74.5994551 104.4221670  18.3641115  75.9707522
 106.1000203  24.5294380  73.8137541 106.3117098  25.1726140  73.1371922
 106.0529951  23.6956696  73.3459471 103.7026432  17.1412201  70.7174113
 102.8410911  17.4393454  71.0090851 103.7288866  17.3582599  69.7855146
 100.5188001  25.6854391  67.1247919 100.9826347  25.9642094  66.3352541
 100.2544799  24.7837836  66.9421009  97.4112082  25.2325873  70.0627682
  97.9813439  25.6613141  69.4245166  98.0020194  24.9508457  70.7611868
  99.4556887  21.8077543  63.9337484 100.1580930  22.2598587  64.4011410
  99.1237516  21.1661362  64.5617377  97.9037249  20.3989300  78.3088693
  97.2735909  21.0805581  78.5424090  97.7973337  20.2872382  77.3641831
  93.1982221  20.0661096  69.2354617  92.4081275  20.3218625  68.7594728
  93.6893468  20.8809434  69.3406658 107.2146031  27.4066335  71.9859898
 108.0363474  27.0046523  71.7042580 107.2108434  27.3034569  72.9376014
  95.1496966  20.4305675  66.1938094  94.3528130  20.5424370  66.7121590
  94.9222559  20.7692328  65.3278985 100.9802634  26.9550379  74.1420609
 101.0447067  27.4170786  74.9778781 100.2713558  26.3247743  74.2702919
  91.4819924  20.3191587  71.6669608  91.7327962  21.2038596  71.9327184
  92.0179472  20.1396188  70.8944700 115.3052024  23.7505084  68.3344870
 114.5515732  23.1812482  68.1788874 115.4399565  23.7167748  69.2815504
 100.6950652  28.6218486  64.0099589 100.5596327  29.4670022  64.4384437
 101.2360464  28.8237764  63.2465523  97.1817991  14.7010066  80.6713944
  96.7884937  14.1476264  81.3461588  97.9984132  15.0120644  81.0620462
  94.1480049  26.1393924  64.5827514  94.6604570  26.9337174  64.7333079
  94.8002762  25.4420215  64.5161116  95.9574934  29.2559680  66.6650267
  96.1341562  30.1777645  66.4771251  96.7531767  28.9418100  67.0944647
 100.0985952  16.1167945  78.2634201 100.8395666  16.7175098  78.1838663
 100.3303875  15.3745583  77.7052243  95.2427290  21.3024312  76.5412430
  95.1280806  20.4009570  76.8419529  94.3871808  21.5488009  76.1897247
 102.3219128  29.2442053  78.1399931 101.8782982  28.4578431  77.8220836
 102.9836342  29.4321203  77.4743822  97.0806249  30.7737854  72.6660610
  97.6313674  30.6454918  71.8937604  96.2417725  31.0732743  72.3155502
 104.4200366  29.5244853  76.1681332 104.4018842  30.3453734  75.6761602
 105.3420286  29.3998928  76.3931474 100.8773420  27.0388982  77.0104841
 101.4101757  26.2777270  76.7804149 100.3487501  26.7462634  77.7528995
 104.0443115  12.1449048  72.5398482 103.7007385  13.0350690  72.4637593
 104.4122078  11.9550706  71.6768067  92.1128966  24.4682578  65.3587085
  92.9504188  24.8779587  65.1420792  92.2907234  23.5282021  65.3287279
 104.0093398  22.1357659  61.0470918 103.4940021  22.9062264  61.2859305
 103.7370706  21.4622795  61.6703979 101.5940509  16.9807360  66.1056156
 100.7382105  16.5914210  65.9261795 102.0067461  17.0599321  65.2455941
 103.1239656  14.5153703  70.5047716 102.6204451  14.4783838  69.6915521
 103.4170263  15.4246446  70.5644372  99.3682542  14.5992433  69.5113897
 100.2335538  14.4035242  69.1519787  99.4360051  14.3702785  70.4383254
 108.9827672  24.8890014  62.9824091 108.2057115  24.5501173  62.5379253
 109.6619153  24.8942637  62.3079056 103.7979701  20.0084751  62.8730699
 103.4929837  20.3230900  63.7240842 104.7510143  20.0866171  62.9158032
 102.2426133  26.1674974  64.5223653 101.7147495  25.4327734  64.2096890
 101.7413636  26.9449651  64.2763621 107.2218979  24.3623995  69.6390699
 106.5642654  25.0523256  69.7270828 108.0259378  24.7520427  69.9824685
  96.9744861  16.8294641  66.8830264  97.5488613  16.6069822  66.1503457
  97.5615843  16.8983335  67.6358866 106.0324438  22.7168368  67.6894641
 106.5456320  23.3498359  68.1916351 106.6825662  22.1169563  67.3238001
  97.3014448  18.8599102  60.9026150  96.4651760  19.1973788  61.2235424
  97.1619217  18.7248082  59.9653287  99.2767528  13.7035890  65.6105334
  98.6231941  13.3884907  64.9861948  99.2348003  13.0811630  66.3365157
 100.3878733  23.9855185  57.5258626  99.4805795  23.7544438  57.7249775
 100.8849765  23.1892804  57.7132607 103.2946812  32.6952692  60.4455312
 102.6208511  32.9984389  61.0540270 103.6812634  33.4981772  60.0960769
 102.5105269  20.1917823  69.9352981 101.5927830  20.4132770  69.7774669
 102.9265412  20.2664134  69.0764689 103.2940317  21.5909239  65.0655662
 104.0412135  22.1030636  64.7562784 103.5631906  21.2693292  65.9260055
 101.5666967  24.0867780  62.0482616 100.6578186  23.8026812  62.1455086
 101.5962050  24.5066858  61.1885923 106.7986234  27.6974369  65.8173783
 106.3448561  26.8565279  65.8738974 106.1680201  28.3335767  66.1548564
 105.7419154  18.6266355  67.0474451 105.0041910  18.1143741  67.3784693
 105.9945927  18.1866737  66.2357728 105.2419173  29.5350866  66.7523602
 105.5342148  30.0955923  66.0335967 105.7517794  29.8279427  67.5076761
 105.8430781  11.4042607  67.6416220 106.1489658  10.5439971  67.3542135
 106.5683386  11.9960227  67.4415214  92.1355137  21.8073294  66.0297818
  91.9379537  21.2142654  65.3048885  91.5801801  21.5025504  66.7473757
 100.1151861  21.6996400  68.1492411 100.1700471  20.7470237  68.0734888
  99.3043063  21.8555839  68.6333710 101.2643054  25.6276523  59.3870694
 100.8262484  24.9112382  58.9276332 102.0053495  25.8552638  58.8255786
  98.0544221  20.3173460  65.9082790  97.2412086  20.6167630  66.3147982
  98.5503215  19.9229149  66.6257272 100.2052799  30.3131217  67.8417055
 100.1628977  30.5392063  66.9125587 101.1215497  30.0794591  67.9902856
 103.6518432  20.7815284  74.7397684 104.0067820  21.0086758  75.5992150
 104.2990564  21.1133661  74.1174939 109.3816169  23.9033720  65.4447013
 109.2434068  24.0935316  64.5168202 109.0252388  24.6653103  65.9015064
  97.5458295  17.8891815  71.5244025  98.1857675  17.7480575  70.8266988
  96.7135826  17.6026329  71.1482627 109.4085549  25.9710247  70.4558285
 109.8422056  25.8785536  71.3041339 110.1217130  25.9467748  69.8178301
  98.3218599  27.1894246  67.6379018  99.1159198  26.6944566  67.4361592
  97.6110292  26.6612109  67.2746723 103.1413444  29.5712341  71.9891385
 103.1950466  30.1403278  72.7569101 102.2728225  29.7414226  71.6245422
  94.6301363  21.3337328  63.7138770  93.6998951  21.2721783  63.9308732
  94.7258835  20.8113280  62.9175411  94.5486912  17.8592140  66.3017012
  94.8093729  18.7737474  66.1926172  95.3704084  17.3916583  66.4513625
  96.0211837  19.2729898  73.4715836  96.6934891  19.0647260  72.8228485
  95.1941624  19.0751984  73.0321069 110.2701098  26.0133948  72.9891170
 110.4636989  26.9179758  73.2350445 110.1701717  25.5541367  73.8229755
 101.9237409  15.8991839  75.4881497 101.2765324  16.5981788  75.3945974
 102.6938425  16.3327982  75.8557745 105.3316207  26.1640691  78.5632051
 105.1801714  25.9351242  77.6462134 105.3220887  27.1211292  78.5763396
 102.1001544  23.7372603  73.5478317 103.0293604  23.8883763  73.3747284
 101.6792574  23.8256624  72.6926963 100.8989875  27.7623268  71.3176855
 100.7600961  27.3942052  72.1902793 100.1104472  28.2770907  71.1460812
 101.4938027  32.8632364  62.6602391 101.6689783  32.3920408  63.4748014
 100.8070815  33.4898131  62.8883652 102.4495090  27.1404871  68.7065692
 102.1144923  27.1005641  69.6023342 101.9499036  26.4749586  68.2336103
  96.4239334  22.5472501  74.2318274  96.2859132  21.8152739  74.8329813
  97.3344258  22.4581401  73.9502461 105.3854282  24.4860905  58.9802752
 104.7683453  23.7607733  58.8835805 104.9170771  25.2470265  58.6369826
  99.0521635  22.2592460  73.7201953  99.7621254  21.6185652  73.6788572
  99.0090943  22.5105355  74.6428134 107.0408414  29.1959813  76.6408532
 106.9820960  28.5119033  75.9739115 107.4427932  29.9378803  76.1889158
  97.7650569  19.2457678  75.5397593  97.2287926  18.7948416  76.1919189
  97.1767278  19.3803587  74.7968057  96.0599113  36.0121727  69.4342251
  96.2995711  36.6440251  70.1121270  95.2168309  35.6609767  69.7207611
  97.1752828  18.7046329  58.1024056  96.2982294  18.5835130  57.7386303
  97.6510581  17.9132408  57.8502945 107.0425821  27.1599397  74.8722512
 106.1552600  26.8225319  74.9948911 107.6124372  26.4282428  75.1091277
  88.6954968  23.4923489  68.1965563  89.3826008  23.1785219  67.6086579
  88.5403097  24.3964854  67.9232815  93.4989690  18.3813686  72.6250587
  93.4147879  17.7739355  71.8900997  92.6772397  18.8722704  72.6260083
 100.5726974  31.8200850  71.8383755 100.4997146  32.6255821  72.3503060
 100.1304368  32.0192815  71.0131777 100.3616754  31.0572620  65.3486577
  99.5784276  31.5994300  65.4424801 101.0609499  31.5746599  65.7480818
 103.6713404  16.8667249  67.9920782 104.1682104  16.1137211  67.6721852
 102.9000386  16.9031566  67.4263992 111.5243162  22.5707615  69.6339074
 111.5133038  23.4532330  69.2633007 110.6560541  22.2179165  69.4393611
 103.0325658  31.7187684  73.9941914 103.7453630  32.3535148  73.9217815
 102.5415687  31.8151550  73.1781916 104.7543185  25.6238936  65.5659206
 103.8199464  25.7440399  65.3963910 104.9319853  24.7211403  65.3019215
 100.2548373  19.0084632  67.7192467  99.8846160  18.4555672  68.4073372
 100.7507465  18.4042766  67.1667467 108.1415736  21.4656256  66.1009240
 108.6076188  22.2984247  66.0269542 108.5923237  21.0001237  66.8054498
  98.0837571  29.4682127  74.8147485  98.7847031  30.1018610  74.9676879
  97.6132686  29.8096859  74.0543124 106.2091967  27.8100077  63.0995392
 106.4851811  27.6956671  64.0089266 105.3396466  27.4117562  63.0607565
 106.1132399  13.8336843  70.1400141 105.1995479  14.0641069  70.3082348
 106.5425500  13.9175287  70.9914173 105.8838857  22.0226734  72.6400035
 105.2310308  22.2702642  71.9852488 106.2619237  21.2090873  72.3062512
 102.8446031  32.0586428  66.7428205 103.0268426  31.2408084  67.2055958
 103.6679017  32.2754120  66.3053095 103.1788197  30.9854613  64.0043254
 103.7075963  30.4747067  63.3913416 103.4416416  30.6697143  64.8688787
 101.9326430  22.7646546  79.1266072 101.2567067  22.6640675  79.7968447
 102.7554064  22.6085759  79.5902069  93.6805290  29.0018482  71.7478587
  94.2658726  28.2562170  71.8806492  93.4830128  29.3122439  72.6315251
  96.5343945  32.0369729  66.7641030  95.8654320  32.5215857  66.2805070
  96.3956814  32.2838950  67.6784408  88.2722944  21.5724082  70.4683031
  88.3107044  21.0387673  71.2620149  87.7663237  21.0459288  69.8494008
 100.6749213  34.0713473  73.3623688 101.2267521  34.2345095  74.1272773
 101.0155407  34.6617911  72.6903713  95.6513707  16.4188623  73.9645573
  95.7155033  17.2803454  73.5522971  95.5880827  15.8062624  73.2317931
  95.1265979  18.4911755  77.6118607  95.7538018  18.1088833  78.2256131
  94.2693898  18.2725957  77.9774300 105.5260088  28.8974731  79.2172343
 106.0699992  29.5104689  78.7227297 104.9446933  29.4554309  79.7339356
  91.9031522  20.2988184  63.5436962  92.1984963  19.3898863  63.4904016
  91.0019558  20.2775924  63.2217964 103.8117601  32.0195449  70.3487370
 103.6868740  31.2185188  69.8398316 104.4696692  32.5141642  69.8601340
  95.4325769  18.3744181  69.5264511  94.7112355  18.9880149  69.3871984
  96.2219025  18.9101946  69.4481157 105.8752509  29.8204469  71.9766920
 104.9282845  29.7009820  71.9045247 106.2235282  28.9326967  72.0593182
  98.2352082  15.7098608  75.8005162  98.7586484  15.9560904  76.5631472
  98.0164416  16.5418642  75.3808300  93.6319363  17.9802282  63.6676287
  93.3032070  17.0999661  63.4851393  93.9858734  17.9249951  64.5552676
 102.8798942  29.6157185  68.1771273 102.7323905  28.6873892  68.3578843
 103.7052436  29.6377276  67.6928348  96.7461187  18.2675252  64.0351765
  97.0857259  18.7961173  63.3130373  97.1933307  18.6055658  64.8110331
 106.4833064  30.4385744  69.2636145 107.4079612  30.2328605  69.1260597
 106.3148368  30.1902145  70.1725487  99.4404627  16.6512303  73.4854833
  99.1001448  15.8520116  73.8875513  98.7343634  16.9514013  72.9131666
 100.0921099  13.7361615  71.9382156 100.9147169  13.2622093  71.8161046
 100.3359163  14.5152099  72.4380842  98.7329334  16.7649874  62.2345058
  99.4537696  17.1431126  61.7308774  98.1094638  17.4838750  62.3380036
 102.8760457  17.4695022  63.1703390 103.0924071  18.3519660  62.8692218
 102.3954524  17.0781236  62.4409032  97.6159678  20.4280736  69.7474134
  97.4704259  20.7421039  70.6398416  97.1384882  21.0465636  69.1945033
  99.4756061  17.4183284  69.7955024  99.4617630  16.5224377  69.4587322
 100.1928489  17.4253947  70.4293310 101.3282192  17.8520624  71.8408151
 101.0699969  18.7737695  71.8392482 100.7967232  17.4551058  72.5308616
 106.2728380  30.9571411  64.6198237 106.4465258  30.3917833  63.8672089
 106.7657272  31.7572306  64.4377727  92.0905340  22.9686080  72.6861796
  91.5458808  23.7445888  72.8182070  92.9684690  23.3156885  72.5280917
  98.8792957  16.2997664  65.0642594  99.0008868  15.3714310  65.2633482
  98.5894999  16.3136350  64.1520910 101.7484147  13.9852574  68.2009314
 101.7705844  14.0491907  67.2461294 102.1652206  13.1457083  68.3949820
 112.1267772  23.7207834  66.2388537 112.5698918  22.9715159  65.8407660
 111.2494282  23.7117970  65.8562269 107.2603553  30.2738175  61.7195135
 107.9554457  30.8944868  61.9382450 107.6026703  29.4233527  61.9947513
  92.8771362  22.0955976  75.5791953  92.1353098  22.2438612  76.1656583
  92.5564106  22.3564242  74.7158702 109.1594976  27.7237881  63.2482466
 109.6846300  28.0625154  62.5231786 109.0717329  26.7884896  63.0645601
 100.8215025  31.6371955  75.3772343 101.1302151  31.3921101  76.2495042
 101.6190507  31.8418593  74.8891213 100.8435637  33.7909864  67.6077719
 100.4040627  33.2986243  68.3010576 101.5943754  33.2482832  67.3669794
  93.3227976  29.9821405  67.6102347  94.1485996  29.6825177  67.2300991
  92.9722028  29.2129028  68.0592136  98.2909509  29.3347873  69.6800021
  97.6689518  28.6718578  69.3802249  98.9614376  29.3609005  68.9973669
  91.5236581  27.9007732  68.5691281  90.6868489  27.4729906  68.3875282
  91.4960226  28.0940175  69.5062072  98.3634036  17.8129661  79.2732527
  98.4122192  18.6891784  78.8910296  98.9056551  17.2707054  78.7004170
 108.8488882  28.3570785  78.5533664 108.0584426  28.3394923  78.0138163
 108.6122237  28.8959078  79.3082700 108.9686757  25.2063251  75.8666392
 109.0184762  25.0413258  76.8081915 108.8600680  24.3390510  75.4764273
  97.8523016  27.8851797  63.1558481  98.0011136  28.5687261  62.5025154
  98.6589459  27.8656887  63.6707937 106.2590519  21.1894179  77.1825699
 107.1600382  21.0500644  76.8909697 106.3338494  21.3548634  78.1223877
 100.5933325  18.5661034  76.0278885  99.7236634  18.8594600  75.7561474
 100.8292805  19.1501479  76.7486149 110.4704954  27.6260192  76.1108414
 110.1789762  27.9890173  76.9471875 109.8577085  26.9127201  75.9321746
 111.6700636  25.1913072  68.6310984 112.5047528  25.6302876  68.7948545
 111.8059765  24.7151725  67.8119230 108.7192142  22.7492807  74.5788472
 109.1946264  22.9420453  73.7707323 107.7957708  22.8051993  74.3331856
  95.6075649  23.9116974  64.1619550  95.3621691  23.0079304  64.3599760
  95.7771563  23.9134125  63.2199028 103.2972359  14.7840651  73.5444306
 103.8154303  15.5201678  73.2190794 102.9427491  15.0904644  74.3791065
  94.8771296  19.6445332  61.6605712  94.1840541  19.7189687  61.0045748
  94.6323048  18.8805676  62.1827229 103.5484953  11.2040933  69.0645202
 103.8286707  10.5364122  69.6905629 104.3335560  11.3970029  68.5519866
 101.3518421  30.3799927  60.6270229 100.7792388  30.9990114  60.1740701
 101.9251215  30.9299289  61.1610151 107.4193811  19.6258567  72.8116778
 108.3711234  19.7256665  72.8329002 107.2497262  18.8336836  73.3214862
 105.4408191  16.7114150  72.9976178 104.8458123  16.9919163  72.3022667
 105.1557887  17.2008051  73.7692920 104.5715681  30.6637077  61.7578811
 105.5046354  30.5982639  61.9611687 104.4838894  31.4993344  61.2993344
 107.2003698  29.9802948  58.7182759 107.1217329  29.6462811  59.6118516
 108.0213365  30.4724715  58.7174231 109.8981889  22.8464687  71.9259077
 109.8658209  21.9080688  72.1118761 110.5082513  22.9248724  71.1924902
 101.7365220  21.7160740  57.9686281 102.6824325  21.5866948  58.0374699
 101.3579465  20.9775402  58.4455709 110.0476377  19.6375730  71.9717360
 109.5315426  18.8534187  71.7847289 110.9316326  19.3094447  72.1363880
 107.7087104  13.3816746  67.9313173 107.5111925  13.0731834  68.8156505
 108.3186810  14.1078385  68.0611103 115.7158439  23.9080694  71.0665114
 116.4461827  23.6465982  71.6272817 115.1065384  23.1709416  71.1067182
 113.7973736  22.0488556  71.6639565 113.0706899  21.9144521  71.0556057
 113.3821023  22.3565385  72.4696283 101.6203912  25.7678486  79.4286938
 102.5406922  25.9457085  79.6226985 101.5853495  24.8234531  79.2766637
  99.9208137  19.6410716  57.9041166  99.0139592  19.3443829  57.9803880
 100.1984118  19.3440534  57.0375453  90.8386077  20.9617080  68.3540213
  90.5188862  20.1082388  68.0614587  90.2919506  21.1765658  69.1098180
  94.6165985  23.6779521  72.0709719  94.8351995  24.6096628  72.0897753
  95.0291759  23.3187495  72.8564523 101.5370203  14.1847606  64.0585408
 100.7270931  13.8394691  64.4340654 102.2254620  13.8755150  64.6473019
 103.4660751  13.2625653  65.6809704 104.0191790  13.6821106  66.3399727
 103.7030837  12.3361401  65.7232660  99.4893850  19.2512726  81.4612468
  99.3890577  20.2007083  81.3924559  99.2715392  18.9230965  80.5888538
  98.6906922  16.4997651  58.0453146  99.5526086  16.8252550  58.3048963
  98.8757266  15.7129147  57.5326211  90.7074337  24.5819991  70.3233334
  90.0137809  24.1673944  69.8103289  91.4547328  24.6240528  69.7266753
 106.8439558  15.3726178  65.1888369 106.2638227  16.0310982  64.8066421
 106.5775491  14.5503523  64.7775786 105.2943124  14.7731236  67.3909689
 105.7942903  14.8847770  66.5824008 105.9378732  14.4692288  68.0310497
  99.3525120  22.6809865  80.2777530  98.8692202  23.4810225  80.4841419
  99.4386059  22.6917810  79.3244974  92.6211080  24.5138245  68.1999349
  92.5981768  24.6125932  67.2481232  92.9311716  25.3603396  68.5216515
  95.2798458  26.5714400  72.3145964  96.2341711  26.5398342  72.2475895
  95.0810981  26.1105024  73.1296190  95.8697840  25.1415516  74.8816761
  96.6890729  25.6359595  74.9051599  96.1434648  24.2247484  74.8534329
 105.6264436  17.5326268  64.2444717 104.7390291  17.8175919  64.0264912
 106.0418425  17.3720032  63.3971994 108.9778972  17.5572789  67.9599056
 109.7539362  18.0469242  68.2323673 108.2527106  17.9830843  68.4170926
 111.4151531  18.2700409  69.0172997 112.0096022  18.0296144  68.3066305
 111.4878115  17.5507539  69.6446533  93.6348687  32.1134019  69.3316162
  93.5003154  31.3534420  68.7654160  93.2180749  32.8374919  68.8644950
 104.7707650  27.2970943  58.3392737 105.4743500  27.5020945  58.9550393
 104.0470298  27.8647705  58.6041820 105.6005460  23.0480804  64.4595007
 105.5440661  23.5049356  63.6202639 106.1533802  22.2871489  64.2817850
 109.4110266  18.8370536  65.2845127 109.1547200  18.4367172  66.1153334
 108.7863134  19.5514330  65.1595266 113.7222604  21.5766609  67.7916418
 113.1622162  21.6459799  68.5647980 113.1166107  21.4007594  67.0715914
  96.7917812  33.0103336  69.5434604  96.6750197  33.9548769  69.4413295
  95.9710259  32.7076898  69.9320403 106.6794347  27.7353472  60.3891197
 107.5139951  27.3034671  60.2068672 106.5178690  27.5635486  61.3168091
 106.3340239  24.2385585  61.7547536 106.2789043  24.0729857  60.8135980
 105.7086294  24.9461618  61.9109726  91.1232754  19.4753650  75.5808958
  91.7691618  18.9652604  76.0696184  90.9149905  20.2122332  76.1552384
 103.6486146  26.5434497  81.0801099 104.5177306  26.7175150  80.7187734
 103.1692898  27.3628914  80.9576828  99.6436365  13.7393694  61.3332855
  99.6315034  14.6835534  61.4901126 100.5359786  13.5563840  61.0392316
  97.8172327  33.6631598  72.7590533  98.7199573  33.6955209  73.0757028
  97.5909697  32.7332049  72.7736868  99.5725929  32.4162585  69.4200611
  98.6221560  32.4164447  69.3064984  99.8758415  31.6695319  68.9036646
 103.4588484  10.3336471  65.5878791 102.6920880   9.7794958  65.7335474
 103.8699189  10.4058340  66.4492943  95.4630245  16.6221267  79.6783973
  96.3261707  16.2658072  79.8887297  94.8895656  16.2835162  80.3659377
 115.3078622  38.2523123  70.4846374 115.9457032  38.1329871  69.7809714
 115.1899465  39.2003967  70.5434326 112.1168328  38.2050551  70.4207898
 111.7786840  38.0891616  69.5328433 112.9858097  37.8041716  70.4008905
 107.9755144  40.0586028  66.4104789 107.4120009  39.9675965  65.6421077
 107.8607539  39.2385932  66.8907282 112.5988111  39.3585403  76.3794104
 112.5876752  38.9638201  75.5074608 112.7608751  38.6251476  76.9727875
 105.5219576  41.5537219  69.2489010 106.3140868  41.2128044  68.8335309
 105.7616226  41.6632194  70.1691163 113.5554703  43.7256996  61.7219254
 112.9042682  44.3111076  61.3353268 114.3499066  44.2563190  61.7814292
 107.4810330  40.8146133  62.1206389 108.2541206  40.2675120  61.9819264
 107.8335729  41.6790382  62.3320850 109.3195372  42.1422515  75.3273288
 109.0285238  43.0468146  75.2119954 109.9552357  42.1839043  76.0417357
 110.2451579  39.5199363  71.9174648 110.8415152  39.2955386  71.2031610
 110.3026551  38.7784109  72.5200095 109.8176608  36.9738799  59.7524839
 110.0702128  36.4520320  58.9908302 108.8801167  36.8104944  59.8551522
 114.8619891  35.9774577  67.5599582 115.6482980  35.5594000  67.2089999
 115.1258595  36.8820669  67.7281230 115.0329968  41.4147427  62.2588239
 114.3975801  41.4882054  62.9709143 114.7027374  42.0041026  61.5807318
 120.2628318  35.9149810  68.4632560 120.9953490  35.3449027  68.6970390
 119.5067673  35.5271411  68.9039066 109.5372896  38.8766905  61.9549213
 109.4209155  38.2011808  62.6230298 109.6475156  38.3899279  61.1381367
 111.8804437  38.3377052  65.6595903 111.5162645  37.8107673  66.3708824
 112.7371553  37.9475521  65.4862388 117.7853738  29.6271384  72.9227169
 117.4537063  30.4966795  72.6988384 117.1899351  29.3107668  73.6021199
 111.5209924  33.3666952  60.6557251 111.6884327  34.2347188  61.0227722
 111.3307093  33.5294233  59.7318540 114.2785258  41.8283930  72.3223082
 113.9785981  42.7308969  72.2138889 113.9336317  41.5616114  73.1744234
 107.7297739  38.2797727  68.3559786 106.8048235  38.1473941  68.5637478
 107.9782152  39.0591947  68.8529728 117.6782401  34.3466471  70.0020519
 116.7699279  34.2781879  69.7079280 117.6269997  34.8238416  70.8302344
 111.4999145  35.8224609  61.6403918 111.3798770  36.2681660  62.4789398
 110.8051734  36.1709927  61.0817456 105.0906550  37.9231001  69.1903575
 105.2198931  38.1765480  70.1042987 104.4104001  38.5158709  68.8708230
 109.2606037  48.5928251  65.2894049 109.1830067  49.5436076  65.3682530
 108.6567681  48.2474123  65.9468976 111.7523267  35.7656116  77.9455416
 110.9756601  36.3250036  77.9358281 112.3913830  36.2512899  78.4670286
 119.5444048  32.5482909  71.7798393 118.9018428  32.8415442  71.1338187
 119.0398976  32.4335829  72.5851589 117.1984211  36.2946082  62.4684252
 118.1102067  36.5273469  62.2931950 116.6893858  36.8783126  61.9059331
 110.0069639  38.5741570  77.5073383 110.7484324  39.1126614  77.2308207
 109.3006625  39.2007858  77.6644935 115.4824979  40.7170710  76.1045545
 115.8908335  40.2753121  75.3600177 114.7602241  40.1423338  76.3579738
 111.8356049  35.6543317  73.4779102 112.6817244  36.0782730  73.6213751
 111.7754687  34.9976941  74.1717665 115.8053794  41.2771901  69.8597834
 115.1762656  41.4417615  69.1573901 115.4179456  41.6913510  70.6308798
 119.6843026  42.2126339  67.2142197 118.9994064  42.5925240  66.6639231
 119.7686875  42.8221665  67.9474145 114.9855494  33.3147685  75.1360275
 114.7416426  34.0689746  74.5994551 115.2615425  33.6933033  75.9707522
 116.9393957  39.8586298  73.8137541 117.1510852  40.5018057  73.1371922
 116.8923705  39.0248614  73.3459471 114.5420186  32.4704118  70.7174113
 113.6804665  32.7685372  71.0090851 114.5682621  32.6874517  69.7855146
 111.3581756  41.0146309  67.1247919 111.8220101  41.2934012  66.3352541
 111.0938554  40.1129753  66.9421009 108.2505837  40.5617790  70.0627682
 108.8207194  40.9905059  69.4245166 108.8413948  40.2800375  70.7611868
 110.2950642  37.1369461  63.9337484 110.9974685  37.5890505  64.4011410
 109.9631270  36.4953280  64.5617377 108.7431003  35.7281218  78.3088693
 108.1129664  36.4097499  78.5424090 108.6367091  35.6164299  77.3641831
 104.0375976  35.3953014  69.2354617 103.2475030  35.6510542  68.7594728
 104.5287223  36.2101352  69.3406658 118.0539785  42.7358253  71.9859898
 118.8757229  42.3338440  71.7042580 118.0502188  42.6326487  72.9376014
 105.9890721  35.7597593  66.1938094 105.1921884  35.8716287  66.7121590
 105.7616313  36.0984245  65.3278985 111.8196389  42.2842296  74.1420609
 111.8840821  42.7462703  74.9778781 111.1107312  41.6539661  74.2702919
 102.3213679  35.6483504  71.6669608 102.5721717  36.5330514  71.9327184
 102.8573227  35.4688106  70.8944700 126.1445778  39.0797001  68.3344870
 125.3909487  38.5104400  68.1788874 126.2793319  39.0459666  69.2815504
 111.5344406  43.9510404  64.0099589 111.3990081  44.7961939  64.4384437
 112.0754219  44.1529681  63.2465523 108.0211746  30.0301984  80.6713944
 107.6278691  29.4768182  81.3461588 108.8377886  30.3412562  81.0620462
 104.9873804  41.4685842  64.5827514 105.4998324  42.2629092  64.7333079
 105.6396516  40.7712132  64.5161116 106.7968688  44.5851598  66.6650267
 106.9735317  45.5069563  66.4771251 107.5925522  44.2710017  67.0944647
 110.9379707  31.4459863  78.2634201 111.6789420  32.0467016  78.1838663
 111.1697630  30.7037500  77.7052243 106.0821045  36.6316230  76.5412430
 105.9674560  35.7301487  76.8419529 105.2265563  36.8779927  76.1897247
 113.1612883  44.5733970  78.1399931 112.7176737  43.7870349  77.8220836
 113.8230096  44.7613121  77.4743822 107.9200004  46.1029772  72.6660610
 108.4707429  45.9746835  71.8937604 107.0811480  46.4024661  72.3155502
 115.2594121  44.8536770  76.1681332 115.2412596  45.6745651  75.6761602
 116.1814041  44.7290845  76.3931474 111.7167175  42.3680900  77.0104841
 112.2495512  41.6069188  76.7804149 111.1881256  42.0754551  77.7528995
 114.8836870  27.4740966  72.5398482 114.5401139  28.3642607  72.4637593
 115.2515832  27.2842623  71.6768067 102.9522720  39.7974496  65.3587085
 103.7897942  40.2071504  65.1420792 103.1300988  38.8573938  65.3287279
 114.8487153  37.4649577  61.0470918 114.3333776  38.2354181  61.2859305
 114.5764461  36.7914713  61.6703979 112.4334264  32.3099278  66.1056156
 111.5775860  31.9206128  65.9261795 112.8461215  32.3891238  65.2455941
 113.9633410  29.8445621  70.5047716 113.4598206  29.8075756  69.6915521
 114.2564017  30.7538363  70.5644372 110.2076296  29.9284351  69.5113897
 111.0729293  29.7327159  69.1519787 110.2753805  29.6994702  70.4383254
 119.8221427  40.2181931  62.9824091 119.0450869  39.8793091  62.5379253
 120.5012908  40.2234555  62.3079056 114.6373456  35.3376669  62.8730699
 114.3323591  35.6522818  63.7240842 115.5903898  35.4158089  62.9158032
 113.0819888  41.4966892  64.5223653 112.5541249  40.7619652  64.2096890
 112.5807390  42.2741568  64.2763621 118.0612734  39.6915913  69.6390699
 117.4036408  40.3815174  69.7270828 118.8653133  40.0812345  69.9824685
 107.8138615  32.1586558  66.8830264 108.3882367  31.9361740  66.1503457
 108.4009598  32.2275253  67.6358866 116.8718192  38.0460285  67.6894641
 117.3850074  38.6790277  68.1916351 117.5219416  37.4461481  67.3238001
 108.1408202  34.1891019  60.9026150 107.3045515  34.5265706  61.2235424
 108.0012972  34.0539999  59.9653287 110.1161283  29.0327807  65.6105334
 109.4625695  28.7176825  64.9861948 110.0741757  28.4103548  66.3365157
 111.2272488  39.3147102  57.5258626 110.3199549  39.0836356  57.7249775
 111.7243520  38.5184722  57.7132607 114.1340567  48.0244610  60.4455312
 113.4602265  48.3276306  61.0540270 114.5206389  48.8273690  60.0960769
 113.3499023  35.5209741  69.9352981 112.4321585  35.7424688  69.7774669
 113.7659167  35.5956051  69.0764689 114.1334071  36.9201157  65.0655662
 114.8805890  37.4322554  64.7562784 114.4025661  36.5985209  65.9260055
 112.4060721  39.4159697  62.0482616 111.4971940  39.1318730  62.1455086
 112.4355805  39.8358776  61.1885923 117.6379989  43.0266287  65.8173783
 117.1842316  42.1857197  65.8738974 117.0073955  43.6627685  66.1548564
 116.5812908  33.9558273  67.0474451 115.8435665  33.4435659  67.3784693
 116.8339682  33.5158654  66.2357728 116.0812928  44.8642783  66.7523602
 116.3735902  45.4247841  66.0335967 116.5911548  45.1571344  67.5076761
 116.6824535  26.7334525  67.6416220 116.9883412  25.8731888  67.3542135
 117.4077140  27.3252145  67.4415214 102.9748892  37.1365211  66.0297818
 102.7773291  36.5434572  65.3048885 102.4195556  36.8317422  66.7473757
 110.9545615  37.0288318  68.1492411 111.0094225  36.0762154  68.0734888
 110.1436817  37.1847757  68.6333710 112.1036809  40.9568441  59.3870694
 111.6656239  40.2404300  58.9276332 112.8447250  41.1844556  58.8255786
 108.8937975  35.6465378  65.9082790 108.0805841  35.9459548  66.3147982
 109.3896969  35.2521066  66.6257272 111.0446553  45.6423135  67.8417055
 111.0022732  45.8683981  66.9125587 111.9609252  45.4086509  67.9902856
 114.4912187  36.1107202  74.7397684 114.8461575  36.3378675  75.5992150
 115.1384318  36.4425579  74.1174939 120.2209924  39.2325638  65.4447013
 120.0827822  39.4227234  64.5168202 119.8646143  39.9945021  65.9015064
 108.3852050  33.2183733  71.5244025 109.0251429  33.0772492  70.8266988
 107.5529580  32.9318247  71.1482627 120.2479303  41.3002165  70.4558285
 120.6815810  41.2077454  71.3041339 120.9610884  41.2759665  69.8178301
 109.1612354  42.5186164  67.6379018 109.9552952  42.0236484  67.4361592
 108.4504046  41.9904027  67.2746723 113.9807198  44.9004259  71.9891385
 114.0344221  45.4695195  72.7569101 113.1121980  45.0706144  71.6245422
 105.4695117  36.6629245  63.7138770 104.5392705  36.6013701  63.9308732
 105.5652589  36.1405198  62.9175411 105.3880666  33.1884058  66.3017012
 105.6487484  34.1029391  66.1926172 106.2097839  32.7208501  66.4513625
 106.8605592  34.6021815  73.4715836 107.5328645  34.3939177  72.8228485
 106.0335378  34.4043901  73.0321069 121.1094853  41.3425866  72.9891170
 121.3030743  42.2471676  73.2350445 121.0095471  40.8833285  73.8229755
 112.7631164  31.2283756  75.4881497 112.1159079  31.9273706  75.3945974
 113.5332179  31.6619900  75.8557745 116.1709962  41.4932608  78.5632051
 116.0195468  41.2643160  77.6462134 116.1614641  42.4503210  78.5763396
 112.9395298  39.0664521  73.5478317 113.8687358  39.2175681  73.3747284
 112.5186328  39.1548542  72.6926963 111.7383630  43.0915186  71.3176855
 111.5994715  42.7233970  72.1902793 110.9498226  43.6062825  71.1460812
 112.3331782  48.1924282  62.6602391 112.5083537  47.7212325  63.4748014
 111.6464570  48.8190048  62.8883652 113.2888845  42.4696788  68.7065692
 112.9538678  42.4297558  69.6023342 112.7892791  41.8041504  68.2336103
 107.2633089  37.8764418  74.2318274 107.1252887  37.1444657  74.8329813
 108.1738012  37.7873318  73.9502461 116.2248037  39.8152823  58.9802752
 115.6077207  39.0899651  58.8835805 115.7564525  40.5762183  58.6369826
 109.8915390  37.5884378  73.7201953 110.6015008  36.9477570  73.6788572
 109.8484698  37.8397272  74.6428134 117.8802168  44.5251731  76.6408532
 117.8214714  43.8410951  75.9739115 118.2821687  45.2670721  76.1889158
 108.6044324  34.5749595  75.5397593 108.0681681  34.1240334  76.1919189
 108.0161032  34.7095504  74.7968057 106.8992867  51.3413645  69.4342251
 107.1389465  51.9732169  70.1121270 106.0562064  50.9901685  69.7207611
 108.0146583  34.0338247  58.1024056 107.1376049  33.9127048  57.7386303
 108.4904336  33.2424325  57.8502945 117.8819576  42.4891315  74.8722512
 116.9946354  42.1517237  74.9948911 118.4518127  41.7574346  75.1091277
  99.5348723  38.8215407  68.1965563 100.2219762  38.5077137  67.6086579
  99.3796851  39.7256771  67.9232815 104.3383445  33.7105603  72.6250587
 104.2541634  33.1031273  71.8900997 103.5166151  34.2014621  72.6260083
 111.4120729  47.1492767  71.8383755 111.3390900  47.9547739  72.3503060
 110.9698122  47.3484733  71.0131777 111.2010509  46.3864537  65.3486577
 110.4178030  46.9286217  65.4424801 111.9003254  46.9038517  65.7480818
 114.5107159  32.1959167  67.9920782 115.0075858  31.4429129  67.6721852
 113.7394140  32.2323483  67.4263992 122.3636916  37.8999532  69.6339074
 122.3526792  38.7824248  69.2633007 121.4954295  37.5471083  69.4393611
 113.8719412  47.0479601  73.9941914 114.5847385  47.6827066  73.9217815
 113.3809441  47.1443467  73.1781916 115.5936939  40.9530854  65.5659206
 114.6593218  41.0732316  65.3963910 115.7713608  40.0503321  65.3019215
 111.0942127  34.3376550  67.7192467 110.7239915  33.7847590  68.4073372
 111.5901220  33.7334683  67.1667467 118.9809491  36.7948173  66.1009240
 119.4469943  37.6276165  66.0269542 119.4316991  36.3293155  66.8054498
 108.9231326  44.7974045  74.8147485 109.6240785  45.4310528  74.9676879
 108.4526441  45.1388776  74.0543124 117.0485722  43.1391995  63.0995392
 117.3245566  43.0248589  64.0089266 116.1790221  42.7409479  63.0607565
 116.9526153  29.1628760  70.1400141 116.0389233  29.3932987  70.3082348
 117.3819255  29.2467204  70.9914173 116.7232612  37.3518652  72.6400035
 116.0704062  37.5994560  71.9852488 117.1012992  36.5382790  72.3062512
 113.6839786  47.3878345  66.7428205 113.8662180  46.5700001  67.2055958
 114.5072772  47.6046038  66.3053095 114.0181951  46.3146530  64.0043254
 114.5469718  45.8038985  63.3913416 114.2810171  45.9989061  64.8688787
 112.7720185  38.0938463  79.1266072 112.0960822  37.9932593  79.7968447
 113.5947819  37.9377677  79.5902069 104.5199044  44.3310400  71.7478587
 105.1052481  43.5854088  71.8806492 104.3223882  44.6414356  72.6315251
 107.3737699  47.3661647  66.7641030 106.7048075  47.8507775  66.2805070
 107.2350569  47.6130868  67.6784408  99.1116699  36.9016000  70.4683031
  99.1500798  36.3679591  71.2620149  98.6056992  36.3751205  69.8494008
 111.5142968  49.4005391  73.3623688 112.0661276  49.5637012  74.1272773
 111.8549161  49.9909829  72.6903713 106.4907461  31.7480540  73.9645573
 106.5548788  32.6095371  73.5522971 106.4274581  31.1354542  73.2317931
 105.9659734  33.8203673  77.6118607 106.5931772  33.4380750  78.2256131
 105.1087652  33.6017875  77.9774300 116.3653842  44.2266648  79.2172343
 116.9093746  44.8396606  78.7227297 115.7840687  44.7846227  79.7339356
 102.7425276  35.6280102  63.5436962 103.0378717  34.7190781  63.4904016
 101.8413312  35.6067842  63.2217964 114.6511355  47.3487366  70.3487370
 114.5262495  46.5477106  69.8398316 115.3090446  47.8433560  69.8601340
 106.2719523  33.7036099  69.5264511 105.5506109  34.3172066  69.3871984
 107.0612779  34.2393864  69.4481157 116.7146263  45.1496386  71.9766920
 115.7676599  45.0301737  71.9045247 117.0629037  44.2618884  72.0593182
 109.0745837  31.0390525  75.8005162 109.5980239  31.2852822  76.5631472
 108.8558170  31.8710560  75.3808300 104.4713118  33.3094200  63.6676287
 104.1425824  32.4291579  63.4851393 104.8252489  33.2541868  64.5552676
 113.7192697  44.9449103  68.1771273 113.5717659  44.0165810  68.3578843
 114.5446190  44.9669193  67.6928348 107.5854941  33.5967170  64.0351765
 107.9251014  34.1253091  63.3130373 108.0327062  33.9347576  64.8110331
 117.3226819  45.7677661  69.2636145 118.2473366  45.5620523  69.1260597
 117.1542122  45.5194062  70.1725487 110.2798382  31.9804220  73.4854833
 109.9395202  31.1812033  73.8875513 109.5737388  32.2805931  72.9131666
 110.9314854  29.0653533  71.9382156 111.7540923  28.5914011  71.8161046
 111.1752917  29.8444016  72.4380842 109.5723088  32.0941791  62.2345058
 110.2931451  32.4723044  61.7308774 108.9488392  32.8130668  62.3380036
 113.7154211  32.7986940  63.1703390 113.9317826  33.6811578  62.8692218
 113.2348278  32.4073154  62.4409032 108.4553432  35.7572653  69.7474134
 108.3098013  36.0712956  70.6398416 107.9778636  36.3757554  69.1945033
 110.3149815  32.7475201  69.7955024 110.3011384  31.8516295  69.4587322
 111.0322243  32.7545865  70.4293310 112.1675946  33.1812542  71.8408151
 111.9093724  34.1029612  71.8392482 111.6360986  32.7842976  72.5308616
 117.1122135  46.2863329  64.6198237 117.2859012  45.7209751  63.8672089
 117.6051026  47.0864224  64.4377727 102.9299095  38.2977998  72.6861796
 102.3852563  39.0737806  72.8182070 103.8078445  38.6448802  72.5280917
 109.7186711  31.6289582  65.0642594 109.8402623  30.7006228  65.2633482
 109.4288754  31.6428268  64.1520910 112.5877902  29.3144492  68.2009314
 112.6099599  29.3783825  67.2461294 113.0045961  28.4749001  68.3949820
 122.9661526  39.0499752  66.2388537 123.4092672  38.3007077  65.8407660
 122.0888036  39.0409888  65.8562269 118.0997307  45.6030093  61.7195135
 118.7948212  46.2236786  61.9382450 118.4420457  44.7525444  61.9947513
 103.7165117  37.4247894  75.5791953 102.9746853  37.5730529  76.1656583
 103.3957861  37.6856160  74.7158702 119.9988730  43.0529799  63.2482466
 120.5240055  43.3917071  62.5231786 119.9111083  42.1176814  63.0645601
 111.6608779  46.9663872  75.3772343 111.9695906  46.7213019  76.2495042
 112.4584261  47.1710511  74.8891213 111.6829391  49.1201782  67.6077719
 111.2434382  48.6278161  68.3010576 112.4337508  48.5774750  67.3669794
 104.1621730  45.3113323  67.6102347 104.9879750  45.0117095  67.2300991
 103.8115782  44.5420945  68.0592136 109.1303263  44.6639791  69.6800021
 108.5083273  44.0010496  69.3802249 109.8008130  44.6900923  68.9973669
 102.3630335  43.2299649  68.5691281 101.5262244  42.8021824  68.3875282
 102.3353981  43.4232093  69.5062072 109.2027791  33.1421579  79.2732527
 109.2515946  34.0183702  78.8910296 109.7450305  32.5998972  78.7004170
 119.6882637  43.6862702  78.5533664 118.8978180  43.6686841  78.0138163
 119.4515991  44.2250996  79.3082700 119.8080512  40.5355169  75.8666392
 119.8578517  40.3705176  76.8081915 119.6994435  39.6682428  75.4764273
 108.6916770  43.2143714  63.1558481 108.8404891  43.8979179  62.5025154
 109.4983214  43.1948804  63.6707937 117.0984274  36.5186097  77.1825699
 117.9994137  36.3792562  76.8909697 117.1732248  36.6840552  78.1223877
 111.4327079  33.8952951  76.0278885 110.5630389  34.1886517  75.7561474
 111.6686560  34.4793396  76.7486149 121.3098708  42.9552110  76.1108414
 121.0183517  43.3182091  76.9471875 120.6970840  42.2419118  75.9321746
 122.5094391  40.5204990  68.6310984 123.3441282  40.9594794  68.7948545
 122.6453520  40.0443643  67.8119230 119.5585897  38.0784725  74.5788472
 120.0340018  38.2712371  73.7707323 118.6351462  38.1343911  74.3331856
 106.4469403  39.2408892  64.1619550 106.2015445  38.3371222  64.3599760
 106.6165318  39.2426042  63.2199028 114.1366113  30.1132568  73.5444306
 114.6548057  30.8493595  73.2190794 113.7821246  30.4196562  74.3791065
 105.7165051  34.9737250  61.6605712 105.0234296  35.0481605  61.0045748
 105.4716803  34.2097593  62.1827229 114.3878707  26.5332851  69.0645202
 114.6680461  25.8656040  69.6905629 115.1729314  26.7261946  68.5519866
 112.1912176  45.7091845  60.6270229 111.6186143  46.3282032  60.1740701
 112.7644969  46.2591206  61.1610151 118.2587566  34.9550485  72.8116778
 119.2104989  35.0548583  72.8329002 118.0891016  34.1628753  73.3214862
 116.2801945  32.0406068  72.9976178 115.6851877  32.3211081  72.3022667
 115.9951642  32.5299969  73.7692920 115.4109436  45.9928995  61.7578811
 116.3440109  45.9274557  61.9611687 115.3232648  46.8285262  61.2993344
 118.0397452  45.3094865  58.7182759 117.9611084  44.9754729  59.6118516
 118.8607119  45.8016633  58.7174231 120.7375643  38.1756605  71.9259077
 120.7051964  37.2372605  72.1118761 121.3476267  38.2540641  71.1924902
 112.5758974  37.0452658  57.9686281 113.5218079  36.9158866  58.0374699
 112.1973219  36.3067319  58.4455709 120.8870132  34.9667648  71.9717360
 120.3709181  34.1826105  71.7847289 121.7710080  34.6386365  72.1363880
 118.5480859  28.7108664  67.9313173 118.3505680  28.4023752  68.8156505
 119.1580564  29.4370302  68.0611103 126.5552193  39.2372611  71.0665114
 127.2855582  38.9757900  71.6272817 125.9459139  38.5001333  71.1067182
 124.6367490  37.3780474  71.6639565 123.9100654  37.2436439  71.0556057
 124.2214777  37.6857303  72.4696283 112.4597667  41.0970404  79.4286938
 113.3800676  41.2749003  79.6226985 112.4247250  40.1526449  79.2766637
 110.7601891  34.9702634  57.9041166 109.8533347  34.6735747  57.9803880
 111.0377872  34.6732452  57.0375453 101.6779832  36.2908997  68.3540213
 101.3582616  35.4374306  68.0614587 101.1313260  36.5057575  69.1098180
 105.4559739  39.0071438  72.0709719 105.6745749  39.9388546  72.0897753
 105.8685513  38.6479413  72.8564523 112.3763957  29.5139524  64.0585408
 111.5664685  29.1686609  64.4340654 113.0648374  29.2047067  64.6473019
 114.3054505  28.5917570  65.6809704 114.8585544  29.0113024  66.3399727
 114.5424592  27.6653319  65.7232660 110.3287605  34.5804644  81.4612468
 110.2284332  35.5299001  81.3924559 110.1109147  34.2522883  80.5888538
 109.5300676  31.8289569  58.0453146 110.3919840  32.1544467  58.3048963
 109.7151020  31.0421065  57.5326211 101.5468092  39.9111909  70.3233334
 100.8531563  39.4965862  69.8103289 102.2941083  39.9532445  69.7266753
 117.6833313  30.7018096  65.1888369 117.1031982  31.3602900  64.8066421
 117.4169245  29.8795440  64.7775786 116.1336879  30.1023153  67.3909689
 116.6336657  30.2139688  66.5824008 116.7772487  29.7984206  68.0310497
 110.1918875  38.0101783  80.2777530 109.7085956  38.8102143  80.4841419
 110.2779814  38.0209728  79.3244974 103.4604834  39.8430163  68.1999349
 103.4375522  39.9417850  67.2481232 103.7705471  40.6895313  68.5216515
 106.1192212  41.9006318  72.3145964 107.0735466  41.8690260  72.2475895
 105.9204736  41.4396941  73.1296190 106.7091594  40.4707434  74.8816761
 107.5284483  40.9651512  74.9051599 106.9828402  39.5539402  74.8534329
 116.4658191  32.8618186  64.2444717 115.5784046  33.1467837  64.0264912
 116.8812180  32.7011949  63.3971994 119.8172727  32.8864707  67.9599056
 120.5933117  33.3761159  68.2323673 119.0920861  33.3122761  68.4170926
 122.2545285  33.5992326  69.0172997 122.8489776  33.3588062  68.3066305
 122.3271869  32.8799457  69.6446533 104.4742441  47.4425937  69.3316162
 104.3396909  46.6826338  68.7654160 104.0574503  48.1666837  68.8644950
 115.6101404  42.6262861  58.3392737 116.3137254  42.8312863  58.9550393
 114.8864053  43.1939623  58.6041820 116.4399214  38.3772722  64.4595007
 116.3834416  38.8341273  63.6202639 116.9927557  37.6163407  64.2817850
 120.2504020  34.1662454  65.2845127 119.9940954  33.7659089  66.1153334
 119.6256888  34.8806248  65.1595266 124.5616358  36.9058527  67.7916418
 124.0015916  36.9751716  68.5647980 123.9559861  36.7299512  67.0715914
 107.6311567  48.3395254  69.5434604 107.5143951  49.2840687  69.4413295
 106.8104013  48.0368816  69.9320403 117.5188101  43.0645390  60.3891197
 118.3533705  42.6326588  60.2068672 117.3572444  42.8927404  61.3168091
 117.1733994  39.5677503  61.7547536 117.1182797  39.4021775  60.8135980
 116.5480049  40.2753536  61.9109726 101.9626509  34.8045568  75.5808958
 102.6085372  34.2944522  76.0696184 101.7543660  35.5414249  76.1552384
 114.4879901  41.8726415  81.0801099 115.3571060  42.0467067  80.7187734
 114.0086652  42.6920832  80.9576828 110.4830119  29.0685612  61.3332855
 110.4708789  30.0127452  61.4901126 111.3753541  28.8855758  61.0392316
 108.6566081  48.9923516  72.7590533 109.5593328  49.0247126  73.0757028
 108.4303451  48.0623967  72.7736868 110.4119683  47.7454503  69.4200611
 109.4615314  47.7456364  69.3064984 110.7152169  46.9987237  68.9036646
 114.2982239  25.6628389  65.5878791 113.5314634  25.1086876  65.7335474
 114.7092944  25.7350258  66.4492943 106.3024000  31.9513185  79.6783973
 107.1655461  31.5949989  79.8887297 105.7289410  31.6127079  80.3659377
 126.1472377  53.5815041  70.4846374 126.7850786  53.4621788  69.7809714
 126.0293219  54.5295885  70.5434326 122.9562083  53.5342469  70.4207898
 122.6180594  53.4183534  69.5328433 123.8251851  53.1333634  70.4008905
 118.8148898  55.3877945  66.4104789 118.2513764  55.2967882  65.6421077
 118.7001294  54.5677850  66.8907282 123.4381866  54.6877321  76.3794104
 123.4270507  54.2930119  75.5074608 123.6002505  53.9543393  76.9727875
 116.3613330  56.8829137  69.2489010 117.1534622  56.5419962  68.8335309
 116.6009981  56.9924112  70.1691163 124.3948457  59.0548913  61.7219254
 123.7436437  59.6402994  61.3353268 125.1892820  59.5855108  61.7814292
 118.3204084  56.1438050  62.1206389 119.0934960  55.5967037  61.9819264
 118.6729483  57.0082300  62.3320850 120.1589127  57.4714433  75.3273288
 119.8678993  58.3760063  75.2119954 120.7946111  57.5130960  76.0417357
 121.0845334  54.8491281  71.9174648 121.6808906  54.6247304  71.2031610
 121.1420305  54.1076027  72.5200095 120.6570362  52.3030716  59.7524839
 120.9095883  51.7812238  58.9908302 119.7194921  52.1396862  59.8551522
 125.7013645  51.3066495  67.5599582 126.4876734  50.8885918  67.2089999
 125.9652349  52.2112587  67.7281230 125.8723722  56.7439345  62.2588239
 125.2369555  56.8173972  62.9709143 125.5421129  57.3332944  61.5807318
 131.1022072  51.2441728  68.4632560 131.8347244  50.6740945  68.6970390
 130.3461428  50.8563328  68.9039066 120.3766651  54.2058822  61.9549213
 120.2602909  53.5303726  62.6230298 120.4868911  53.7191196  61.1381367
 122.7198192  53.6668970  65.6595903 122.3556399  53.1399590  66.3708824
 123.5765308  53.2767439  65.4862388 128.6247492  44.9563302  72.9227169
 128.2930817  45.8258713  72.6988384 128.0293106  44.6399586  73.6021199
 122.3603679  48.6958869  60.6557251 122.5278081  49.5639106  61.0227722
 122.1700848  48.8586151  59.7318540 125.1179012  57.1575848  72.3223082
 124.8179735  58.0600887  72.2138889 124.7730072  56.8908031  73.1744234
 118.5691493  53.6089645  68.3559786 117.6441990  53.4765859  68.5637478
 118.8175907  54.3883864  68.8529728 128.5176156  49.6758388  70.0020519
 127.6093033  49.6073797  69.7079280 128.4663752  50.1530333  70.8302344
 122.3392900  51.1516527  61.6403918 122.2192525  51.5973577  62.4789398
 121.6445488  51.5001844  61.0817456 115.9300305  53.2522919  69.1903575
 116.0592686  53.5057397  70.1042987 115.2497756  53.8450627  68.8708230
 120.0999792  63.9220168  65.2894049 120.0223822  64.8727994  65.3682530
 119.4961435  63.5766041  65.9468976 122.5917022  51.0948034  77.9455416
 121.8150356  51.6541954  77.9358281 123.2307585  51.5804817  78.4670286
 130.3837802  47.8774827  71.7798393 129.7412182  48.1707360  71.1338187
 129.8792731  47.7627747  72.5851589 128.0377966  51.6238000  62.4684252
 128.9495822  51.8565387  62.2931950 127.5287613  52.2075044  61.9059331
 120.8463394  53.9033487  77.5073383 121.5878078  54.4418531  77.2308207
 120.1400379  54.5299776  77.6644935 126.3218734  56.0462628  76.1045545
 126.7302090  55.6045038  75.3600177 125.5995995  55.4715255  76.3579738
 122.6749804  50.9835234  73.4779102 123.5210999  51.4074648  73.6213751
 122.6148441  50.3268859  74.1717665 126.6447548  56.6063818  69.8597834
 126.0156411  56.7709532  69.1573901 126.2573210  57.0205428  70.6308798
 130.5236780  57.5418256  67.2142197 129.8387818  57.9217158  66.6639231
 130.6080629  58.1513583  67.9474145 125.8249249  48.6439603  75.1360275
 125.5810181  49.3981663  74.5994551 126.1009179  49.0224950  75.9707522
 127.7787712  55.1878215  73.8137541 127.9904607  55.8309975  73.1371922
 127.7317460  54.3540532  73.3459471 125.3813941  47.7996036  70.7174113
 124.5198420  48.0977289  71.0090851 125.4076375  48.0166435  69.7855146
 122.1975510  56.3438226  67.1247919 122.6613856  56.6225929  66.3352541
 121.9332308  55.4421671  66.9421009 119.0899591  55.8909708  70.0627682
 119.6600948  56.3196976  69.4245166 119.6807703  55.6092293  70.7611868
 121.1344396  52.4661379  63.9337484 121.8368439  52.9182422  64.4011410
 120.8025025  51.8245198  64.5617377 119.5824758  51.0573135  78.3088693
 118.9523418  51.7389416  78.5424090 119.4760846  50.9456217  77.3641831
 114.8769730  50.7244931  69.2354617 114.0868784  50.9802460  68.7594728
 115.3680977  51.5393269  69.3406658 128.8933540  58.0650171  71.9859898
 129.7150983  57.6630358  71.7042580 128.8895943  57.9618405  72.9376014
 116.8284475  51.0889511  66.1938094 116.0315639  51.2008205  66.7121590
 116.6010068  51.4276163  65.3278985 122.6590143  57.6134214  74.1420609
 122.7234576  58.0754621  74.9778781 121.9501067  56.9831579  74.2702919
 113.1607433  50.9775422  71.6669608 113.4115471  51.8622432  71.9327184
 113.6966981  50.7980023  70.8944700 136.9839533  54.4088919  68.3344870
 136.2303241  53.8396317  68.1788874 137.1187074  54.3751584  69.2815504
 122.3738161  59.2802321  64.0099589 122.2383836  60.1253857  64.4384437
 122.9147973  59.4821599  63.2465523 118.8605500  45.3593901  80.6713944
 118.4672446  44.8060100  81.3461588 119.6771641  45.6704480  81.0620462
 115.8267558  56.7977759  64.5827514 116.3392079  57.5921010  64.7333079
 116.4790271  56.1004050  64.5161116 117.6362443  59.9143516  66.6650267
 117.8129071  60.8361480  66.4771251 118.4319276  59.6001935  67.0944647
 121.7773461  46.7751780  78.2634201 122.5183175  47.3758933  78.1838663
 122.0091384  46.0329418  77.7052243 116.9214799  51.9608148  76.5412430
 116.8068315  51.0593405  76.8419529 116.0659317  52.2071844  76.1897247
 124.0006637  59.9025888  78.1399931 123.5570491  59.1162266  77.8220836
 124.6623851  60.0905038  77.4743822 118.7593758  61.4321690  72.6660610
 119.3101183  61.3038753  71.8937604 117.9205234  61.7316579  72.3155502
 126.0987875  60.1828688  76.1681332 126.0806351  61.0037569  75.6761602
 127.0207795  60.0582763  76.3931474 122.5560929  57.6972817  77.0104841
 123.0889266  56.9361106  76.7804149 122.0275010  57.4046469  77.7528995
 125.7230624  42.8032883  72.5398482 125.3794894  43.6934525  72.4637593
 126.0909587  42.6134541  71.6768067 113.7916475  55.1266414  65.3587085
 114.6291697  55.5363422  65.1420792 113.9694743  54.1865856  65.3287279
 125.6880907  52.7941494  61.0470918 125.1727530  53.5646099  61.2859305
 125.4158215  52.1206631  61.6703979 123.2728018  47.6391195  66.1056156
 122.4169614  47.2498046  65.9261795 123.6854970  47.7183156  65.2455941
 124.8027165  45.1737538  70.5047716 124.2991960  45.1367674  69.6915521
 125.0957772  46.0830281  70.5644372 121.0470051  45.2576268  69.5113897
 121.9123047  45.0619077  69.1519787 121.1147559  45.0286620  70.4383254
 130.6615181  55.5473849  62.9824091 129.8844624  55.2085009  62.5379253
 131.3406662  55.5526472  62.3079056 125.4767210  50.6668587  62.8730699
 125.1717346  50.9814736  63.7240842 126.4297652  50.7450006  62.9158032
 123.9213642  56.8258810  64.5223653 123.3935004  56.0911569  64.2096890
 123.4201145  57.6033486  64.2763621 128.9006488  55.0207830  69.6390699
 128.2430163  55.7107092  69.7270828 129.7046887  55.4104262  69.9824685
 118.6532370  47.4878476  66.8830264 119.2276122  47.2653658  66.1503457
 119.2403352  47.5567171  67.6358866 127.7111947  53.3752203  67.6894641
 128.2243829  54.0082195  68.1916351 128.3613171  52.7753399  67.3238001
 118.9801957  49.5182937  60.9026150 118.1439269  49.8557624  61.2235424
 118.8406726  49.3831917  59.9653287 120.9555037  44.3619725  65.6105334
 120.3019450  44.0468742  64.9861948 120.9135512  43.7395465  66.3365157
 122.0666242  54.6439020  57.5258626 121.1593304  54.4128274  57.7249775
 122.5637274  53.8476639  57.7132607 124.9734321  63.3536527  60.4455312
 124.2996020  63.6568224  61.0540270 125.3600143  64.1565608  60.0960769
 124.1892778  50.8501659  69.9352981 123.2715339  51.0716606  69.7774669
 124.6052921  50.9247969  69.0764689 124.9727825  52.2493074  65.0655662
 125.7199644  52.7614471  64.7562784 125.2419415  51.9277127  65.9260055
 123.2454476  54.7451615  62.0482616 122.3365695  54.4610648  62.1455086
 123.2749559  55.1650694  61.1885923 128.4773743  58.3558204  65.8173783
 128.0236070  57.5149114  65.8738974 127.8467710  58.9919603  66.1548564
 127.4206663  49.2850190  67.0474451 126.6829419  48.7727577  67.3784693
 127.6733436  48.8450572  66.2357728 126.9206682  60.1934701  66.7523602
 127.2129657  60.7539758  66.0335967 127.4305303  60.4863262  67.5076761
 127.5218290  42.0626442  67.6416220 127.8277167  41.2023806  67.3542135
 128.2470895  42.6544063  67.4415214 113.8142646  52.4657129  66.0297818
 113.6167046  51.8726490  65.3048885 113.2589310  52.1609339  66.7473757
 121.7939370  52.3580236  68.1492411 121.8487979  51.4054072  68.0734888
 120.9830572  52.5139675  68.6333710 122.9430563  56.2860359  59.3870694
 122.5049993  55.5696218  58.9276332 123.6841004  56.5136473  58.8255786
 119.7331730  50.9757295  65.9082790 118.9199595  51.2751466  66.3147982
 120.2290724  50.5812984  66.6257272 121.8840308  60.9715052  67.8417055
 121.8416486  61.1975899  66.9125587 122.8003006  60.7378427  67.9902856
 125.3305941  51.4399120  74.7397684 125.6855329  51.6670593  75.5992150
 125.9778073  51.7717497  74.1174939 131.0603678  54.5617556  65.4447013
 130.9221577  54.7519152  64.5168202 130.7039897  55.3236938  65.9015064
 119.2245804  48.5475651  71.5244025 119.8645184  48.4064410  70.8266988
 118.3923335  48.2610164  71.1482627 131.0873058  56.6294083  70.4558285
 131.5209565  56.5369372  71.3041339 131.8004639  56.6051583  69.8178301
 120.0006108  57.8478081  67.6379018 120.7946707  57.3528401  67.4361592
 119.2897801  57.3195944  67.2746723 124.8200953  60.2296177  71.9891385
 124.8737975  60.7987113  72.7569101 123.9515734  60.3998062  71.6245422
 116.3088872  51.9921163  63.7138770 115.3786460  51.9305618  63.9308732
 116.4046344  51.4697116  62.9175411 116.2274421  48.5175976  66.3017012
 116.4881238  49.4321309  66.1926172 117.0491593  48.0500418  66.4513625
 117.6999346  49.9313733  73.4715836 118.3722400  49.7231095  72.8228485
 116.8729133  49.7335819  73.0321069 131.9488607  56.6717783  72.9891170
 132.1424498  57.5763594  73.2350445 131.8489226  56.2125202  73.8229755
 123.6024918  46.5575674  75.4881497 122.9552833  47.2565624  75.3945974
 124.3725934  46.9911818  75.8557745 127.0103716  56.8224526  78.5632051
 126.8589223  56.5935078  77.6462134 127.0008396  57.7795127  78.5763396
 123.7789053  54.3956439  73.5478317 124.7081113  54.5467598  73.3747284
 123.3580083  54.4840460  72.6926963 122.5777384  58.4207103  71.3176855
 122.4388470  58.0525888  72.1902793 121.7891981  58.9354743  71.1460812
 123.1725536  63.5216200  62.6602391 123.3477292  63.0504243  63.4748014
 122.4858324  64.1481966  62.8883652 124.1282599  57.7988706  68.7065692
 123.7932432  57.7589476  69.6023342 123.6286545  57.1333422  68.2336103
 118.1026843  53.2056336  74.2318274 117.9646641  52.4736575  74.8329813
 119.0131767  53.1165236  73.9502461 127.0641791  55.1444740  58.9802752
 126.4470962  54.4191568  58.8835805 126.5958280  55.9054101  58.6369826
 120.7309144  52.9176295  73.7201953 121.4408763  52.2769487  73.6788572
 120.6878452  53.1689190  74.6428134 128.7195923  59.8543649  76.6408532
 128.6608469  59.1702869  75.9739115 129.1215441  60.5962639  76.1889158
 119.4438078  49.9041513  75.5397593 118.9075435  49.4532252  76.1919189
 118.8554786  50.0387422  74.7968057 117.7386622  66.6705562  69.4342251
 117.9783220  67.3024087  70.1121270 116.8955818  66.3193602  69.7207611
 118.8540337  49.3630165  58.1024056 117.9769803  49.2418965  57.7386303
 119.3298090  48.5716243  57.8502945 128.7213330  57.8183233  74.8722512
 127.8340109  57.4809154  74.9948911 129.2911881  57.0866264  75.1091277
 110.3742477  54.1507324  68.1965563 111.0613517  53.8369054  67.6086579
 110.2190606  55.0548689  67.9232815 115.1777199  49.0397521  72.6250587
 115.0935388  48.4323190  71.8900997 114.3559906  49.5306539  72.6260083
 122.2514483  62.4784685  71.8383755 122.1784655  63.2839656  72.3503060
 121.8091877  62.6776651  71.0131777 122.0404263  61.7156455  65.3486577
 121.2571785  62.2578135  65.4424801 122.7397008  62.2330435  65.7480818
 125.3500913  47.5251084  67.9920782 125.8469613  46.7721047  67.6721852
 124.5787895  47.5615401  67.4263992 133.2030671  53.2291450  69.6339074
 133.1920547  54.1116165  69.2633007 132.3348050  52.8763001  69.4393611
 124.7113167  62.3771519  73.9941914 125.4241139  63.0118984  73.9217815
 124.2203196  62.4735385  73.1781916 126.4330694  56.2822772  65.5659206
 125.4986973  56.4024234  65.3963910 126.6107362  55.3795238  65.3019215
 121.9335882  49.6668467  67.7192467 121.5633669  49.1139508  68.4073372
 122.4294974  49.0626601  67.1667467 129.8203245  52.1240091  66.1009240
 130.2863697  52.9568082  66.0269542 130.2710746  51.6585072  66.8054498
 119.7625080  60.1265962  74.8147485 120.4634540  60.7602445  74.9676879
 119.2920195  60.4680694  74.0543124 127.8879476  58.4683912  63.0995392
 128.1639320  58.3540507  64.0089266 127.0183975  58.0701397  63.0607565
 127.7919908  44.4920678  70.1400141 126.8782988  44.7224905  70.3082348
 128.2213009  44.5759122  70.9914173 127.5626366  52.6810570  72.6400035
 126.9097817  52.9286477  71.9852488 127.9406746  51.8674708  72.3062512
 124.5233540  62.7170263  66.7428205 124.7055935  61.8991919  67.2055958
 125.3466526  62.9337955  66.3053095 124.8575706  61.6438448  64.0043254
 125.3863472  61.1330903  63.3913416 125.1203925  61.3280978  64.8688787
 123.6113939  53.4230381  79.1266072 122.9354576  53.3224510  79.7968447
 124.4341573  53.2669595  79.5902069 115.3592799  59.6602317  71.7478587
 115.9446235  58.9146005  71.8806492 115.1617637  59.9706274  72.6315251
 118.2131454  62.6953565  66.7641030 117.5441829  63.1799692  66.2805070
 118.0744323  62.9422785  67.6784408 109.9510453  52.2307918  70.4683031
 109.9894553  51.6971508  71.2620149 109.4450746  51.7043123  69.8494008
 122.3536722  64.7297308  73.3623688 122.9055030  64.8928930  74.1272773
 122.6942916  65.3201746  72.6903713 117.3301216  47.0772458  73.9645573
 117.3942542  47.9387289  73.5522971 117.2668336  46.4646460  73.2317931
 116.8053488  49.1495591  77.6118607 117.4325527  48.7672668  78.2256131
 115.9481407  48.9309793  77.9774300 127.2047597  59.5558566  79.2172343
 127.7487501  60.1688524  78.7227297 126.6234441  60.1138144  79.7339356
 113.5819031  50.9572020  63.5436962 113.8772472  50.0482698  63.4904016
 112.6807067  50.9359759  63.2217964 125.4905110  62.6779284  70.3487370
 125.3656249  61.8769024  69.8398316 126.1484201  63.1725477  69.8601340
 117.1113278  49.0328016  69.5264511 116.3899864  49.6463984  69.3871984
 117.9006534  49.5685781  69.4481157 127.5540018  60.4788304  71.9766920
 126.6070354  60.3593655  71.9045247 127.9022791  59.5910802  72.0593182
 119.9139591  46.3682443  75.8005162 120.4373993  46.6144739  76.5631472
 119.6951925  47.2002478  75.3808300 115.3106872  48.6386117  63.6676287
 114.9819579  47.7583496  63.4851393 115.6646243  48.5833786  64.5552676
 124.5586451  60.2741020  68.1771273 124.4111414  59.3457728  68.3578843
 125.3839945  60.2961111  67.6928348 118.4248696  48.9259087  64.0351765
 118.7644768  49.4545009  63.3130373 118.8720816  49.2639493  64.8110331
 128.1620573  61.0969579  69.2636145 129.0867121  60.8912440  69.1260597
 127.9935877  60.8485980  70.1725487 121.1192136  47.3096138  73.4854833
 120.7788957  46.5103951  73.8875513 120.4131143  47.6097849  72.9131666
 121.7708608  44.3945450  71.9382156 122.5934678  43.9205929  71.8161046
 122.0146672  45.1735934  72.4380842 120.4116843  47.4233709  62.2345058
 121.1325205  47.8014962  61.7308774 119.7882147  48.1422586  62.3380036
 124.5547966  48.1278858  63.1703390 124.7711580  49.0103496  62.8692218
 124.0742033  47.7365071  62.4409032 119.2947187  51.0864571  69.7474134
 119.1491768  51.4004874  70.6398416 118.8172391  51.7049471  69.1945033
 121.1543570  48.0767119  69.7955024 121.1405139  47.1808212  69.4587322
 121.8715998  48.0837783  70.4293310 123.0069701  48.5104459  71.8408151
 122.7487478  49.4321530  71.8392482 122.4754741  48.1134894  72.5308616
 127.9515889  61.6155246  64.6198237 128.1252767  61.0501669  63.8672089
 128.4444781  62.4156141  64.4377727 113.7692849  53.6269915  72.6861796
 113.2246317  54.4029723  72.8182070 114.6472199  53.9740720  72.5280917
 120.5580466  46.9581499  65.0642594 120.6796377  46.0298146  65.2633482
 120.2682508  46.9720185  64.1520910 123.4271656  44.6436410  68.2009314
 123.4493353  44.7075743  67.2461294 123.8439715  43.8040918  68.3949820
 133.8055281  54.3791669  66.2388537 134.2486427  53.6298995  65.8407660
 132.9281791  54.3701806  65.8562269 128.9391062  60.9322011  61.7195135
 129.6341966  61.5528703  61.9382450 129.2814212  60.0817362  61.9947513
 114.5558871  52.7539812  75.5791953 113.8140607  52.9022447  76.1656583
 114.2351615  53.0148077  74.7158702 130.8382485  58.3821716  63.2482466
 131.3633809  58.7208989  62.5231786 130.7504838  57.4468732  63.0645601
 122.5002534  62.2955790  75.3772343 122.8089660  62.0504937  76.2495042
 123.2978016  62.5002428  74.8891213 115.0015485  60.6405240  67.6102347
 115.8273505  60.3409012  67.2300991 114.6509537  59.8712863  68.0592136
 119.9697018  59.9931709  69.6800021 119.3477027  59.3302414  69.3802249
 120.6401885  60.0192841  68.9973669 113.2024090  58.5591567  68.5691281
 112.3655998  58.1313741  68.3875282 113.1747735  58.7524010  69.5062072
 120.0421545  48.4713497  79.2732527 120.0909701  49.3475619  78.8910296
 120.5844060  47.9290890  78.7004170 130.5276391  59.0154620  78.5533664
 129.7371935  58.9978759  78.0138163 130.2909746  59.5542914  79.3082700
 130.6474266  55.8647086  75.8666392 130.6972271  55.6997094  76.8081915
 130.5388189  54.9974345  75.4764273 119.5310525  58.5435632  63.1558481
 119.6798645  59.2271096  62.5025154 120.3376968  58.5240722  63.6707937
 127.9378028  51.8478014  77.1825699 128.8387891  51.7084479  76.8909697
 128.0126003  52.0132469  78.1223877 122.2720834  49.2244869  76.0278885
 121.4024143  49.5178435  75.7561474 122.5080314  49.8085314  76.7486149
 132.1492463  58.2844028  76.1108414 131.8577271  58.6474008  76.9471875
 131.5364594  57.5711036  75.9321746 133.3488145  55.8496908  68.6310984
 134.1835037  56.2886712  68.7948545 133.4847274  55.3735561  67.8119230
 130.3979651  53.4076642  74.5788472 130.8733773  53.6004289  73.7707323
 129.4745217  53.4635828  74.3331856 117.2863158  54.5700810  64.1619550
 117.0409200  53.6663140  64.3599760 117.4559072  54.5717960  63.2199028
 124.9759868  45.4424486  73.5444306 125.4941811  46.1785513  73.2190794
 124.6215000  45.7488479  74.3791065 116.5558805  50.3029167  61.6605712
 115.8628050  50.3773522  61.0045748 116.3110557  49.5389511  62.1827229
 125.2272462  41.8624769  69.0645202 125.5074216  41.1947958  69.6905629
 126.0123069  42.0553864  68.5519866 123.0305930  61.0383762  60.6270229
 122.4579897  61.6573950  60.1740701 123.6038724  61.5883124  61.1610151
 129.0981320  50.2842403  72.8116778 130.0498743  50.3840500  72.8329002
 128.9284771  49.4920671  73.3214862 127.1195700  47.3697986  72.9976178
 126.5245632  47.6502998  72.3022667 126.8345396  47.8591887  73.7692920
 126.2503190  61.3220913  61.7578811 127.1833863  61.2566474  61.9611687
 126.1626403  62.1577179  61.2993344 128.8791207  60.6386783  58.7182759
 128.8004838  60.3046647  59.6118516 129.7000874  61.1308551  58.7174231
 131.5769398  53.5048522  71.9259077 131.5445718  52.5664523  72.1118761
 132.1870022  53.5832559  71.1924902 123.4152729  52.3744575  57.9686281
 124.3611834  52.2450783  58.0374699 123.0366974  51.6359237  58.4455709
 131.7263886  50.2959566  71.9717360 131.2102935  49.5118022  71.7847289
 132.6103835  49.9678282  72.1363880 129.3874613  44.0400581  67.9313173
 129.1899434  43.7315669  68.8156505 129.9974319  44.7662220  68.0611103
 135.4761245  52.7072392  71.6639565 134.7494408  52.5728357  71.0556057
 135.0608532  53.0149220  72.4696283 123.2991421  56.4262321  79.4286938
 124.2194431  56.6040920  79.6226985 123.2641004  55.4818367  79.2766637
 121.5995646  50.2994552  57.9041166 120.6927101  50.0027664  57.9803880
 121.8771627  50.0024370  57.0375453 112.5173586  51.6200915  68.3540213
 112.1976371  50.7666223  68.0614587 111.9707015  51.8349493  69.1098180
 116.2953494  54.3363356  72.0709719 116.5139504  55.2680464  72.0897753
 116.7079268  53.9771330  72.8564523 123.2157712  44.8431441  64.0585408
 122.4058440  44.4978526  64.4340654 123.9042129  44.5338985  64.6473019
 125.1448260  43.9209488  65.6809704 125.6979299  44.3404942  66.3399727
 125.3818346  42.9945236  65.7232660 121.1681359  49.9096562  81.4612468
 121.0678086  50.8590919  81.3924559 120.9502901  49.5814801  80.5888538
 120.3694431  47.1581487  58.0453146 121.2313595  47.4836385  58.3048963
 120.5544775  46.3712983  57.5326211 112.3861846  55.2403826  70.3233334
 111.6925318  54.8257779  69.8103289 113.1334837  55.2824363  69.7266753
 128.5227067  46.0310013  65.1888369 127.9425736  46.6894817  64.8066421
 128.2563000  45.2087358  64.7775786 126.9730633  45.4315071  67.3909689
 127.4730412  45.5431606  66.5824008 127.6166241  45.1276124  68.0310497
 121.0312629  53.3393701  80.2777530 120.5479711  54.1394061  80.4841419
 121.1173568  53.3501645  79.3244974 114.2998589  55.1722080  68.1999349
 114.2769277  55.2709768  67.2481232 114.6099225  56.0187231  68.5216515
 116.9585967  57.2298235  72.3145964 117.9129220  57.1982178  72.2475895
 116.7598490  56.7688859  73.1296190 117.5485349  55.7999351  74.8816761
 118.3678238  56.2943430  74.9051599 117.8222157  54.8831319  74.8534329
 127.3051945  48.1910104  64.2444717 126.4177800  48.4759754  64.0264912
 127.7205934  48.0303867  63.3971994 130.6566481  48.2156625  67.9599056
 131.4326871  48.7053077  68.2323673 129.9314615  48.6414679  68.4170926
 133.0939040  48.9284244  69.0172997 133.6883531  48.6879980  68.3066305
 133.1665624  48.2091374  69.6446533 115.3136196  62.7717855  69.3316162
 115.1790663  62.0118256  68.7654160 114.8968258  63.4958755  68.8644950
 126.4495159  57.9554778  58.3392737 127.1531009  58.1604781  58.9550393
 125.7257807  58.5231540  58.6041820 127.2792969  53.7064640  64.4595007
 127.2228170  54.1633191  63.6202639 127.8321311  52.9455324  64.2817850
 131.0897775  49.4954371  65.2845127 130.8334709  49.0951007  66.1153334
 130.4650643  50.2098165  65.1595266 135.4010113  52.2350445  67.7916418
 134.8409671  52.3043634  68.5647980 134.7953616  52.0591429  67.0715914
 118.4705321  63.6687172  69.5434604 118.3537706  64.6132604  69.4413295
 117.6497768  63.3660733  69.9320403 128.3581856  58.3937308  60.3891197
 129.1927460  57.9618506  60.2068672 128.1966199  58.2219321  61.3168091
 128.0127748  54.8969421  61.7547536 127.9576552  54.7313692  60.8135980
 127.3873803  55.6045454  61.9109726 112.8020263  50.1337485  75.5808958
 113.4479127  49.6236439  76.0696184 112.5937414  50.8706167  76.1552384
 125.3273655  57.2018333  81.0801099 126.1964815  57.3758985  80.7187734
 124.8480407  58.0212750  80.9576828 121.3223874  44.3977530  61.3332855
 121.3102543  45.3419370  61.4901126 122.2147295  44.2147675  61.0392316
 119.4959836  64.3215434  72.7590533 120.3987082  64.3539044  73.0757028
 119.2697206  63.3915885  72.7736868 121.2513438  63.0746420  69.4200611
 120.3009069  63.0748282  69.3064984 121.5545924  62.3279155  68.9036646
 125.1375993  40.9920306  65.5878791 124.3708389  40.4378793  65.7335474
 125.5486698  41.0642175  66.4492943 117.1417754  47.2805102  79.6783973
 118.0049216  46.9241907  79.8887297 116.5683165  46.9418997  80.3659377
 133.7955837  68.8634387  70.4207898 133.4574349  68.7475451  69.5328433
 134.6645605  68.4625552  70.4008905 129.6542653  70.7169863  66.4104789
 129.0907518  70.6259800  65.6421077 129.5395048  69.8969768  66.8907282
 134.2775620  70.0169238  76.3794104 134.2664261  69.6222037  75.5074608
 134.4396260  69.2835311  76.9727875 127.2007085  72.2121055  69.2489010
 127.9928377  71.8711879  68.8335309 127.4403735  72.3216030  70.1691163
 135.2342212  74.3840831  61.7219254 134.5830191  74.9694911  61.3353268
 136.0286575  74.9147026  61.7814292 129.1597839  71.4729968  62.1206389
 129.9328715  70.9258955  61.9819264 129.5123238  72.3374217  62.3320850
 130.9982881  72.8006350  75.3273288 130.7072747  73.7051981  75.2119954
 131.6339866  72.8422878  76.0417357 131.9239088  70.1783199  71.9174648
 132.5202661  69.9539221  71.2031610 131.9814060  69.4367944  72.5200095
 131.4964117  67.6322634  59.7524839 131.7489637  67.1104155  58.9908302
 130.5588676  67.4688780  59.8551522 136.5407400  66.6358412  67.5599582
 137.3270489  66.2177836  67.2089999 136.8046104  67.5404505  67.7281230
 136.7117477  72.0731263  62.2588239 136.0763310  72.1465889  62.9709143
 136.3814883  72.6624862  61.5807318 131.2160405  69.5350740  61.9549213
 131.0996664  68.8595643  62.6230298 131.3262665  69.0483114  61.1381367
 133.5591946  68.9960887  65.6595903 133.1950154  68.4691508  66.3708824
 134.4159062  68.6059356  65.4862388 133.1997433  64.0250787  60.6557251
 133.3671836  64.8931023  61.0227722 133.0094602  64.1878069  59.7318540
 135.9572767  72.4867766  72.3223082 135.6573490  73.3892805  72.2138889
 135.6123826  72.2199949  73.1744234 129.4085248  68.9381563  68.3559786
 128.4835744  68.8057777  68.5637478 129.6569661  69.7175782  68.8529728
 133.1786654  66.4808444  61.6403918 133.0586279  66.9265495  62.4789398
 132.4839243  66.8293762  61.0817456 126.7694059  68.5814836  69.1903575
 126.8986440  68.8349315  70.1042987 126.0891510  69.1742544  68.8708230
 130.9393546  79.2512086  65.2894049 130.8617576  80.2019911  65.3682530
 130.3355190  78.9057959  65.9468976 133.4310776  66.4239952  77.9455416
 132.6544110  66.9833872  77.9358281 134.0701339  66.9096735  78.4670286
 131.6857148  69.2325405  77.5073383 132.4271833  69.7710449  77.2308207
 130.9794134  69.8591694  77.6644935 137.1612488  71.3754545  76.1045545
 137.5695844  70.9336956  75.3600177 136.4389750  70.8007173  76.3579738
 133.5143558  66.3127152  73.4779102 134.3604753  66.7366566  73.6213751
 133.4542196  65.6560776  74.1717665 137.4841303  71.9355736  69.8597834
 136.8550165  72.1001450  69.1573901 137.0966965  72.3497346  70.6308798
 136.6643003  63.9731521  75.1360275 136.4203935  64.7273581  74.5994551
 136.9402934  64.3516868  75.9707522 136.2207695  63.1287954  70.7174113
 135.3592174  63.4269207  71.0090851 136.2470130  63.3458352  69.7855146
 133.0369265  71.6730144  67.1247919 133.5007610  71.9517847  66.3352541
 132.7726063  70.7713589  66.9421009 129.9293346  71.2201626  70.0627682
 130.4994703  71.6488894  69.4245166 130.5201457  70.9384210  70.7611868
 131.9738151  67.7953296  63.9337484 132.6762194  68.2474340  64.4011410
 131.6418779  67.1537115  64.5617377 130.4218512  66.3865053  78.3088693
 129.7917173  67.0681334  78.5424090 130.3154600  66.2748135  77.3641831
 125.7163485  66.0536849  69.2354617 124.9262539  66.3094378  68.7594728
 126.2074732  66.8685187  69.3406658 127.6678230  66.4181428  66.1938094
 126.8709393  66.5300123  66.7121590 127.4403822  66.7568081  65.3278985
 133.4983898  72.9426132  74.1420609 133.5628330  73.4046539  74.9778781
 132.7894821  72.3123497  74.2702919 124.0001188  66.3067340  71.6669608
 124.2509226  67.1914349  71.9327184 124.5360736  66.1271941  70.8944700
 133.2131915  74.6094239  64.0099589 133.0777590  75.4545775  64.4384437
 133.7541728  74.8113517  63.2465523 129.6999255  60.6885819  80.6713944
 129.3066200  60.1352017  81.3461588 130.5165395  60.9996397  81.0620462
 128.4756197  75.2435433  66.6650267 128.6522826  76.1653398  66.4771251
 129.2713031  74.9293853  67.0944647 132.6167216  62.1043698  78.2634201
 133.3576929  62.7050851  78.1838663 132.8485139  61.3621336  77.7052243
 127.7608554  67.2900065  76.5412430 127.6462069  66.3885323  76.8419529
 126.9053072  67.5363762  76.1897247 134.8400392  75.2317806  78.1399931
 134.3964246  74.4454184  77.8220836 135.5017605  75.4196956  77.4743822
 129.5987513  76.7613607  72.6660610 130.1494938  76.6330671  71.8937604
 128.7598989  77.0608496  72.3155502 133.3954684  73.0264735  77.0104841
 133.9283021  72.2653023  76.7804149 132.8668765  72.7338387  77.7528995
 136.5624379  58.1324801  72.5398482 136.2188648  59.0226443  72.4637593
 136.9303341  57.9426459  71.6768067 136.5274662  68.1233412  61.0470918
 136.0121285  68.8938017  61.2859305 136.2551970  67.4498548  61.6703979
 134.1121773  62.9683113  66.1056156 133.2563369  62.5789963  65.9261795
 134.5248724  63.0475074  65.2455941 135.6420919  60.5029456  70.5047716
 135.1385715  60.4659591  69.6915521 135.9351526  61.4122199  70.5644372
 131.8863805  60.5868186  69.5113897 132.7516802  60.3910995  69.1519787
 131.9541314  60.3578538  70.4383254 136.3160965  65.9960504  62.8730699
 136.0111100  66.3106653  63.7240842 137.2691407  66.0741924  62.9158032
 134.7607397  72.1550727  64.5223653 134.2328758  71.4203487  64.2096890
 134.2594899  72.9325404  64.2763621 129.4926124  62.8170394  66.8830264
 130.0669876  62.5945575  66.1503457 130.0797107  62.8859088  67.6358866
 129.8195711  64.8474855  60.9026150 128.9833024  65.1849541  61.2235424
 129.6800481  64.7123835  59.9653287 131.7948792  59.6911643  65.6105334
 131.1413204  59.3760660  64.9861948 131.7529266  59.0687383  66.3365157
 132.9059997  69.9730938  57.5258626 131.9987058  69.7420191  57.7249775
 133.4031029  69.1768557  57.7132607 135.8128076  78.6828445  60.4455312
 135.1389774  78.9860142  61.0540270 136.1993898  79.4857525  60.0960769
 135.0286532  66.1793576  69.9352981 134.1109094  66.4008523  69.7774669
 135.4446676  66.2539887  69.0764689 135.8121580  67.5784992  65.0655662
 136.5593399  68.0906389  64.7562784 136.0813170  67.2569045  65.9260055
 134.0848230  70.0743533  62.0482616 133.1759449  69.7902565  62.1455086
 134.1143314  70.4942611  61.1885923 132.6333124  67.6872153  68.1492411
 132.6881734  66.7345990  68.0734888 131.8224326  67.8431592  68.6333710
 133.7824318  71.6152276  59.3870694 133.3443748  70.8988135  58.9276332
 134.5234759  71.8428391  58.8255786 130.5725484  66.3049213  65.9082790
 129.7593350  66.6043384  66.3147982 131.0684478  65.9104902  66.6257272
 132.7234062  76.3006970  67.8417055 132.6810241  76.5267816  66.9125587
 133.6396761  76.0670344  67.9902856 136.1699696  66.7691037  74.7397684
 136.5249084  66.9962511  75.5992150 136.8171827  67.1009414  74.1174939
 130.0639559  63.8767568  71.5244025 130.7038938  63.7356328  70.8266988
 129.2317089  63.5902082  71.1482627 130.8399863  73.1769999  67.6379018
 131.6340461  72.6820319  67.4361592 130.1291555  72.6487862  67.2746723
 135.6594707  75.5588094  71.9891385 135.7131730  76.1279031  72.7569101
 134.7909489  75.7289979  71.6245422 127.0668175  63.8467893  66.3017012
 127.3274993  64.7613227  66.1926172 127.8885348  63.3792336  66.4513625
 128.5393101  65.2605651  73.4715836 129.2116154  65.0523013  72.8228485
 127.7122887  65.0627737  73.0321069 134.4418673  61.8867592  75.4881497
 133.7946588  62.5857541  75.3945974 135.2119688  62.3203735  75.8557745
 134.6182807  69.7248356  73.5478317 135.5474867  69.8759516  73.3747284
 134.1973837  69.8132377  72.6926963 133.4171139  73.7499021  71.3176855
 133.2782224  73.3817805  72.1902793 132.6285735  74.2646660  71.1460812
 134.0119291  78.8508117  62.6602391 134.1871046  78.3796161  63.4748014
 133.3252079  79.4773884  62.8883652 134.9676354  73.1280624  68.7065692
 134.6326187  73.0881394  69.6023342 134.4680300  72.4625340  68.2336103
 128.9420598  68.5348254  74.2318274 128.8040396  67.8028492  74.8329813
 129.8525521  68.4457154  73.9502461 131.5702899  68.2468213  73.7201953
 132.2802517  67.6061405  73.6788572 131.5272207  68.4981108  74.6428134
 130.2831833  65.2333431  75.5397593 129.7469190  64.7824169  76.1919189
 129.6948541  65.3679340  74.7968057 128.5780376  81.9997480  69.4342251
 128.8176974  82.6316004  70.1121270 127.7349573  81.6485520  69.7207611
 129.6934091  64.6922082  58.1024056 128.8163558  64.5710883  57.7386303
 130.1691845  63.9008161  57.8502945 121.2136232  69.4799242  68.1965563
 121.9007271  69.1660972  67.6086579 121.0584360  70.3840607  67.9232815
 126.0170954  64.3689439  72.6250587 125.9329142  63.7615108  71.8900997
 125.1953660  64.8598457  72.6260083 133.0908238  77.8076603  71.8383755
 133.0178409  78.6131574  72.3503060 132.6485631  78.0068568  71.0131777
 132.8798018  77.0448373  65.3486577 132.0965539  77.5870053  65.4424801
 133.5790763  77.5622352  65.7480818 136.1894668  62.8543002  67.9920782
 136.6863367  62.1012964  67.6721852 135.4181649  62.8907319  67.4263992
 135.5506921  77.7063437  73.9941914 136.2634894  78.3410901  73.9217815
 135.0596950  77.8027303  73.1781916 137.2724448  71.6114689  65.5659206
 136.3380727  71.7316152  65.3963910 137.4501117  70.7087156  65.3019215
 132.7729636  64.9960385  67.7192467 132.4027424  64.4431425  68.4073372
 133.2688729  64.3918519  67.1667467 130.6018835  75.4557880  74.8147485
 131.3028294  76.0894363  74.9676879 130.1313950  75.7972612  74.0543124
 135.3627295  78.0462181  66.7428205 135.5449689  77.2283837  67.2055958
 136.1860281  78.2629873  66.3053095 135.6969460  76.9730366  64.0043254
 136.2257227  76.4622820  63.3913416 135.9597680  76.6572896  64.8688787
 134.4507694  68.7522299  79.1266072 133.7748331  68.6516428  79.7968447
 135.2735328  68.5961512  79.5902069 120.7904208  67.5599835  70.4683031
 120.8288307  67.0263426  71.2620149 120.2844501  67.0335041  69.8494008
 133.1930477  80.0589226  73.3623688 133.7448785  80.2220848  74.1272773
 133.5336670  80.6493664  72.6903713 128.1694970  62.4064376  73.9645573
 128.2336297  63.2679207  73.5522971 128.1062090  61.7938377  73.2317931
 127.6447243  64.4787508  77.6118607 128.2719281  64.0964586  78.2256131
 126.7875161  64.2601710  77.9774300 136.3298864  78.0071202  70.3487370
 136.2050004  77.2060941  69.8398316 136.9877955  78.5017395  69.8601340
 127.9507032  64.3619934  69.5264511 127.2293618  64.9755902  69.3871984
 128.7400288  64.8977699  69.4481157 130.7533346  61.6974361  75.8005162
 131.2767748  61.9436657  76.5631472 130.5345679  62.5294395  75.3808300
 126.1500627  63.9678035  63.6676287 125.8213333  63.0875414  63.4851393
 126.5039998  63.9125704  64.5552676 135.3980206  75.6032938  68.1771273
 135.2505168  74.6749645  68.3578843 136.2233699  75.6253029  67.6928348
 129.2642450  64.2551005  64.0351765 129.6038523  64.7836926  63.3130373
 129.7114571  64.5931411  64.8110331 131.9585891  62.6388056  73.4854833
 131.6182711  61.8395869  73.8875513 131.2524897  62.9389767  72.9131666
 132.6102363  59.7237368  71.9382156 133.4328432  59.2497846  71.8161046
 132.8540426  60.5027852  72.4380842 131.2510597  62.7525627  62.2345058
 131.9718960  63.1306879  61.7308774 130.6275901  63.4714503  62.3380036
 135.3941720  63.4570776  63.1703390 135.6105334  64.3395413  62.8692218
 134.9135787  63.0656989  62.4409032 130.1340941  66.4156489  69.7474134
 129.9885522  66.7296792  70.6398416 129.6566145  67.0341389  69.1945033
 131.9937324  63.4059037  69.7955024 131.9798893  62.5100130  69.4587322
 132.7109752  63.4129700  70.4293310 133.8463455  63.8396377  71.8408151
 133.5881233  64.7613448  71.8392482 133.3148495  63.4426811  72.5308616
 124.6086604  68.9561833  72.6861796 124.0640072  69.7321641  72.8182070
 125.4865954  69.3032638  72.5280917 131.3974220  62.2873417  65.0642594
 131.5190131  61.3590063  65.2633482 131.1076263  62.3012103  64.1520910
 134.2665411  59.9728327  68.2009314 134.2887107  60.0367661  67.2461294
 134.6833470  59.1332836  68.3949820 125.3952626  68.0831729  75.5791953
 124.6534362  68.2314365  76.1656583 125.0745370  68.3439995  74.7158702
 133.3396288  77.6247708  75.3772343 133.6483415  77.3796854  76.2495042
 134.1371770  77.8294346  74.8891213 133.3616900  79.7785617  67.6077719
 132.9221890  79.2861996  68.3010576 134.1125017  79.2358585  67.3669794
 130.8090772  75.3223626  69.6800021 130.1870782  74.6594331  69.3802249
 131.4795639  75.3484758  68.9973669 130.8815300  63.8005414  79.2732527
 130.9303455  64.6767537  78.8910296 131.4237814  63.2582807  78.7004170
 130.3704279  73.8727550  63.1558481 130.5192400  74.5563014  62.5025154
 131.1770723  73.8532640  63.6707937 133.1114588  64.5536787  76.0278885
 132.2417898  64.8470353  75.7561474 133.3474069  65.1377232  76.7486149
 128.1256912  69.8992727  64.1619550 127.8802954  68.9955057  64.3599760
 128.2952827  69.9009878  63.2199028 135.8153622  60.7716404  73.5444306
 136.3335566  61.5077431  73.2190794 135.4608755  61.0780397  74.3791065
 127.3952560  65.6321085  61.6605712 126.7021805  65.7065440  61.0045748
 127.1504312  64.8681429  62.1827229 136.0666216  57.1916686  69.0645202
 136.3467970  56.5239875  69.6905629 136.8516823  57.3845782  68.5519866
 133.8699685  76.3675680  60.6270229 133.2973652  76.9865867  60.1740701
 134.4432478  76.9175042  61.1610151 134.2546483  67.7036493  57.9686281
 135.2005588  67.5742701  58.0374699 133.8760728  66.9651155  58.4455709
 134.1385176  71.7554239  79.4286938 135.0588185  71.9332838  79.6226985
 134.1034759  70.8110284  79.2766637 132.4389400  65.6286469  57.9041166
 131.5320856  65.3319582  57.9803880 132.7165381  65.3316287  57.0375453
 127.1347248  69.6655274  72.0709719 127.3533258  70.5972381  72.0897753
 127.5473022  69.3063248  72.8564523 134.0551466  60.1723359  64.0585408
 133.2452194  59.8270444  64.4340654 134.7435883  59.8630903  64.6473019
 135.9842014  59.2501406  65.6809704 136.5373053  59.6696859  66.3399727
 136.2212101  58.3237154  65.7232660 132.0075114  65.2388479  81.4612468
 131.9071841  66.1882836  81.3924559 131.7896656  64.9106718  80.5888538
 131.2088185  62.4873404  58.0453146 132.0707349  62.8128303  58.3048963
 131.3938529  61.7004900  57.5326211 123.2255601  70.5695744  70.3233334
 122.5319072  70.1549697  69.8103289 123.9728592  70.6116281  69.7266753
 131.8706384  68.6685618  80.2777530 131.3873465  69.4685978  80.4841419
 131.9567323  68.6793563  79.3244974 125.1392343  70.5013998  68.1999349
 125.1163031  70.6001685  67.2481232 125.4492980  71.3479149  68.5216515
 127.7979721  72.5590153  72.3145964 128.7522975  72.5274095  72.2475895
 127.5992245  72.0980777  73.1296190 128.3879103  71.1291269  74.8816761
 129.2071992  71.6235348  74.9051599 128.6615911  70.2123237  74.8534329
 129.3099076  78.9979089  69.5434604 129.1931460  79.9424522  69.4413295
 128.4891522  78.6952651  69.9320403 123.6414018  65.4629403  75.5808958
 124.2872881  64.9528357  76.0696184 123.4331169  66.1998085  76.1552384
 136.1667410  72.5310250  81.0801099 137.0358569  72.7050903  80.7187734
 135.6874161  73.3504667  80.9576828 132.1617628  59.7269448  61.3332855
 132.1496298  60.6711287  61.4901126 133.0541050  59.5439593  61.0392316
 130.3353590  79.6507351  72.7590533 131.2380837  79.6830962  73.0757028
 130.1090960  78.7207802  72.7736868 132.0907192  78.4038338  69.4200611
 131.1402823  78.4040200  69.3064984 132.3939678  77.6571072  68.9036646
 135.9769748  56.3212224  65.5878791 135.2102143  55.7670711  65.7335474
 136.3880452  56.3934093  66.4492943 127.9811509  62.6097020  79.6783973
 128.8442970  62.2533825  79.8887297 127.4076919  62.2710915  80.3659377
 136.5557239  81.3828767  69.2354617 135.7656293  81.6386295  68.7594728
 137.0468486  82.1977105  69.3406658 134.8394942  81.6359257  71.6669608
 135.0902980  82.5206267  71.9327184 135.3754490  81.4563859  70.8944700
 135.4703984  85.7850249  65.3587085 136.3079206  86.1947257  65.1420792
 135.6482252  84.8449691  65.3287279 135.4930155  83.1240964  66.0297818
 135.2954555  82.5310325  65.3048885 134.9376819  82.8193175  66.7473757
 132.0529986  84.8091160  68.1965563 132.7401026  84.4952890  67.6086579
 131.8978115  85.7132524  67.9232815 136.8564708  79.6981356  72.6250587
 136.7722897  79.0907026  71.8900997 136.0347415  80.1890375  72.6260083
 131.6297962  82.8891753  70.4683031 131.6682062  82.3555344  71.2620149
 131.1238255  82.3626959  69.8494008 135.2606540  81.6155855  63.5436962
 135.5559981  80.7066534  63.4904016 134.3594576  81.5943595  63.2217964
 136.9894381  79.2969953  63.6676287 136.6607088  78.4167332  63.4851393
 137.3433752  79.2417622  64.5552676 135.4480358  84.2853751  72.6861796
 134.9033826  85.0613559  72.8182070 136.3259708  84.6324555  72.5280917
 136.2346380  83.4123647  75.5791953 135.4928116  83.5606282  76.1656583
 135.9139124  83.6731913  74.7158702 136.6802994  91.2989076  67.6102347
 137.5061014  90.9992848  67.2300991 136.3297046  90.5296698  68.0592136
 134.8811599  89.2175402  68.5691281 134.0443507  88.7897577  68.3875282
 134.8535244  89.4107846  69.5062072 134.1961095  82.2784750  68.3540213
 133.8763880  81.4250059  68.0614587 133.6494523  82.4933329  69.1098180
 134.0649355  85.8987662  70.3233334 133.3712827  85.4841615  69.8103289
 134.8122346  85.9408198  69.7266753 135.9786098  85.8305916  68.1999349
 135.9556786  85.9293603  67.2481232 136.2886734  86.6771066  68.5216515
 136.9923704  93.4301690  69.3316162 136.8578172  92.6702091  68.7654160
 136.5755767  94.1542590  68.8644950 134.4807772  80.7921321  75.5808958
 135.1266636  80.2820275  76.0696184 134.2724923  81.5290002  76.1552384
  98.4212284  10.2698456  52.0139356  98.3436314  11.2206281  52.0927836
  97.8173928   9.9244328  52.6714282  97.0806251   7.7799977  59.3905916
  97.6313676   7.6517040  58.6182910  96.2417726   8.0794866  59.0400809
 103.2946813   9.7014815  47.1700619 102.6208512  10.0046511  47.7785576
 103.6812635  10.5043895  46.8206076 101.4938029   9.8694487  49.3847698
 101.6689784   9.3982530  50.1993320 100.8070817  10.4960253  49.6128958
  96.0599114  13.0183850  56.1587558  96.2995712  13.6502374  56.8366576
  95.2168310  12.6671890  56.4452917 100.5726976   8.8262972  58.5629062
 100.4997147   9.6317944  59.0748366 100.1304369   9.0254938  57.7377083
 100.3616755   8.0634742  52.0731883  99.5784277   8.6056422  52.1670108
 101.0609500   8.5808722  52.4726125 103.0325659   8.7249806  60.7187221
 103.7453631   9.3597271  60.6463122 102.5415688   8.8213672  59.9027222
  93.6805291   6.0080605  58.4723894  94.2658728   5.2624293  58.6051798
  93.4830129   6.3184561  59.3560558  96.5343946   9.0431852  53.4886336
  95.8654321   9.5277980  53.0050377  96.3956816   9.2901073  54.4029715
 100.6749215  11.0775596  60.0868995 101.2267523  11.2407217  60.8518080
 101.0155408  11.6680033  59.4149020 100.8215026   8.6434077  62.1017649
 101.1302152   8.3983224  62.9740349 101.6190508   8.8480716  61.6136519
 100.8435638  10.7971987  54.3323026 100.4040628  10.3048366  55.0255882
 101.5943755  10.2544954  54.0915101  93.3227977   6.9883528  54.3347654
  94.1485997   6.6887300  53.9546297  92.9722029   6.2191150  54.7837442
  91.5236582   4.9069854  55.2936587  90.6868490   4.4792028  55.1120589
  91.4960227   5.1002297  56.2307379  93.6348688   9.1196142  56.0561468
  93.5003156   8.3596543  55.4899466  93.2180750   9.8437042  55.5890257
  96.7917814  10.0165459  56.2679911  96.6750198  10.9610892  56.1658601
  95.9710260   9.7139021  56.6565710  97.8172328  10.6693721  59.4835839
  98.7199574  10.7017331  59.8002334  97.5909698   9.7394172  59.4982175
  99.5725930   9.4224707  56.1445918  98.6221561   9.4226569  56.0310290
  99.8758416   8.6757442  55.6281953 115.3078623  15.2585246  57.2091680
 115.9457033  15.1391993  56.5055020 115.1899466  16.2066090  57.2679632
 112.1168330  15.2112674  57.1453205 111.7786841  15.0953739  56.2573740
 112.9858098  14.8103839  57.1254211 107.9755145  17.0648150  53.1350096
 107.4120010  16.9738087  52.3666384 107.8607540  16.2448055  53.6152589
 112.5988113  16.3647526  63.1039411 112.5876753  15.9700324  62.2319914
 112.7608752  15.6313598  63.6973182 105.5219577  18.5599342  55.9734316
 106.3140869  18.2190167  55.5580616 105.7616227  18.6694317  56.8936470
 113.5554704  20.7319118  48.4464561 112.9042684  21.3173199  48.0598575
 114.3499067  21.2625313  48.5059598 107.4810331  17.8208255  48.8451695
 108.2541207  17.2737242  48.7064571 107.8335730  18.6852505  49.0566157
 109.3195374  19.1484638  62.0518595 109.0285240  20.0530268  61.9365261
 109.9552358  19.1901165  62.7662664 110.2451581  16.5261486  58.6419954
 110.8415153  16.3017508  57.9276917 110.3026552  15.7846232  59.2445402
 109.8176609  13.9800921  46.4770145 110.0702130  13.4582443  45.7153608
 108.8801168  13.8167067  46.5796829 115.0329969  18.4209550  48.9833545
 114.3975802  18.4944177  49.6954450 114.7027376  19.0103149  48.3052624
 109.5372898  15.8829027  48.6794520 109.4209156  15.2073931  49.3475604
 109.6475158  15.3961401  47.8626673 111.8804439  15.3439174  52.3841209
 111.5162646  14.8169795  53.0954131 112.7371555  14.9537643  52.2107695
 114.2785259  18.8346053  59.0468388 113.9785982  19.7371092  58.9384195
 113.9336318  18.5678236  59.8989541 107.7297740  15.2859850  55.0805093
 106.8048237  15.1536064  55.2882784 107.9782153  16.0654069  55.5775035
 111.4999146  12.8286732  48.3649225 111.3798772  13.2743782  49.2034705
 110.8051735  13.1772049  47.8062763 105.0906551  14.9293123  55.9148882
 105.2198932  15.1827602  56.8288293 104.4104003  15.5220831  55.5953537
 109.2606039  25.5990373  52.0139356 109.1830068  26.5498198  52.0927836
 108.6567682  25.2536246  52.6714282 111.7523268  12.7718239  64.6700723
 110.9756602  13.3312159  64.6603587 112.3913831  13.2575022  65.1915593
 110.0069641  15.5803692  64.2318690 110.7484325  16.1188736  63.9553513
 109.3006626  16.2069981  64.3890242 115.4824980  17.7232833  62.8290851
 115.8908336  17.2815243  62.0845484 114.7602242  17.1485460  63.0825044
 111.8356050  12.6605439  60.2024408 112.6817246  13.0844853  60.3459057
 111.7754688  12.0039064  60.8962971 115.8053795  18.2834023  56.5843140
 115.1762657  18.4479737  55.8819208 115.4179457  18.6975633  57.3554104
 119.6843027  19.2188461  53.9387504 118.9994065  19.5987362  53.3884537
 119.7686876  19.8283788  54.6719452 116.9393958  16.8648420  60.5382847
 117.1510854  17.5080180  59.8617229 116.8923707  16.0310737  60.0704778
 111.3581757  18.0208431  53.8493225 111.8220102  18.2996134  53.0597848
 111.0938555  17.1191876  53.6666316 108.2505838  17.5679913  56.7872989
 108.8207195  17.9967181  56.1490473 108.8413950  17.2862498  57.4857174
 110.2950643  14.1431584  50.6582790 110.9974686  14.5952627  51.1256717
 109.9631271  13.5015403  51.2862684 108.7431004  12.7343340  65.0334000
 108.1129665  13.4159621  65.2669397 108.6367092  12.6226422  64.0887138
 104.0375977  12.4015136  55.9599924 103.2475031  12.6572665  55.4840035
 104.5287224  13.2163474  56.0651965 118.0539786  19.7420376  58.7105205
 118.8757230  19.3400563  58.4287886 118.0502189  19.6388610  59.6621321
 105.9890722  12.7659716  52.9183401 105.1921886  12.8778410  53.4366896
 105.7616314  13.1046368  52.0524291 111.8196390  19.2904419  60.8665915
 111.8840822  19.7524826  61.7024087 111.1107314  18.6601784  60.9948225
 102.3213680  12.6545627  58.3914915 102.5721718  13.5392637  58.6572491
 102.8573228  12.4750228  57.6190007 111.5344408  20.9572526  50.7344896
 111.3990082  21.8024062  51.1629743 112.0754220  21.1591804  49.9710829
 104.9873805  18.4747964  51.3072821 105.4998325  19.2691215  51.4578385
 105.6396518  17.7774255  51.2406422 106.7968690  21.5913721  53.3895574
 106.9735318  22.5131685  53.2016558 107.5925523  21.2772140  53.8189954
 106.0821046  13.6378353  63.2657737 105.9674561  12.7363610  63.5664836
 105.2265564  13.8842049  62.9142554 113.1612884  21.5796093  64.8645238
 112.7176738  20.7932471  64.5466142 113.8230097  21.7675243  64.1989129
 107.9200005  23.1091894  59.3905916 108.4707430  22.9808958  58.6182910
 107.0811481  23.4086783  59.0400809 115.2594122  21.8598893  62.8926639
 115.2412597  22.6807774  62.4006908 116.1814042  21.7352968  63.1176780
 111.7167176  19.3743022  63.7350147 112.2495513  18.6131310  63.5049455
 111.1881257  19.0816674  64.4774302 102.9522722  16.8036619  52.0832391
 103.7897944  17.2133627  51.8666099 103.1300989  15.8636061  52.0532585
 114.8487154  14.4711699  47.7716224 114.3333777  15.2416304  48.0104612
 114.5764462  13.7976835  48.3949286 119.8221428  17.2244054  49.7069398
 119.0450871  16.8855213  49.2624560 120.5012909  17.2296677  49.0324363
 113.0819889  18.5029015  51.2468959 112.5541250  17.7681774  50.9342197
 112.5807392  19.2803691  51.0008928 118.0612735  16.6978035  56.3636006
 117.4036409  17.3877297  56.4516134 118.8653134  17.0874467  56.7069992
 116.8718194  15.0522408  54.4139947 117.3850075  15.6852400  54.9161657
 117.5219418  14.4523603  54.0483307 108.1408204  11.1953142  47.6271456
 107.3045516  11.5327829  47.9480731 108.0012973  11.0602122  46.6898593
 111.2272489  16.3209225  44.2503932 110.3199551  16.0898478  44.4495081
 111.7243521  15.5246844  44.4377914 114.1340568  25.0306732  47.1700619
 113.4602267  25.3338429  47.7785576 114.5206390  25.8335813  46.8206076
 113.3499024  12.5271863  56.6598288 112.4321586  12.7486810  56.5019976
 113.7659168  12.6018174  55.8009995 114.1334072  13.9263279  51.7900968
 114.8805891  14.4384676  51.4808090 114.4025662  13.6047332  52.6505362
 112.4060722  16.4221820  48.7727923 111.4971942  16.1380853  48.8700392
 112.4355806  16.8420898  47.9131229 117.6379990  20.0328409  52.5419090
 117.1842317  19.1919319  52.5984281 117.0073957  20.6689808  52.8793870
 116.0812929  21.8704906  53.4768908 116.3735903  22.4309963  52.7581274
 116.5911550  22.1633467  54.2322067 102.9748893  14.1427334  52.7543125
 102.7773293  13.5496695  52.0294191 102.4195557  13.8379544  53.4719064
 110.9545616  14.0350440  54.8737718 111.0094226  13.0824277  54.7980194
 110.1436819  14.1909880  55.3579016 112.1036810  17.9630564  46.1116001
 111.6656240  17.2466422  45.6521638 112.8447251  18.1906678  45.5501092
 108.8937976  12.6527500  52.6328097 108.0805842  12.9521671  53.0393289
 109.3896971  12.2583189  53.3502579 111.0446554  22.6485257  54.5662361
 111.0022733  22.8746103  53.6370893 111.9609253  22.4148632  54.7148163
 114.4912188  13.1169325  61.4642991 114.8461576  13.3440798  62.3237456
 115.1384319  13.4487701  60.8420246 120.2209925  16.2387761  52.1692320
 120.0827824  16.4289357  51.2413509 119.8646144  17.0007143  52.6260371
 120.2479305  18.3064288  57.1803591 120.6815811  18.2139577  58.0286645
 120.9610885  18.2821788  56.5423607 109.1612355  19.5248286  54.3624324
 109.9552954  19.0298606  54.1606899 108.4504047  18.9966149  53.9992030
 113.9807200  21.9066382  58.7136692 114.0344222  22.4757318  59.4814408
 113.1121981  22.0768267  58.3490729 105.4695119  13.6691368  50.4384077
 104.5392707  13.6075823  50.6554039 105.5652591  13.1467321  49.6420718
 105.3880668  10.1946181  53.0262318 105.6487485  11.1091514  52.9171479
 106.2097840   9.7270623  53.1758931 106.8605593  11.6083938  60.1961143
 107.5328646  11.4001300  59.5473792 106.0335379  11.4106024  59.7566375
 121.1094854  18.3487988  59.7136477 121.3030744  19.2533799  59.9595751
 121.0095472  17.8895407  60.5475062 116.1709963  18.4994731  65.2877357
 116.0195469  18.2705283  64.3707441 116.1614642  19.4565332  65.3008702
 112.9395299  16.0726644  60.2723624 113.8687359  16.2237803  60.0992591
 112.5186329  16.1610665  59.4172270 111.7383631  20.0977308  58.0422161
 111.5994717  19.7296093  58.9148099 110.9498227  20.6124948  57.8706119
 112.3331783  25.1986405  49.3847698 112.5083539  24.7274448  50.1993320
 111.6464571  25.8252171  49.6128958 113.2888846  19.4758911  55.4310999
 112.9538679  19.4359681  56.3268649 112.7892792  18.8103627  54.9581409
 107.2633090  14.8826541  60.9563580 107.1252888  14.1506780  61.5575119
 108.1738014  14.7935441  60.6747768 116.2248038  16.8214945  45.7048059
 115.6077208  16.0961773  45.6081111 115.7564526  17.5824305  45.3615133
 109.8915391  14.5946500  60.4447260 110.6015009  13.9539692  60.4033878
 109.8484699  14.8459395  61.3673441 117.8802170  21.5313854  63.3653839
 117.8214716  20.8473074  62.6984422 118.2821688  22.2732844  62.9134465
 108.6044325  11.5811718  62.2642899 108.0681682  11.1302457  62.9164496
 108.0161033  11.7157627  61.5213364 106.8992868  28.3475767  56.1587558
 107.1389467  28.9794292  56.8366576 106.0562065  27.9963807  56.4452917
 108.0146584  11.0400369  44.8269363 107.1376050  10.9189170  44.4631610
 108.4904337  10.2486448  44.5748252 117.8819577  19.4953437  61.5967819
 116.9946356  19.1579359  61.7194218 118.4518128  18.7636469  61.8336584
  99.5348724  15.8277529  54.9210870 100.2219764  15.5139259  54.3331885
  99.3796853  16.7318894  54.6478122 104.3383446  10.7167726  59.3495894
 104.2541635  10.1093395  58.6146304 103.5166152  11.2076744  59.3505390
 111.4120730  24.1554890  58.5629062 111.3390902  24.9609861  59.0748366
 110.9698123  24.3546856  57.7377083 111.2010510  23.3926660  52.0731883
 110.4178032  23.9348340  52.1670108 111.9003255  23.9100639  52.4726125
 113.8719414  24.0541724  60.7187221 114.5847386  24.6889189  60.6463122
 113.3809442  24.1505590  59.9027222 115.5936941  17.9592977  52.2904512
 114.6593219  18.0794439  52.1209217 115.7713609  17.0565443  52.0264522
 108.9231327  21.8036167  61.5392791 109.6240787  22.4372650  61.6922186
 108.4526442  22.1450899  60.7788431 117.0485723  20.1454117  49.8240698
 117.3245567  20.0310712  50.7334572 116.1790222  19.7471602  49.7852872
 116.7232613  14.3580775  59.3645342 116.0704063  14.6056682  58.7097795
 117.1012993  13.5444913  59.0307819 113.6839787  24.3940468  53.4673512
 113.8662182  23.5762124  53.9301264 114.5072773  24.6108160  53.0298402
 114.0181953  23.3208653  50.7288561 114.5469719  22.8101108  50.1158723
 114.2810172  23.0051183  51.5934094 112.7720186  15.1000586  65.8511379
 112.0960823  14.9994715  66.5213754 113.5947820  14.9439800  66.3147376
 104.5199045  21.3372522  58.4723894 105.1052482  20.5916210  58.6051798
 104.3223884  21.6476479  59.3560558 107.3737701  24.3723770  53.4886336
 106.7048076  24.8569897  53.0050377 107.2350570  24.6192990  54.4029715
  99.1116700  13.9078123  57.1928337  99.1500800  13.3741713  57.9865455
  98.6056993  13.3813328  56.5739314 111.5142969  26.4067513  60.0868995
 112.0661277  26.5699135  60.8518080 111.8549163  26.9971951  59.4149020
 105.9659735  10.8265796  64.3363914 106.5931774  10.4442873  64.9501438
 105.1087654  10.6079998  64.7019606 116.3653843  21.2328771  65.9417649
 116.9093747  21.8458729  65.4472604 115.7840688  21.7908349  66.4584662
 102.7425278  12.6342225  50.2682269 103.0378719  11.7252903  50.2149322
 101.8413313  12.6129964  49.9463271 114.6511356  24.3549489  57.0732677
 114.5262496  23.5539229  56.5643622 115.3090447  24.8495682  56.5846647
 106.2719525  10.7098221  56.2509817 105.5506110  11.3234189  56.1117291
 107.0612780  11.2455986  56.1726463 116.7146265  22.1558509  58.7012227
 115.7676600  22.0363860  58.6290554 117.0629038  21.2681007  58.7838489
 104.4713119  10.3156322  50.3921594 104.1425825   9.4353701  50.2096700
 104.8252490  10.2603991  51.2797983 113.7192698  21.9511225  54.9016579
 113.5717660  21.0227933  55.0824149 114.5446192  21.9731316  54.4173655
 107.5854942  10.6029292  50.7597071 107.9251015  11.1315213  50.0375680
 108.0327063  10.9409698  51.5355638 117.3226820  22.7739784  55.9881452
 118.2473367  22.5682645  55.8505903 117.1542123  22.5256185  56.8970794
 108.4553434  12.7634776  56.4719441 108.3098014  13.0775079  57.3643723
 107.9778637  13.3819676  55.9190340 117.1122136  23.2925451  51.3443544
 117.2859014  22.7271874  50.5917396 117.6051027  24.0926346  51.1623033
 102.9299096  15.3040120  59.4107102 102.3852564  16.0799928  59.5427377
 103.8078446  15.6510925  59.2526224 118.0997309  22.6092216  48.4440442
 118.7948213  23.2298908  48.6627756 118.4420459  21.7587567  48.7192820
 103.7165118  14.4310017  62.3037259 102.9746854  14.5792652  62.8901890
 103.3957862  14.6918282  61.4404009 119.9988732  20.0591921  49.9727773
 120.5240056  20.3979194  49.2477093 119.9111084  19.1238937  49.7890907
 111.6608780  23.9725995  62.1017649 111.9695907  23.7275142  62.9740349
 112.4584262  24.1772633  61.6136519 111.6829392  26.1263905  54.3323026
 111.2434383  25.6340283  55.0255882 112.4337509  25.5836872  54.0915101
 104.1621731  22.3175445  54.3347654 104.9879751  22.0179217  53.9546297
 103.8115783  21.5483068  54.7837442 109.1303265  21.6701914  56.4045327
 108.5083274  21.0072619  56.1047555 109.8008132  21.6963045  55.7218975
 102.3630336  20.2361772  55.2936587 101.5262245  19.8083946  55.1120589
 102.3353982  20.4294215  56.2307379 119.6882638  20.6924825  65.2778971
 118.8978181  20.6748964  64.7383470 119.4515992  21.2313119  66.0328007
 119.8080513  17.5417291  62.5911699 119.8578518  17.3767299  63.5327222
 119.6994436  16.6744550  62.2009580 108.6916772  20.2205837  49.8803788
 108.8404892  20.9041301  49.2270461 109.4983215  20.2010927  50.3953244
 121.3098710  19.9614233  62.8353721 121.0183518  20.3244213  63.6717182
 120.6970841  19.2481241  62.6567053 122.5094392  17.5267113  55.3556291
 123.3441283  17.9656917  55.5193851 122.6453521  17.0505766  54.5364537
 119.5585898  15.0846847  61.3033779 120.0340019  15.2774494  60.4952630
 118.6351463  15.1406033  61.0577162 106.4469405  16.2471015  50.8864857
 106.2015446  15.3433345  51.0845067 106.6165319  16.2488165  49.9444335
 105.7165052  11.9799372  48.3851018 105.0234297  12.0543727  47.7291054
 105.4716804  11.2159716  48.9072535 112.1912177  22.7153967  47.3515535
 111.6186144  23.3344155  46.8986007 112.7644971  23.2653329  47.8855457
 115.4109437  22.9991118  48.4824118 116.3440110  22.9336679  48.6856993
 115.3232650  23.8347384  48.0238650 118.0397454  22.3156988  45.4428065
 117.9611085  21.9816851  46.3363823 118.8607120  22.8078756  45.4419538
 112.5758976  14.0514780  44.6931588 113.5218080  13.9220988  44.7620006
 112.1973221  13.3129442  45.1701016 112.4597668  18.1032526  66.1532245
 113.3800678  18.2811125  66.3472291 112.4247251  17.1588572  66.0011944
 110.7601893  11.9764757  44.6286473 109.8533348  11.6797869  44.7049187
 111.0377874  11.6794575  43.7620759 101.6779833  13.2971120  55.0785519
 101.3582617  12.4436428  54.7859893 101.1313261  13.5119698  55.8343487
 105.4559741  16.0133561  58.7955026 105.6745750  16.9450669  58.8143060
 105.8685514  15.6541535  59.5809830 110.3287606  11.5866767  68.1857775
 110.2284333  12.5361124  68.1169866 110.1109148  11.2585006  67.3133845
 101.5468093  16.9174031  57.0478641 100.8531565  16.5027984  56.5348595
 102.2941084  16.9594568  56.4512060 110.1918876  15.0163906  67.0022837
 109.7085958  15.8164266  67.2086726 110.2779815  15.0271850  66.0490281
 103.4604836  16.8492285  54.9244656 103.4375524  16.9479972  53.9726539
 103.7705472  17.6957436  55.2461822 106.1192213  18.9068440  59.0391270
 107.0735467  18.8752383  58.9721202 105.9204737  18.4459064  59.8541496
 106.7091596  17.4769556  61.6062068 107.5284485  17.9713635  61.6296905
 106.9828403  16.5601524  61.5779636 104.4742442  24.4488060  56.0561468
 104.3396910  23.6888461  55.4899466 104.0574505  25.1728960  55.5890257
 115.6101405  19.6324983  45.0638044 116.3137255  19.8374986  45.6795699
 114.8864054  20.2001745  45.3287127 116.4399216  15.3834845  51.1840314
 116.3834417  15.8403396  50.3447946 116.9927558  14.6225529  51.0063156
 107.6311568  25.3457377  56.2679911 107.5143952  26.2902809  56.1658601
 106.8104014  25.0430938  56.6565710 117.5188103  20.0707512  47.1136504
 118.3533707  19.6388711  46.9313978 117.3572446  19.8989526  48.0413398
 117.1733995  16.5739626  48.4792843 117.1182799  16.4083897  47.5381287
 116.5480050  17.2815659  48.6355033 101.9626510  11.8107690  62.3054265
 102.6085373  11.3006644  62.7941490 101.7543661  12.5476372  62.8797690
 114.4879902  18.8788538  67.8046406 115.3571062  19.0529190  67.4433041
 114.0086654  19.6982954  67.6822135 108.6566082  25.9985639  59.4835839
 109.5593329  26.0309249  59.8002334 108.4303452  25.0686090  59.4982175
 110.4119684  24.7516625  56.1445918 109.4615315  24.7518487  56.0310290
 110.7152170  24.0049360  55.6281953 126.1472378  30.5877164  57.2091680
 126.7850788  30.4683911  56.5055020 126.0293221  31.5358008  57.2679632
 122.9562084  30.5404592  57.1453205 122.6180596  30.4245656  56.2573740
 123.8251852  30.1395757  57.1254211 118.8148900  32.3940068  53.1350096
 118.2513765  32.3030005  52.3666384 118.7001295  31.5739973  53.6152589
 123.4381867  31.6939443  63.1039411 123.4270508  31.2992242  62.2319914
 123.6002507  30.9605516  63.6973182 116.3613332  33.8891260  55.9734316
 117.1534624  33.5482084  55.5580616 116.6009982  33.9986235  56.8936470
 124.3948458  36.0611036  48.4464561 123.7436438  36.6465116  48.0598575
 125.1892821  36.5917231  48.5059598 118.3204086  33.1500173  48.8451695
 119.0934962  32.6029160  48.7064571 118.6729485  34.0144422  49.0566157
 120.1589128  34.4776555  62.0518595 119.8678994  35.3822186  61.9365261
 120.7946113  34.5193083  62.7662664 121.0845335  31.8553404  58.6419954
 121.6808907  31.6309426  57.9276917 121.1420307  31.1138149  59.2445402
 120.6570363  29.3092839  46.4770145 120.9095884  28.7874360  45.7153608
 119.7194923  29.1458984  46.5796829 125.7013646  28.3128617  54.2844888
 126.4876736  27.8948041  53.9335305 125.9652351  29.2174710  54.4526537
 125.8723724  33.7501468  48.9833545 125.2369557  33.8236094  49.6954450
 125.5421130  34.3395067  48.3052624 131.1022073  28.2503851  55.1877867
 131.8347245  27.6803067  55.4215696 130.3461429  27.8625451  55.6284372
 120.3766652  31.2120945  48.6794520 120.2602910  30.5365848  49.3475604
 120.4868912  30.7253319  47.8626673 122.7198193  30.6731092  52.3841209
 122.3556400  30.1461713  53.0954131 123.5765309  30.2829561  52.2107695
 128.6247494  21.9625425  59.6472475 128.2930819  22.8320836  59.4233690
 128.0293107  21.6461709  60.3266506 122.3603680  25.7020992  47.3802558
 122.5278082  26.5701228  47.7473029 122.1700849  25.8648274  46.4563847
 125.1179013  34.1637971  59.0468388 124.8179736  35.0663010  58.9384195
 124.7730073  33.8970154  59.8989541 118.5691495  30.6151768  55.0805093
 117.6441991  30.4827982  55.2882784 118.8175908  31.3945987  55.5775035
 128.5176157  26.6820511  56.7265826 127.6093034  26.6135919  56.4324587
 128.4663753  27.1592456  57.5547651 122.3392901  28.1578649  48.3649225
 122.2192526  28.6035700  49.2034705 121.6445489  28.5063967  47.8062763
 115.9300306  30.2585041  55.9148882 116.0592687  30.5119520  56.8288293
 115.2497757  30.8512749  55.5953537 120.0999793  40.9282291  52.0139356
 120.0223823  41.8790116  52.0927836 119.4961437  40.5828164  52.6714282
 122.5917023  28.1010156  64.6700723 121.8150357  28.6604077  64.6603587
 123.2307586  28.5866939  65.1915593 130.3837803  24.8836949  58.5043699
 129.7412184  25.1769482  57.8583494 129.8792732  24.7689870  59.3096896
 128.0377967  28.6300122  49.1929559 128.9495823  28.8627509  49.0177256
 127.5287614  29.2137167  48.6304637 120.8463395  30.9095610  64.2318690
 121.5878080  31.4480654  63.9553513 120.1400381  31.5361899  64.3890242
 126.3218735  33.0524750  62.8290851 126.7302091  32.6107161  62.0845484
 125.5995996  32.4777378  63.0825044 122.6749805  27.9897357  60.2024408
 123.5211000  28.4136771  60.3459057 122.6148443  27.3330981  60.8962971
 126.6447549  33.6125941  56.5843140 126.0156412  33.7771655  55.8819208
 126.2573212  34.0267550  57.3554104 130.5236781  34.5480379  53.9387504
 129.8387819  34.9279280  53.3884537 130.6080631  35.1575705  54.6719452
 125.8249250  25.6501725  61.8605582 125.5810182  26.4043786  61.3239858
 126.1009181  26.0287073  62.6952829 127.7787713  32.1940338  60.5382847
 127.9904608  32.8372098  59.8617229 127.7317461  31.3602654  60.0704778
 125.3813942  24.8058158  57.4419420 124.5198421  25.1039412  57.7336157
 125.4076377  25.0228557  56.5100452 122.1975511  33.3500349  53.8493225
 122.6613857  33.6288052  53.0597848 121.9332309  32.4483794  53.6666316
 119.0899592  32.8971831  56.7872989 119.6600949  33.3259099  56.1490473
 119.6807704  32.6154415  57.4857174 121.1344397  29.4723501  50.6582790
 121.8368441  29.9244545  51.1256717 120.8025026  28.8307320  51.2862684
 119.5824759  28.0635258  65.0334000 118.9523419  28.7451539  65.2669397
 119.4760847  27.9518340  64.0887138 114.8769731  27.7307054  55.9599924
 114.0868785  27.9864583  55.4840035 115.3680979  28.5455392  56.0651965
 128.8933541  35.0712293  58.7105205 129.7150985  34.6692481  58.4287886
 128.8895944  34.9680527  59.6621321 116.8284477  28.0951633  52.9183401
 116.0315640  28.2070328  53.4366896 116.6010069  28.4338286  52.0524291
 122.6590144  34.6196337  60.8665915 122.7234577  35.0816744  61.7024087
 121.9501068  33.9893701  60.9948225 113.1607434  27.9837545  58.3914915
 113.4115473  28.8684554  58.6572491 113.6966983  27.8042146  57.6190007
 136.9839534  31.4151042  55.0590176 136.2303242  30.8458440  54.9034181
 137.1187075  31.3813706  56.0060811 122.3738162  36.2864444  50.7344896
 122.2383837  37.1315980  51.1629743 122.9147974  36.4883722  49.9710829
 118.8605502  22.3656024  67.3959251 118.4672447  21.8122222  68.0706895
 119.6771642  22.6766602  67.7865768 115.8267559  33.8039882  51.3072821
 116.3392080  34.5983132  51.4578385 116.4790272  33.1066173  51.2406422
 117.6362444  36.9205638  53.3895574 117.8129072  37.8423603  53.2016558
 118.4319278  36.6064058  53.8189954 121.7773463  23.7813903  64.9879507
 122.5183176  24.3821056  64.9083970 122.0091385  23.0391541  64.4297550
 116.9214801  28.9670270  63.2657737 116.8068316  28.0655527  63.5664836
 116.0659318  29.2133967  62.9142554 124.0006638  36.9088011  64.8645238
 123.5570493  36.1224389  64.5466142 124.6623852  37.0967161  64.1989129
 118.7593760  38.4383812  59.3905916 119.3101185  38.3100875  58.6182910
 117.9205235  38.7378701  59.0400809 126.0987876  37.1890810  62.8926639
 126.0806352  38.0099691  62.4006908 127.0207796  37.0644886  63.1176780
 122.5560931  34.7034940  63.7350147 123.0889267  33.9423228  63.5049455
 122.0275012  34.4108592  64.4774302 125.7230626  19.8095006  59.2643789
 125.3794895  20.6996648  59.1882900 126.0909588  19.6196664  58.4013374
 113.7916476  32.1328536  52.0832391 114.6291698  32.5425545  51.8666099
 113.9694744  31.1927979  52.0532585 125.6880908  29.8003617  47.7716224
 125.1727532  30.5708222  48.0104612 125.4158217  29.1268753  48.3949286
 123.2728019  24.6453318  52.8301463 122.4169616  24.2560168  52.6507101
 123.6854971  24.7245279  51.9701248 124.8027166  22.1799661  57.2293022
 124.2991962  22.1429796  56.4160828 125.0957773  23.0892404  57.2889679
 121.0470052  22.2638391  56.2359204 121.9123049  22.0681199  55.8765094
 121.1147561  22.0348743  57.1628561 130.6615182  32.5535972  49.7069398
 129.8844625  32.2147131  49.2624560 131.3406663  32.5588595  49.0324363
 125.4767211  27.6730709  49.5976005 125.1717347  27.9876858  50.4486149
 126.4297654  27.7512129  49.6403338 123.9213643  33.8320932  51.2468959
 123.3935005  33.0973692  50.9342197 123.4201146  34.6095609  51.0008928
 128.9006489  32.0269953  56.3636006 128.2430164  32.7169214  56.4516134
 129.7046889  32.4166385  56.7069992 118.6532371  24.4940599  53.6075571
 119.2276123  24.2715780  52.8748764 119.2403353  24.5629293  54.3604172
 127.7111948  30.3814326  54.4139947 128.2243830  31.0144317  54.9161657
 128.3613172  29.7815521  54.0483307 118.9801958  26.5245060  47.6271456
 118.1439270  26.8619746  47.9480731 118.8406728  26.3894040  46.6898593
 120.9555039  21.3681848  52.3350640 120.3019451  21.0530865  51.7107255
 120.9135513  20.7457588  53.0610463 122.0666243  31.6501143  44.2503932
 121.1593305  31.4190396  44.4495081 122.5637275  30.8538762  44.4377914
 124.9734322  40.3598650  47.1700619 124.2996021  40.6630347  47.7785576
 125.3600144  41.1627730  46.8206076 124.1892779  27.8563781  56.6598288
 123.2715340  28.0778728  56.5019976 124.6052923  27.9310092  55.8009995
 124.9727827  29.2555197  51.7900968 125.7199646  29.7676594  51.4808090
 125.2419416  28.9339250  52.6505362 123.2454477  31.7513738  48.7727923
 122.3365696  31.4672770  48.8700392 123.2749561  32.1712816  47.9131229
 128.4773744  35.3620327  52.5419090 128.0236071  34.5211237  52.5984281
 127.8467711  35.9981725  52.8793870 127.4206664  26.2912313  53.7719758
 126.6829421  25.7789699  54.1030000 127.6733437  25.8512695  52.9603034
 126.9206684  37.1996824  53.4768908 127.2129658  37.7601881  52.7581274
 127.4305304  37.4925385  54.2322067 127.5218291  19.0688565  54.3661527
 127.8277168  18.2085929  54.0787442 128.2470896  19.6606185  54.1660521
 113.8142647  29.4719252  52.7543125 113.6167047  28.8788612  52.0294191
 113.2589311  29.1671462  53.4719064 121.7939371  29.3642358  54.8737718
 121.8487981  28.4116195  54.7980194 120.9830573  29.5201797  55.3579016
 122.9430565  33.2922481  46.1116001 122.5049995  32.5758340  45.6521638
 123.6841006  33.5198596  45.5501092 119.7331731  27.9819418  52.6328097
 118.9199596  28.2813588  53.0393289 120.2290725  27.5875107  53.3502579
 121.8840309  37.9777175  54.5662361 121.8416488  38.2038021  53.6370893
 122.8003008  37.7440549  54.7148163 125.3305943  28.4461242  61.4642991
 125.6855330  28.6732716  62.3237456 125.9778074  28.7779619  60.8420246
 131.0603680  31.5679678  52.1692320 130.9221578  31.7581274  51.2413509
 130.7039898  32.3299061  52.6260371 119.2245806  25.5537773  58.2489332
 119.8645185  25.4126533  57.5512295 118.3923336  25.2672287  57.8727934
 131.0873059  33.6356205  57.1803591 131.5209566  33.5431494  58.0286645
 131.8004640  33.6113706  56.5423607 120.0006110  34.8540204  54.3624324
 120.7946708  34.3590524  54.1606899 119.2897802  34.3258067  53.9992030
 124.8200954  37.2358299  58.7136692 124.8737976  37.8049236  59.4814408
 123.9515735  37.4060184  58.3490729 116.3088873  28.9983286  50.4384077
 115.3786461  28.9367741  50.6554039 116.4046345  28.4759238  49.6420718
 116.2274422  25.5238098  53.0262318 116.4881239  26.4383432  52.9171479
 117.0491594  25.0562541  53.1758931 117.6999347  26.9375856  60.1961143
 118.3722401  26.7293218  59.5473792 116.8729134  26.7397942  59.7566375
 131.9488609  33.6779906  59.7136477 132.1424499  34.5825716  59.9595751
 131.8489227  33.2187325  60.5475062 123.6024919  23.5637796  62.2126804
 122.9552834  24.2627746  62.1191280 124.3725935  23.9973940  62.5803052
 127.0103717  33.8286649  65.2877357 126.8589224  33.5997200  64.3707441
 127.0008397  34.7857250  65.3008702 123.7789054  31.4018561  60.2723624
 124.7081114  31.5529721  60.0992591 123.3580084  31.4902582  59.4172270
 122.5777386  35.4269226  58.0422161 122.4388471  35.0588010  58.9148099
 121.7891982  35.9416865  57.8706119 123.1725538  40.5278322  49.3847698
 123.3477293  40.0566365  50.1993320 122.4858326  41.1544088  49.6128958
 124.1282601  34.8050829  55.4310999 123.7932433  34.7651598  56.3268649
 123.6286546  34.1395544  54.9581409 118.1026845  30.2118459  60.9563580
 117.9646643  29.4798697  61.5575119 119.0131768  30.1227359  60.6747768
 127.0641792  32.1506863  45.7048059 126.4470963  31.4253691  45.6081111
 126.5958281  32.9116223  45.3615133 120.7309145  29.9238418  60.4447260
 121.4408764  29.2831610  60.4033878 120.6878453  30.1751313  61.3673441
 128.7195924  36.8605771  63.3653839 128.6608470  36.1764991  62.6984422
 129.1215442  37.6024761  62.9134465 119.4438079  26.9103636  62.2642899
 118.9075436  26.4594374  62.9164496 118.8554788  27.0449545  61.5213364
 117.7386623  43.6767685  56.1587558 117.9783221  44.3086209  56.8366576
 116.8955819  43.3255725  56.4452917 118.8540338  26.3692287  44.8269363
 117.9769805  26.2481088  44.4631610 119.3298091  25.5778365  44.5748252
 128.7213331  34.8245355  61.5967819 127.8340110  34.4871277  61.7194218
 129.2911882  34.0928386  61.8336584 110.3742478  31.1569447  54.9210870
 111.0613518  30.8431177  54.3331885 110.2190607  32.0610812  54.6478122
 115.1777201  26.0459643  59.3495894 115.0935389  25.4385313  58.6146304
 114.3559907  26.5368662  59.3505390 122.2514485  39.4846807  58.5629062
 122.1784656  40.2901779  59.0748366 121.8091878  39.6838773  57.7377083
 122.0404264  38.7218578  52.0731883 121.2571786  39.2640258  52.1670108
 122.7397009  39.2392557  52.4726125 125.3500914  24.5313207  54.7166089
 125.8469614  23.7783169  54.3967159 124.5787896  24.5677524  54.1509298
 133.2030672  30.2353573  56.3584380 133.1920548  31.1178288  55.9878313
 132.3348051  29.8825123  56.1638917 124.7113168  39.3833642  60.7187221
 125.4241140  40.0181106  60.6463122 124.2203197  39.4797508  59.9027222
 126.4330695  33.2884894  52.2904512 125.4986974  33.4086357  52.1209217
 126.6107364  32.3857361  52.0264522 121.9335883  26.6730590  54.4437773
 121.5633671  26.1201630  55.1318679 122.4294976  26.0688723  53.8912773
 129.8203246  29.1302213  52.8254546 130.2863699  29.9630205  52.7514849
 130.2710747  28.6647195  53.5299805 119.7625082  37.1328085  61.5392791
 120.4634541  37.7664568  61.6922186 119.2920197  37.4742817  60.7788431
 127.8879478  35.4746035  49.8240698 128.1639321  35.3602629  50.7334572
 127.0183976  35.0763520  49.7852872 127.7919909  21.4982800  56.8645448
 126.8782989  21.7287027  57.0327655 128.2213011  21.5821245  57.7159480
 127.5626368  29.6872692  59.3645342 126.9097818  29.9348600  58.7097795
 127.9406748  28.8736831  59.0307819 124.5233542  39.7232386  53.4673512
 124.7055936  38.9054042  53.9301264 125.3466528  39.9400078  53.0298402
 124.8575707  38.6500571  50.7288561 125.3863473  38.1393025  50.1158723
 125.1203927  38.3343101  51.5934094 123.6113941  30.4292503  65.8511379
 122.9354578  30.3286633  66.5213754 124.4341575  30.2731717  66.3147376
 115.3592800  36.6664440  58.4723894 115.9446237  35.9208128  58.6051798
 115.1617638  36.9768397  59.3560558 118.2131455  39.7015687  53.4886336
 117.5441830  40.1861815  53.0050377 118.0744325  39.9484908  54.4029715
 109.9510455  29.2370040  57.1928337 109.9894554  28.7033631  57.9865455
 109.4450747  28.7105246  56.5739314 122.3536724  41.7359431  60.0868995
 122.9055032  41.8991052  60.8518080 122.6942917  42.3263869  59.4149020
 117.3301217  24.0834581  60.6890880 117.3942543  24.9449412  60.2768277
 117.2668337  23.4708582  59.9563238 116.8053489  26.1557713  64.3363914
 117.4325528  25.7734791  64.9501438 115.9481408  25.9371915  64.7019606
 127.2047598  36.5620688  65.9417649 127.7487502  37.1750647  65.4472604
 126.6234443  37.1200267  66.4584662 113.5819032  27.9634142  50.2682269
 113.8772473  27.0544821  50.2149322 112.6807068  27.9421882  49.9463271
 125.4905111  39.6841406  57.0732677 125.3656250  38.8831146  56.5643622
 126.1484202  40.1787600  56.5846647 117.1113279  26.0390139  56.2509817
 116.3899865  26.6526107  56.1117291 117.9006535  26.5747904  56.1726463
 127.5540019  37.4850427  58.7012227 126.6070355  37.3655778  58.6290554
 127.9022792  36.5972925  58.7838489 119.9139593  23.3744565  62.5250469
 120.4373994  23.6206862  63.2876778 119.6951926  24.2064600  62.1053606
 115.3106874  25.6448240  50.3921594 114.9819580  24.7645619  50.2096700
 115.6646244  25.5895909  51.2797983 124.5586453  37.2803143  54.9016579
 124.4111415  36.3519850  55.0824149 125.3839946  37.3023233  54.4173655
 118.4248697  25.9321210  50.7597071 118.7644769  26.4607131  50.0375680
 118.8720817  26.2701616  51.5355638 128.1620574  38.1031702  55.9881452
 129.0867122  37.8974563  55.8505903 127.9935878  37.8548103  56.8970794
 121.1192138  24.3158261  60.2100139 120.7788958  23.5166074  60.6120819
 120.4131144  24.6159971  59.6376973 121.7708609  21.4007573  58.6627463
 122.5934679  20.9268051  58.5406353 122.0146673  22.1798057  59.1626149
 120.4116844  24.4295831  48.9590364 121.1325206  24.8077084  48.4554081
 119.7882148  25.1484708  49.0625342 124.5547967  25.1340980  49.8948697
 124.7711581  26.0165618  49.5937525 124.0742034  24.7427194  49.1654339
 119.2947188  28.0926694  56.4719441 119.1491769  28.4066997  57.3643723
 118.8172392  28.7111594  55.9190340 121.1543571  25.0829242  56.5200331
 121.1405140  24.1870335  56.1832629 121.8715999  25.0899905  57.1538617
 123.0069702  25.5166582  58.5653458 122.7487480  26.4383652  58.5637789
 122.4754742  25.1197016  59.2553922 127.9515891  38.6217369  51.3443544
 128.1252768  38.0563791  50.5917396 128.4444782  39.4218264  51.1623033
 113.7692850  30.6332038  59.4107102 113.2246318  31.4091846  59.5427377
 114.6472200  30.9802843  59.2526224 120.5580467  23.9643622  51.7887901
 120.6796378  23.0360268  51.9878788 120.2682509  23.9782308  50.8766216
 123.4271657  21.6498532  54.9254621 123.4493354  21.7137865  53.9706600
 123.8439716  20.8103041  55.1195127 133.8055282  31.3853792  52.9633843
 134.2486428  30.6361117  52.5652967 132.9281792  31.3763928  52.5807575
 128.9391063  37.9384133  48.4440442 129.6341968  38.5590826  48.6627756
 129.2814213  37.0879485  48.7192820 114.5558872  29.7601934  62.3037259
 113.8140608  29.9084570  62.8901890 114.2351617  30.0210200  61.4404009
 130.8382486  35.3883839  49.9727773 131.3633810  35.7271112  49.2477093
 130.7504839  34.4530854  49.7890907 122.5002535  39.3017913  62.1017649
 122.8089661  39.0567059  62.9740349 123.2978017  39.5064551  61.6136519
 122.5223147  41.4555822  54.3323026 122.0828137  40.9632201  55.0255882
 123.2731264  40.9128790  54.0915101 115.0015486  37.6467363  54.3347654
 115.8273506  37.3471135  53.9546297 114.6509538  36.8774985  54.7837442
 119.9697019  36.9993831  56.4045327 119.3477028  36.3364536  56.1047555
 120.6401886  37.0254963  55.7218975 113.2024091  35.5653689  55.2936587
 112.3655999  35.1375864  55.1120589 113.1747736  35.7586133  56.2307379
 120.0421547  25.4775619  65.9977833 120.0909702  26.3537742  65.6155603
 120.5844061  24.9353012  65.4249477 130.5276392  36.0216743  65.2778971
 129.7371936  36.0040881  64.7383470 130.2909747  36.5605036  66.0328007
 130.6474267  32.8709209  62.5911699 130.6972272  32.7059216  63.5327222
 130.5388191  32.0036468  62.2009580 119.5310526  35.5497755  49.8803788
 119.6798646  36.2333219  49.2270461 120.3376969  35.5302845  50.3953244
 127.9378030  28.8540137  63.9071006 128.8387892  28.7146602  63.6155004
 128.0126004  29.0194592  64.8469183 122.2720835  26.2306992  62.7524192
 121.4024144  26.5240558  62.4806781 122.5080315  26.8147437  63.4731456
 132.1492464  35.2906150  62.8353721 131.8577272  35.6536131  63.6717182
 131.5364595  34.5773159  62.6567053 133.3488146  32.8559030  55.3556291
 134.1835038  33.2948834  55.5193851 133.4847275  32.3797683  54.5364537
 130.3979652  30.4138765  61.3033779 130.8733774  30.6066411  60.4952630
 129.4745218  30.4697951  61.0577162 117.2863159  31.5762932  50.8864857
 117.0409201  30.6725262  51.0845067 117.4559074  31.5780083  49.9444335
 124.9759869  22.4486609  60.2689612 125.4941813  23.1847636  59.9436101
 124.6215002  22.7550602  61.1036372 116.5558807  27.3091290  48.3851018
 115.8628051  27.3835645  47.7291054 116.3110558  26.5451633  48.9072535
 125.2272463  18.8686891  55.7890509 125.5074217  18.2010080  56.4150936
 126.0123070  19.0615987  55.2765173 123.0305932  38.0445885  47.3515535
 122.4579899  38.6636072  46.8986007 123.6038725  38.5945247  47.8855457
 129.0981321  27.2904525  59.5362084 130.0498744  27.3902623  59.5574308
 128.9284772  26.4982794  60.0460169 127.1195701  24.3760108  59.7221485
 126.5245633  24.6565121  59.0267974 126.8345398  24.8654009  60.4938226
 126.2503191  38.3283035  48.4824118 127.1833864  38.2628597  48.6856993
 126.1626404  39.1639302  48.0238650 128.8791208  37.6448906  45.4428065
 128.8004840  37.3108769  46.3363823 129.7000875  38.1370673  45.4419538
 131.5769399  30.5110645  58.6504384 131.5445719  29.5726646  58.8364068
 132.1870023  30.5894682  57.9170209 123.4152730  29.3806698  44.6931588
 124.3611835  29.2512906  44.7620006 123.0366975  28.6421360  45.1701016
 131.7263888  27.3021688  58.6962667 131.2102936  26.5180145  58.5092596
 132.6103836  26.9740405  58.8609186 129.3874615  21.0462704  54.6558480
 129.1899436  20.7377792  55.5401812 129.9974320  21.7724343  54.7856410
 135.4761246  29.7134514  58.3884872 134.7494410  29.5790479  57.7801363
 135.0608533  30.0211343  59.1941590 123.2991423  33.4324444  66.1532245
 124.2194432  33.6103043  66.3472291 123.2641006  32.4880489  66.0011944
 121.5995647  27.3056674  44.6286473 120.6927103  27.0089787  44.7049187
 121.8771628  27.0086492  43.7620759 112.5173588  28.6263038  55.0785519
 112.1976372  27.7728346  54.7859893 111.9707016  28.8411616  55.8343487
 116.2953495  31.3425479  58.7955026 116.5139505  32.2742586  58.8143060
 116.7079269  30.9833453  59.5809830 123.2157713  21.8493564  50.7830714
 122.4058441  21.5040649  51.1585960 123.9042130  21.5401108  51.3718326
 125.1448261  20.9271611  52.4055011 125.6979300  21.3467064  53.0645034
 125.3818348  20.0007359  52.4477967 121.1681360  26.9158684  68.1857775
 121.0678087  27.8653041  68.1169866 120.9502902  26.5876923  67.3133845
 120.3694432  24.1643609  44.7698452 121.2313596  24.4898508  45.0294270
 120.5544776  23.3775105  44.2571518 112.3861848  32.2465949  57.0478641
 111.6925319  31.8319902  56.5348595 113.1334839  32.2886486  56.4512060
 128.5227068  23.0372136  51.9133675 127.9425737  23.6956940  51.5311728
 128.2563001  22.2149480  51.5021093 126.9730635  22.4377194  54.1154996
 127.4730413  22.5493728  53.3069314 127.6166243  22.1338246  54.7555804
 121.0312630  30.3455823  67.0022837 120.5479712  31.1456183  67.2086726
 121.1173570  30.3563768  66.0490281 114.2998590  32.1784203  54.9244656
 114.2769278  32.2771890  53.9726539 114.6099227  33.0249354  55.2461822
 116.9585968  34.2360358  59.0391270 117.9129222  34.2044300  58.9721202
 116.7598492  33.7750982  59.8541496 117.5485350  32.8061474  61.6062068
 118.3678239  33.3005553  61.6296905 117.8222158  31.8893442  61.5779636
 127.3051946  25.1972226  50.9690024 126.4177801  25.4821877  50.7510218
 127.7205935  25.0365990  50.1217300 130.6566482  25.2218747  54.6844363
 131.4326873  25.7115200  54.9568980 129.9314617  25.6476801  55.1416232
 133.0939041  25.9346366  55.7418303 133.6883532  25.6942102  55.0311612
 133.1665625  25.2153497  56.3691840 115.3136197  39.7779977  56.0561468
 115.1790665  39.0180378  55.4899466 114.8968259  40.5020877  55.5890257
 126.4495160  34.9616901  45.0638044 127.1531010  35.1666903  45.6795699
 125.7257809  35.5293663  45.3287127 127.2792970  30.7126762  51.1840314
 127.2228171  31.1695314  50.3447946 127.8321313  29.9517447  51.0063156
 131.0897776  26.5016494  52.0090433 130.8334710  26.1013130  52.8398641
 130.4650644  27.2160288  51.8840572 135.4010114  29.2412567  54.5161725
 134.8409672  29.3105757  55.2893287 134.7953617  29.0653552  53.7961221
 118.4705323  40.6749294  56.2679911 118.3537707  41.6194727  56.1658601
 117.6497769  40.3722856  56.6565710 128.3581857  35.3999430  47.1136504
 129.1927461  34.9680629  46.9313978 128.1966200  35.2281444  48.0413398
 128.0127749  31.9031543  48.4792843 127.9576553  31.7375815  47.5381287
 127.3873805  32.6107576  48.6355033 112.8020264  27.1399608  62.3054265
 113.4479128  26.6298562  62.7941490 112.5937415  27.8768289  62.8797690
 125.3273657  34.2080455  67.8046406 126.1964816  34.3821108  67.4433041
 124.8480408  35.0274872  67.6822135 121.3223875  21.4039652  48.0578161
 121.3102545  22.3481492  48.2146432 122.2147297  21.2209798  47.7637622
 119.4959837  41.3277556  59.4835839 120.3987083  41.3601167  59.8002334
 119.2697207  40.3978007  59.4982175 121.2513439  40.0808543  56.1445918
 120.3009070  40.0810404  56.0310290 121.5545925  39.3341277  55.6281953
 125.1375994  17.9982429  52.3124098 124.3708390  17.4440916  52.4580780
 125.5486699  18.0704298  53.1738250 117.1417755  24.2867225  66.4029279
 118.0049217  23.9304030  66.6132604 116.5683166  23.9481120  67.0904684
 133.7955839  45.8696509  57.1453205 133.4574350  45.7537574  56.2573740
 134.6645607  45.4687674  57.1254211 129.6542654  47.7231986  53.1350096
 129.0907519  47.6321923  52.3666384 129.5395049  46.9031890  53.6152589
 134.2775622  47.0231361  63.1039411 134.2664262  46.6284159  62.2319914
 134.4396261  46.2897434  63.6973182 127.2007086  49.2183177  55.9734316
 127.9928378  48.8774002  55.5580616 127.4403736  49.3278152  56.8936470
 135.2342213  51.3902953  48.4464561 134.5830193  51.9757034  48.0598575
 136.0286576  51.9209148  48.5059598 129.1597840  48.4792091  48.8451695
 129.9328716  47.9321078  48.7064571 129.5123239  49.3436340  49.0566157
 130.9982883  49.8068473  62.0518595 130.7072749  50.7114104  61.9365261
 131.6339867  49.8485000  62.7662664 131.9239090  47.1845321  58.6419954
 132.5202662  46.9601344  57.9276917 131.9814061  46.4430067  59.2445402
 131.4964118  44.6384757  46.4770145 131.7489639  44.1166278  45.7153608
 130.5588677  44.4750902  46.5796829 136.5407401  43.6420535  54.2844888
 137.3270490  43.2239958  53.9335305 136.8046105  44.5466627  54.4526537
 136.7117478  49.0793385  48.9833545 136.0763311  49.1528012  49.6954450
 136.3814885  49.6686984  48.3052624 131.2160407  46.5412863  48.6794520
 131.0996665  45.8657766  49.3475604 131.3262667  46.0545237  47.8626673
 133.5591948  46.0023010  52.3841209 133.1950155  45.4753631  53.0954131
 134.4159064  45.6121479  52.2107695 133.1997435  41.0312909  47.3802558
 133.3671837  41.8993146  47.7473029 133.0094604  41.1940191  46.4563847
 135.9572768  49.4929888  59.0468388 135.6573491  50.3954927  58.9384195
 135.6123827  49.2262072  59.8989541 129.4085249  45.9443685  55.0805093
 128.4835746  45.8119899  55.2882784 129.6569662  46.7237904  55.5775035
 133.1786655  43.4870567  48.3649225 133.0586281  43.9327618  49.2034705
 132.4839244  43.8355885  47.8062763 126.7694060  45.5876959  55.9148882
 126.8986441  45.8411438  56.8288293 126.0891512  46.1804667  55.5953537
 130.9393548  56.2574209  52.0139356 130.8617577  57.2082034  52.0927836
 130.3355191  55.9120081  52.6714282 133.4310777  43.4302074  64.6700723
 132.6544111  43.9895994  64.6603587 134.0701340  43.9158857  65.1915593
 131.6857150  46.2387528  64.2318690 132.4271834  46.7772571  63.9553513
 130.9794135  46.8653816  64.3890242 137.1612489  48.3816668  62.8290851
 137.5695845  47.9399079  62.0845484 136.4389751  47.8069296  63.0825044
 133.5143559  43.3189275  60.2024408 134.3604755  43.7428688  60.3459057
 133.4542197  42.6622899  60.8962971 137.4841304  48.9417859  56.5843140
 136.8550166  49.1063573  55.8819208 137.0966966  49.3559468  57.3554104
 136.6643005  40.9793643  61.8605582 136.4203937  41.7335704  61.3239858
 136.9402935  41.3578991  62.6952829 136.2207696  40.1350076  57.4419420
 135.3592175  40.4331330  57.7336157 136.2470131  40.3520475  56.5100452
 133.0369266  48.6792267  53.8493225 133.5007611  48.9579970  53.0597848
 132.7726064  47.7775711  53.6666316 129.9293347  48.2263748  56.7872989
 130.4994704  48.6551017  56.1490473 130.5201459  47.9446333  57.4857174
 131.9738152  44.8015419  50.6582790 132.6762195  45.2536463  51.1256717
 131.6418780  44.1599238  51.2862684 130.4218513  43.3927176  65.0334000
 129.7917174  44.0743457  65.2669397 130.3154601  43.2810257  64.0887138
 125.7163486  43.0598972  55.9599924 124.9262540  43.3156500  55.4840035
 126.2074733  43.8747310  56.0651965 127.6678231  43.4243551  52.9183401
 126.8709394  43.5362245  53.4366896 127.4403823  43.7630203  52.0524291
 133.4983899  49.9488254  60.8665915 133.5628331  50.4108661  61.7024087
 132.7894823  49.3185619  60.9948225 124.0001189  43.3129462  58.3914915
 124.2509227  44.1976472  58.6572491 124.5360737  43.1334064  57.6190007
 133.2131916  51.6156362  50.7344896 133.0777591  52.4607897  51.1629743
 133.7541729  51.8175639  49.9710829 129.6999256  37.6947942  67.3959251
 129.3066202  37.1414140  68.0706895 130.5165396  38.0058520  67.7865768
 126.6661314  49.1331800  51.3072821 127.1785834  49.9275050  51.4578385
 127.3184027  48.4358090  51.2406422 128.4756199  52.2497556  53.3895574
 128.6522827  53.1715521  53.2016558 129.2713032  51.9355975  53.8189954
 132.6167217  39.1105821  64.9879507 133.3576930  39.7112974  64.9083970
 132.8485140  38.3683458  64.4297550 127.7608555  44.2962188  63.2657737
 127.6462070  43.3947445  63.5664836 126.9053073  44.5425885  62.9142554
 134.8400393  52.2379928  64.8645238 134.3964247  51.4516307  64.5466142
 135.5017606  52.4259079  64.1989129 129.5987514  53.7675730  59.3905916
 130.1494939  53.6392793  58.6182910 128.7598990  54.0670619  59.0400809
 133.3954685  50.0326858  63.7350147 133.9283022  49.2715146  63.5049455
 132.8668766  49.7400509  64.4774302 136.5624380  35.1386924  59.2643789
 136.2188649  36.0288565  59.1882900 136.9303343  34.9488581  58.4013374
 124.6310231  47.4620454  52.0832391 125.4685453  47.8717462  51.8666099
 124.8088498  46.5219896  52.0532585 136.5274663  45.1295535  47.7716224
 136.0121286  45.9000139  48.0104612 136.2551971  44.4560671  48.3949286
 134.1121774  39.9745235  52.8301463 133.2563370  39.5852086  52.6507101
 134.5248726  40.0537196  51.9701248 135.6420920  37.5091579  57.2293022
 135.1385716  37.4721714  56.4160828 135.9351527  38.4184321  57.2889679
 131.8863806  37.5930308  56.2359204 132.7516803  37.3973117  55.8765094
 131.9541315  37.3640660  57.1628561 136.3160966  43.0022627  49.5976005
 136.0111102  43.3168776  50.4486149 137.2691408  43.0804047  49.6403338
 134.7607398  49.1612850  51.2468959 134.2328759  48.4265610  50.9342197
 134.2594901  49.9387526  51.0008928 129.4926125  39.8232516  53.6075571
 130.0669877  39.6007698  52.8748764 130.0797108  39.8921211  54.3604172
 129.8195713  41.8536977  47.6271456 128.9833025  42.1911664  47.9480731
 129.6800482  41.7185957  46.6898593 131.7948793  36.6973765  52.3350640
 131.1413205  36.3822782  51.7107255 131.7529267  36.0749506  53.0610463
 132.9059998  46.9793060  44.2503932 131.9987060  46.7482314  44.4495081
 133.4031030  46.1830680  44.4377914 135.8128077  55.6890568  47.1700619
 135.1389776  55.9922264  47.7785576 136.1993899  56.4919648  46.8206076
 135.0286533  43.1855699  56.6598288 134.1109095  43.4070646  56.5019976
 135.4446677  43.2602009  55.8009995 135.8121581  44.5847115  51.7900968
 136.5593400  45.0968512  51.4808090 136.0813171  44.2631167  52.6505362
 134.0848231  47.0805655  48.7727923 133.1759451  46.7964688  48.8700392
 134.1143315  47.5004734  47.9131229 124.6536402  44.8011169  52.7543125
 124.4560802  44.2080530  52.0294191 124.0983066  44.4963380  53.4719064
 132.6333125  44.6934276  54.8737718 132.6881735  43.7408112  54.7980194
 131.8224327  44.8493715  55.3579016 133.7824319  48.6214399  46.1116001
 133.3443749  47.9050258  45.6521638 134.5234760  48.8490514  45.5501092
 130.5725485  43.3111336  52.6328097 129.7593351  43.6105506  53.0393289
 131.0684480  42.9167024  53.3502579 132.7234063  53.3069092  54.5662361
 132.6810242  53.5329939  53.6370893 133.6396762  53.0732467  54.7148163
 136.1699697  43.7753160  61.4642991 136.5249085  44.0024633  62.3237456
 136.8171828  44.1071537  60.8420246 130.0639560  40.8829691  58.2489332
 130.7038939  40.7418450  57.5512295 129.2317091  40.5964204  57.8727934
 130.8399864  50.1832122  54.3624324 131.6340463  49.6882442  54.1606899
 130.1291556  49.6549985  53.9992030 135.6594709  52.5650217  58.7136692
 135.7131731  53.1341153  59.4814408 134.7909490  52.7352102  58.3490729
 127.1482628  44.3275203  50.4384077 126.2180216  44.2659659  50.6554039
 127.2440099  43.8051156  49.6420718 127.0668177  40.8530016  53.0262318
 127.3274994  41.7675349  52.9171479 127.8885349  40.3854459  53.1758931
 128.5393102  42.2667773  60.1961143 129.2116155  42.0585135  59.5473792
 127.7122888  42.0689859  59.7566375 134.4418674  38.8929714  62.2126804
 133.7946589  39.5919664  62.1191280 135.2119689  39.3265858  62.5803052
 134.6182808  46.7310479  60.2723624 135.5474868  46.8821639  60.0992591
 134.1973838  46.8194500  59.4172270 133.4171140  50.7561144  58.0422161
 133.2782226  50.3879928  58.9148099 132.6285736  51.2708783  57.8706119
 134.0119292  55.8570240  49.3847698 134.1871048  55.3858283  50.1993320
 133.3252080  56.4836006  49.6128958 134.9676355  50.1342746  55.4310999
 134.6326188  50.0943516  56.3268649 134.4680301  49.4687462  54.9581409
 128.9420599  45.5410376  60.9563580 128.8040397  44.8090615  61.5575119
 129.8525523  45.4519276  60.6747768 131.5702900  45.2530336  60.4447260
 132.2802518  44.6123528  60.4033878 131.5272208  45.5043230  61.3673441
 130.2831834  42.2395553  62.2642899 129.7469191  41.7886292  62.9164496
 129.6948542  42.3741462  61.5213364 128.5780377  59.0059603  56.1587558
 128.8176976  59.6378127  56.8366576 127.7349574  58.6547643  56.4452917
 129.6934093  41.6984205  44.8269363 128.8163559  41.5773006  44.4631610
 130.1691846  40.9070283  44.5748252 121.2136233  46.4861365  54.9210870
 121.9007273  46.1723095  54.3331885 121.0584362  47.3902729  54.6478122
 126.0170955  41.3751561  59.3495894 125.9329144  40.7677231  58.6146304
 125.1953661  41.8660579  59.3505390 133.0908239  54.8138725  58.5629062
 133.0178411  55.6193697  59.0748366 132.6485632  55.0130691  57.7377083
 132.8798019  54.0510495  52.0731883 132.0965541  54.5932175  52.1670108
 133.5790764  54.5684475  52.4726125 136.1894669  39.8605125  54.7166089
 136.6863368  39.1075087  54.3967159 135.4181650  39.8969441  54.1509298
 135.5506923  54.7125559  60.7187221 136.2634895  55.3473024  60.6463122
 135.0596951  54.8089425  59.9027222 137.2724450  48.6176812  52.2904512
 136.3380728  48.7378274  52.1209217 137.4501118  47.7149279  52.0264522
 132.7729638  42.0022508  54.4437773 132.4027425  41.4493548  55.1318679
 133.2688730  41.3980641  53.8912773 130.6018836  52.4620003  61.5392791
 131.3028296  53.0956486  61.6922186 130.1313951  52.8034734  60.7788431
 135.3627296  55.0524303  53.4673512 135.5449691  54.2345959  53.9301264
 136.1860282  55.2691996  53.0298402 135.6969462  53.9792488  50.7288561
 136.2257228  53.4684943  50.1158723 135.9597681  53.6635019  51.5934094
 134.4507695  45.7584421  65.8511379 133.7748332  45.6578551  66.5213754
 135.2735329  45.6023635  66.3147376 126.1986554  51.9956358  58.4723894
 126.7839991  51.2500046  58.6051798 126.0011393  52.3060314  59.3560558
 129.0525209  55.0307605  53.4886336 128.3835585  55.5153733  53.0050377
 128.9138079  55.2776826  54.4029715 120.7904209  44.5661958  57.1928337
 120.8288309  44.0325549  57.9865455 120.2844502  44.0397163  56.5739314
 133.1930478  57.0651349  60.0868995 133.7448786  57.2282970  60.8518080
 133.5336672  57.6555786  59.4149020 128.1694971  39.4126498  60.6890880
 128.2336298  40.2741329  60.2768277 128.1062092  38.8000500  59.9563238
 127.6447244  41.4849631  64.3363914 128.2719283  41.1026708  64.9501438
 126.7875163  41.2663833  64.7019606 124.4212787  43.2926060  50.2682269
 124.7166228  42.3836738  50.2149322 123.5200822  43.2713800  49.9463271
 136.3298865  55.0133324  57.0732677 136.2050005  54.2123064  56.5643622
 136.9877956  55.5079518  56.5846647 127.9507034  41.3682057  56.2509817
 127.2293619  41.9818024  56.1117291 128.7400289  41.9039821  56.1726463
 130.7533347  38.7036483  62.5250469 131.2767749  38.9498780  63.2876778
 130.5345680  39.5356518  62.1053606 126.1500628  40.9740158  50.3921594
 125.8213334  40.0937537  50.2096700 126.5039999  40.9187826  51.2797983
 135.3980207  52.6095060  54.9016579 135.2505169  51.6811768  55.0824149
 136.2233701  52.6315151  54.4173655 129.2642451  41.2613128  50.7597071
 129.6038524  41.7899049  50.0375680 129.7114572  41.5993534  51.5355638
 131.9585892  39.6450178  60.2100139 131.6182713  38.8457991  60.6120819
 131.2524898  39.9451889  59.6376973 132.6102364  36.7299491  58.6627463
 133.4328433  36.2559969  58.5406353 132.8540428  37.5089974  59.1626149
 131.2510598  39.7587749  48.9590364 131.9718961  40.1369002  48.4554081
 130.6275903  40.4776626  49.0625342 135.3941721  40.4632898  49.8948697
 135.6105336  41.3457536  49.5937525 134.9135788  40.0719112  49.1654339
 130.1340943  43.4218611  56.4719441 129.9885523  43.7358914  57.3643723
 129.6566146  44.0403512  55.9190340 131.9937326  40.4121159  56.5200331
 131.9798894  39.5162253  56.1832629 132.7109754  40.4191823  57.1538617
 133.8463456  40.8458500  58.5653458 133.5881234  41.7675570  58.5637789
 133.3148497  40.4488934  59.2553922 124.6086605  45.9623956  59.4107102
 124.0640073  46.7383764  59.5427377 125.4865955  46.3094760  59.2526224
 131.3974222  39.2935540  51.7887901 131.5190133  38.3652186  51.9878788
 131.1076264  39.3074226  50.8766216 134.2665412  36.9790450  54.9254621
 134.2887109  37.0429783  53.9706600 134.6833471  36.1394959  55.1195127
 125.3952627  45.0893852  62.3037259 124.6534363  45.2376487  62.8901890
 125.0745371  45.3502118  61.4404009 133.3396289  54.6309830  62.1017649
 133.6483416  54.3858977  62.9740349 134.1371771  54.8356469  61.6136519
 133.3616901  56.7847740  54.3323026 132.9221892  56.2924119  55.0255882
 134.1125018  56.2420708  54.0915101 125.8409240  52.9759281  54.3347654
 126.6667260  52.6763053  53.9546297 125.4903292  52.2066903  54.7837442
 130.8090774  52.3285749  56.4045327 130.1870783  51.6656454  56.1047555
 131.4795640  52.3546881  55.7218975 124.0417845  50.8945607  55.2936587
 123.2049754  50.4667782  55.1120589 124.0141491  51.0878051  56.2307379
 130.8815301  40.8067537  65.9977833 130.9303457  41.6829660  65.6155603
 131.4237815  40.2644930  65.4249477 130.3704280  50.8789672  49.8803788
 130.5192401  51.5625137  49.2270461 131.1770724  50.8594762  50.3953244
 133.1114590  41.5598909  62.7524192 132.2417899  41.8532475  62.4806781
 133.3474070  42.1439354  63.4731456 128.1256913  46.9054850  50.8864857
 127.8802955  46.0017180  51.0845067 128.2952828  46.9072000  49.9444335
 135.8153623  37.7778526  60.2689612 136.3335567  38.5139553  59.9436101
 135.4608756  38.0842520  61.1036372 127.3952561  42.6383207  48.3851018
 126.7021806  42.7127562  47.7291054 127.1504313  41.8743551  48.9072535
 136.0666218  34.1978809  55.7890509 136.3467971  33.5301998  56.4150936
 136.8516824  34.3907904  55.2765173 133.8699686  53.3737803  47.3515535
 133.2973653  53.9927990  46.8986007 134.4432480  53.9237164  47.8855457
 134.2546485  44.7098615  44.6931588 135.2005589  44.5804824  44.7620006
 133.8760729  43.9713277  45.1701016 134.1385177  48.7616362  66.1532245
 135.0588187  48.9394961  66.3472291 134.1034760  47.8172407  66.0011944
 132.4389402  42.6348592  44.6286473 131.5320857  42.3381705  44.7049187
 132.7165383  42.3378410  43.7620759 123.3567342  43.9554955  55.0785519
 123.0370126  43.1020263  54.7859893 122.8100770  44.1703533  55.8343487
 127.1347250  46.6717396  58.7955026 127.3533259  47.6034504  58.8143060
 127.5473023  46.3125371  59.5809830 134.0551467  37.1785482  50.7830714
 133.2452196  36.8332567  51.1585960 134.7435884  36.8693025  51.3718326
 135.9842016  36.2563528  52.4055011 136.5373054  36.6758982  53.0645034
 136.2212102  35.3299277  52.4477967 132.0075115  42.2450602  68.1857775
 131.9071842  43.1944959  68.1169866 131.7896657  41.9168841  67.3133845
 131.2088186  39.4935527  44.7698452 132.0707350  39.8190425  45.0294270
 131.3938530  38.7067023  44.2571518 123.2255602  47.5757867  57.0478641
 122.5319073  47.1611820  56.5348595 123.9728593  47.6178403  56.4512060
 131.8706385  45.6747741  67.0022837 131.3873467  46.4748101  67.2086726
 131.9567324  45.6855686  66.0490281 125.1392345  47.5076121  54.9244656
 125.1163033  47.6063808  53.9726539 125.4492981  48.3541271  55.2461822
 127.7979722  49.5652276  59.0391270 128.7522976  49.5336218  58.9721202
 127.5992246  49.1042899  59.8541496 128.3879105  48.1353392  61.6062068
 129.2071994  48.6297470  61.6296905 128.6615912  47.2185360  61.5779636
 126.1529951  55.1071895  56.0561468 126.0184419  54.3472296  55.4899466
 125.7362014  55.8312795  55.5890257 129.3099077  56.0041212  56.2679911
 129.1931461  56.9486645  56.1658601 128.4891523  55.7014774  56.6565710
 123.6414019  42.4691525  62.3054265 124.2872882  41.9590479  62.7941490
 123.4331170  43.2060207  62.8797690 136.1667411  49.5372373  67.8046406
 137.0358571  49.7113025  67.4433041 135.6874163  50.3566790  67.6822135
 132.1617629  36.7331570  48.0578161 132.1496299  37.6773410  48.2146432
 133.0541051  36.5501716  47.7637622 130.3353591  56.6569474  59.4835839
 131.2380838  56.6893084  59.8002334 130.1090961  55.7269925  59.4982175
 132.0907193  55.4100461  56.1445918 131.1402824  55.4102322  56.0310290
 132.3939679  54.6633195  55.6281953 135.9769749  33.3274347  52.3124098
 135.2102145  32.7732833  52.4580780 136.3880454  33.3996216  53.1738250
 127.9811510  39.6159143  66.4029279 128.8442971  39.2595947  66.6132604
 127.4076920  39.2773037  67.0904684 136.5557240  58.3890889  55.9599924
 135.7656294  58.6448418  55.4840035 137.0468488  59.2039227  56.0651965
 134.8394943  58.6421380  58.3914915 135.0902982  59.5268390  58.6572491
 135.3754492  58.4625981  57.6190007 135.4703985  62.7912372  52.0832391
 136.3079207  63.2009380  51.8666099 135.6482253  61.8511814  52.0532585
 135.4930156  60.1303087  52.7543125 135.2954556  59.5372448  52.0294191
 134.9376820  59.8255297  53.4719064 132.0529987  61.8153282  54.9210870
 132.7401027  61.5015012  54.3331885 131.8978116  62.7194647  54.6478122
 136.8564710  56.7043479  59.3495894 136.7722898  56.0969148  58.6146304
 136.0347416  57.1952497  59.3505390 131.6297963  59.8953876  57.1928337
 131.6682063  59.3617466  57.9865455 131.1238256  59.3689081  56.5739314
 135.2606541  58.6217978  50.2682269 135.5559982  57.7128656  50.2149322
 134.3594577  58.6005717  49.9463271 136.9894383  56.3032075  50.3921594
 136.6607089  55.4229454  50.2096700 137.3433753  56.2479744  51.2797983
 135.4480359  61.2915873  59.4107102 134.9033827  62.0675681  59.5427377
 136.3259709  61.6386678  59.2526224 136.2346381  60.4185770  62.3037259
 135.4928117  60.5668405  62.8901890 135.9139126  60.6794035  61.4404009
 136.6802995  68.3051198  54.3347654 137.5061015  68.0054970  53.9546297
 136.3297047  67.5358821  54.7837442 134.8811600  66.2237525  55.2936587
 134.0443508  65.7959699  55.1120589 134.8535245  66.4169968  56.2307379
 134.1961097  59.2846873  55.0785519 133.8763881  58.4312181  54.7859893
 133.6494525  59.4995451  55.8343487 134.0649357  62.9049784  57.0478641
 133.3712828  62.4903737  56.5348595 134.8122348  62.9470321  56.4512060
 135.9786099  62.8368038  54.9244656 135.9556787  62.9355726  53.9726539
 136.2886736  63.6833189  55.2461822 136.9923706  70.4363813  56.0561468
 136.8578174  69.6764214  55.4899466 136.5755768  71.1604713  55.5890257
 134.4807773  57.7983443  62.3054265 135.1266637  57.2882397  62.7941490
 134.2724924  58.5352125  62.8797690 120.0999794  17.9344414  38.7384663
 120.0223824  18.8852239  38.8173143 119.4961438  17.5890286  39.3959589
 118.7593761  15.4445935  46.1151223 119.3101186  15.3162998  45.3428217
 117.9205237  15.7440824  45.7646116 124.9734324  17.3660772  33.8945925
 124.2996022  17.6692469  34.5030883 125.3600146  18.1689853  33.5451382
 123.1725539  17.5340445  36.1093004 123.3477294  17.0628488  36.9238627
 122.4858327  18.1606211  36.3374265 117.7386624  20.6829808  42.8832865
 117.9783222  21.3148332  43.5611883 116.8955821  20.3317848  43.1698224
 122.2514486  16.4908930  45.2874369 122.1784657  17.2963902  45.7993673
 121.8091879  16.6900896  44.4622390 122.0404266  15.7280700  38.7977190
 121.2571787  16.2702380  38.8915415 122.7397011  16.2454680  39.1971431
 124.7113169  16.3895764  47.4432527 125.4241142  17.0243229  47.3708429
 124.2203198  16.4859630  46.6272529 115.3592801  13.6726563  45.1969201
 115.9446238  12.9270251  45.3297105 115.1617639  13.9830519  46.0805865
 118.2131456  16.7077810  40.2131643 117.5441832  17.1923938  39.7295683
 118.0744326  16.9547030  41.1275022 122.3536725  18.7421554  46.8114301
 122.9055033  18.9053175  47.5763387 122.6942918  19.3325991  46.1394326
 122.5002536  16.3080035  48.8262956 122.8089663  16.0629182  49.6985655
 123.2978018  16.5126674  48.3381826 122.5223148  18.4617945  41.0568332
 122.0828139  17.9694323  41.7501189 123.2731265  17.9190912  40.8160408
 115.0015487  14.6529486  41.0592960 115.8273507  14.3533258  40.6791604
 114.6509539  13.8837108  41.5082749 113.2024092  12.5715812  42.0181894
 112.3656001  12.1437986  41.8365895 113.1747738  12.7648255  42.9552685
 115.3136198  16.7842100  42.7806775 115.1790666  16.0242501  42.2144773
 114.8968260  17.5083000  42.3135564 118.4705324  17.6811417  42.9925218
 118.3537708  18.6256849  42.8903908 117.6497770  17.3784979  43.3811017
 119.4959838  18.3339679  46.2081146 120.3987085  18.3663289  46.5247641
 119.2697208  17.4040130  46.2227482 121.2513440  17.0870665  42.8691225
 120.3009071  17.0872527  42.7555597 121.5545926  16.3403400  42.3527259
 133.7955840  22.8758632  43.8698512 133.4574351  22.7599697  42.9819047
 134.6645608  22.4749797  43.8499518 129.6542656  24.7294108  39.8595403
 129.0907521  24.6384045  39.0911690 129.5395051  23.9094013  40.3397895
 134.2775623  24.0293484  49.8284717 134.2664264  23.6346282  48.9565221
 134.4396262  23.2959556  50.4218489 127.2007087  26.2245300  42.6979623
 127.9928379  25.8836125  42.2825922 127.4403738  26.3340275  43.6181776
 135.2342214  28.3965076  35.1709868 134.5830194  28.9819156  34.7843881
 136.0286577  28.9271271  35.2304905 129.1597841  25.4854213  35.5697002
 129.9328717  24.9383200  35.4309878 129.5123240  26.3498463  35.7811463
 130.9982884  26.8130595  48.7763901 130.7072750  27.7176226  48.6610567
 131.6339868  26.8547123  49.4907971 131.9239091  24.1907444  45.3665261
 132.5202663  23.9663466  44.6522224 131.9814062  23.4492189  45.9690709
 131.2160408  23.5474985  35.4039827 131.0996666  22.8719889  36.0720911
 131.3262668  23.0607359  34.5871980 133.5591949  23.0085132  39.1086516
 133.1950156  22.4815753  39.8199437 134.4159065  22.6183601  38.9353001
 135.9572769  26.4992011  45.7713695 135.6573492  27.4017050  45.6629502
 135.6123829  26.2324194  46.6234848 129.4085251  22.9505808  41.8050399
 128.4835747  22.8182022  42.0128091 129.6569664  23.7300027  42.3020342
 126.7694062  22.5939081  42.6394188 126.8986443  22.8473560  43.5533600
 126.0891513  23.1866789  42.3198843 130.9393549  33.2636331  38.7384663
 130.8617579  34.2144156  38.8173143 130.3355192  32.9182204  39.3959589
 133.4310779  20.4364197  51.3946029 132.6544113  20.9958117  51.3848894
 134.0701342  20.9220980  51.9160900 131.6857151  23.2449650  50.9563996
 132.4271835  23.7834694  50.6798820 130.9794136  23.8715939  51.1135548
 137.1612491  25.3878791  49.5536158 137.5695847  24.9461201  48.8090790
 136.4389752  24.8131418  49.8070351 133.5143561  20.3251397  46.9269715
 134.3604756  20.7490811  47.0704364 133.4542198  19.6685022  47.6208278
 137.4841305  25.9479981  43.3088447 136.8550168  26.1125695  42.6064515
 137.0966967  26.3621591  44.0799411 133.0369267  25.6854389  40.5738532
 133.5007613  25.9642092  39.7843154 132.7726065  24.7837834  40.3911623
 129.9293348  25.2325871  43.5118295 130.4994705  25.6613139  42.8735780
 130.5201460  24.9508456  44.2102481 131.9738153  21.8077542  37.3828097
 132.6762196  22.2598585  37.8502023 131.6418782  21.1661361  38.0107990
 130.4218515  20.3989298  51.7579306 129.7917175  21.0805579  51.9914703
 130.3154603  20.2872380  50.8132445 125.7163487  20.0661094  42.6845231
 124.9262541  20.3218623  42.2085341 126.2074734  20.8809432  42.7897271
 127.6678232  20.4305674  39.6428707 126.8709396  20.5424368  40.1612203
 127.4403825  20.7692326  38.7769598 133.4983900  26.9550377  47.5911222
 133.5628333  27.4170784  48.4269394 132.7894824  26.3247742  47.7193532
 124.0001190  20.3191585  45.1160221 124.2509228  21.2038595  45.3817797
 124.5360738  20.1396186  44.3435313 133.2131918  28.6218484  37.4590202
 133.0777593  29.4670020  37.8875050 133.7541730  28.8237762  36.6956136
 126.6661315  26.1393922  38.0318127 127.1785836  26.9337173  38.1823692
 127.3184028  25.4420213  37.9651729 128.4756200  29.2559679  40.1140881
 128.6522828  30.1777643  39.9261864 129.2713033  28.9418098  40.5435260
 127.7608556  21.3024310  49.9903044 127.6462072  20.4009568  50.2910143
 126.9053074  21.5488007  49.6387860 134.8400394  29.2442051  51.5890544
 134.3964248  28.4578429  51.2711449 135.5017608  29.4321201  50.9234435
 129.5987515  30.7737852  46.1151223 130.1494940  30.6454916  45.3428217
 128.7598991  31.0732741  45.7646116 133.3954686  27.0388980  50.4595454
 133.9283023  26.2777268  50.2294762 132.8668767  26.7462632  51.2019608
 124.6310232  24.4682577  38.8077698 125.4685454  24.8779585  38.5911406
 124.8088500  23.5282019  38.7777892 134.7607399  26.1674973  37.9714266
 134.2328761  25.4327732  37.6587503 134.2594902  26.9449649  37.7254234
 135.8128078  32.6952690  33.8945925 135.1389777  32.9984387  34.5030883
 136.1993900  33.4981770  33.5451382 135.0286535  20.1917821  43.3843595
 134.1109096  20.4132768  43.2265283 135.4446678  20.2664132  42.5255302
 124.6536403  21.8073292  39.4788431 124.4560803  21.2142653  38.7539498
 124.0983067  21.5025502  40.1964370 132.6333127  21.6996398  41.5983025
 132.6881736  20.7470235  41.5225501 131.8224329  21.8555838  42.0824323
 130.5725487  20.3173458  39.3573403 129.7593352  20.6167629  39.7638596
 131.0684481  19.9229147  40.0747886 132.7234065  30.3131215  41.2907668
 132.6810243  30.5392061  40.3616200 133.6396763  30.0794590  41.4393469
 136.1699698  20.7815283  48.1888297 136.5249086  21.0086756  49.0482763
 136.8171830  21.1133659  47.5665553 130.8399865  27.1894244  41.0869631
 131.6340464  26.6944564  40.8852206 130.1291558  26.6612107  40.7237336
 135.6594710  29.5712340  45.4381998 135.7131732  30.1403276  46.2059714
 134.7909491  29.7414225  45.0736036 127.1482629  21.3337326  37.1629383
 126.2180217  21.2721781  37.3799346 127.2440101  20.8113279  36.3666025
 127.0668178  17.8592139  39.7507625 127.3274995  18.7737472  39.6416786
 127.8885350  17.3916581  39.9004238 128.5393103  19.2729896  46.9206450
 129.2116157  19.0647258  46.2719099 127.7122890  19.0751982  46.4811682
 134.6182810  23.7372602  46.9968930 135.5474870  23.8883761  46.8237898
 134.1973840  23.8256622  46.1417577 133.4171141  27.7623266  44.7667468
 133.2782227  27.3942050  45.6393406 132.6285738  28.2770906  44.5951426
 134.0119293  32.8632363  36.1093004 134.1871049  32.3920406  36.9238627
 133.3252081  33.4898129  36.3374265 134.9676356  27.1404869  42.1556306
 134.6326189  27.1005639  43.0513956 134.4680302  26.4749585  41.6826716
 128.9420600  22.5472499  47.6808887 128.8040398  21.8152738  48.2820426
 129.8525524  22.4581399  47.3993075 131.5702901  22.2592458  47.1692566
 132.2802520  21.6185650  47.1279185 131.5272209  22.5105353  48.0918747
 130.2831835  19.2457676  48.9888206 129.7469192  18.7948414  49.6409802
 129.6948543  19.3803585  48.2458670 128.5780379  36.0121725  42.8832865
 128.8176977  36.6440249  43.5611883 127.7349575  35.6609765  43.1698224
 121.2136234  23.4923487  41.6456177 121.9007274  23.1785217  41.0577192
 121.0584363  24.3964852  41.3723428 126.0170956  18.3813684  46.0741200
 125.9329145  17.7739353  45.3391610 125.1953663  18.8722702  46.0750697
 133.0908240  31.8200848  45.2874369 133.0178412  32.6255819  45.7993673
 132.6485634  32.0192814  44.4622390 132.8798020  31.0572618  38.7977190
 132.0965542  31.5994298  38.8915415 133.5790765  31.5746597  39.1971431
 135.5506924  31.7187682  47.4432527 136.2634896  32.3535147  47.3708429
 135.0596953  31.8151548  46.6272529 137.2724451  25.6238934  39.0149819
 136.3380730  25.7440397  38.8454523 137.4501119  24.7211401  38.7509829
 130.6018837  29.4682125  48.2638098 131.3028297  30.1018608  48.4167492
 130.1313952  29.8096857  47.5033737 135.3627297  32.0586426  40.1918819
 135.5449692  31.2408082  40.6546571 136.1860283  32.2754118  39.7543709
 135.6969463  30.9854611  37.4533867 136.2257229  30.4747066  36.8404029
 135.9597682  30.6697141  38.3179400 134.4507696  22.7646544  52.5756685
 133.7748333  22.6640673  53.2459061 135.2735330  22.6085758  53.0392683
 126.1986556  29.0018480  45.1969201 126.7839992  28.2562168  45.3297105
 126.0011394  29.3122437  46.0805865 129.0525211  32.0369728  40.2131643
 128.3835586  32.5215855  39.7295683 128.9138080  32.2838948  41.1275022
 120.7904210  21.5724081  43.9173644 120.8288310  21.0387671  44.7110762
 120.2844503  21.0459286  43.2984621 133.1930479  34.0713471  46.8114301
 133.7448787  34.2345093  47.5763387 133.5336673  34.6617909  46.1394326
 127.6447245  18.4911754  51.0609220 128.2719284  18.1088831  51.6746745
 126.7875164  18.2725956  51.4264913 124.4212788  20.2988183  36.9927575
 124.7166229  19.3898861  36.9394629 123.5200824  20.2775922  36.6708578
 136.3298867  32.0195447  43.7977984 136.2050006  31.2185187  43.2888929
 136.9877958  32.5141640  43.3091954 127.9507035  18.3744179  42.9755124
 127.2293621  18.9880147  42.8362597 128.7400291  18.9101944  42.8971770
 126.1500629  17.9802280  37.1166900 125.8213336  17.0999659  36.9342006
 126.5040000  17.9249949  38.0043290 135.3980208  29.6157183  41.6261886
 135.2505171  28.6873890  41.8069456 136.2233702  29.6377274  41.1418961
 129.2642453  18.2675250  37.4842378 129.6038525  18.7961171  36.7620986
 129.7114573  18.6055656  38.2600945 130.1340944  20.4280734  43.1964748
 129.9885525  20.7421037  44.0889029 129.6566148  21.0465634  42.6435646
 124.6086606  22.9686078  46.1352409 124.0640074  23.7445886  46.2672683
 125.4865956  23.3156883  45.9771530 125.3952628  22.0955975  49.0282566
 124.6534364  22.2438610  49.6147196 125.0745372  22.3564240  48.1649315
 133.3396291  31.6371953  48.8262956 133.6483417  31.3921100  49.6985655
 134.1371773  31.8418591  48.3381826 133.3616903  33.7909862  41.0568332
 132.9221893  33.2986241  41.7501189 134.1125020  33.2482830  40.8160408
 125.8409242  29.9821403  41.0592960 126.6667262  29.6825175  40.6791604
 125.4903294  29.2129026  41.5082749 130.8090775  29.3347872  43.1290634
 130.1870784  28.6718577  42.8292862 131.4795642  29.3609003  42.4464282
 124.0417847  27.9007730  42.0181894 123.2049755  27.4729904  41.8365895
 124.0141492  28.0940173  42.9552685 130.3704282  27.8851795  36.6049095
 130.5192402  28.5687259  35.9515767 131.1770725  27.8656885  37.1198550
 128.1256915  23.9116973  37.6110163 127.8802957  23.0079303  37.8090374
 128.2952829  23.9134123  36.6689641 127.3952562  19.6445330  35.1096325
 126.7021807  19.7189685  34.4536361 127.1504314  18.8805674  35.6317842
 133.8699687  30.3799925  34.0760842 133.2973654  30.9990112  33.6231314
 134.4432481  30.9299287  34.6100764 134.1385178  25.7678484  52.8777551
 135.0588188  25.9457083  53.0717598 134.1034761  24.8234530  52.7257251
 123.3567343  20.9617078  41.8030826 123.0370128  20.1082386  41.5105200
 122.8100772  21.1765656  42.5588793 127.1347251  23.6779519  45.5200333
 127.3533261  24.6096627  45.5388366 127.5473025  23.3187493  46.3055136
 132.0075116  19.2512725  54.9103082 131.9071843  20.2007082  54.8415173
 131.7896658  18.9230964  54.0379152 123.2255603  24.5819989  43.7723948
 122.5319075  24.1673942  43.2593902 123.9728594  24.6240526  43.1757367
 131.8706386  22.6809863  53.7268143 131.3873468  23.4810224  53.9332032
 131.9567325  22.6917808  52.7735587 125.1392346  24.5138243  41.6489963
 125.1163034  24.6125930  40.6971846 125.4492982  25.3603394  41.9707129
 127.7979724  26.5714398  45.7636577 128.7522977  26.5398341  45.6966509
 127.5992247  26.1105022  46.5786803 128.3879106  25.1415514  48.3307375
 129.2071995  25.6359593  48.3542212 128.6615914  24.2247482  48.3024942
 126.1529953  32.1134018  42.7806775 126.0184420  31.3534419  42.2144773
 125.7362015  32.8374918  42.3135564 129.3099078  33.0103335  42.9925218
 129.1931463  33.9548767  42.8903908 128.4891525  32.7076896  43.3811017
 123.6414020  19.4753648  49.0299572 124.2872884  18.9652602  49.5186797
 123.4331171  20.2122330  49.6042997 136.1667412  26.5434496  54.5291712
 137.0358572  26.7175148  54.1678347 135.6874164  27.3628912  54.4067442
 130.3353593  33.6631597  46.2081146 131.2380839  33.6955207  46.5247641
 130.1090963  32.7332048  46.2227482 132.0907195  32.4162583  42.8691225
 131.1402826  32.4164445  42.7555597 132.3939681  31.6695318  42.3527259
 136.5557242  35.3953012  42.6845231 135.7656296  35.6510541  42.2085341
 137.0468489  36.2101350  42.7897271 134.8394945  35.6483502  45.1160221
 135.0902983  36.5330512  45.3817797 135.3754493  35.4688104  44.3435313
 135.4703986  39.7974494  38.8077698 136.3079208  40.2071503  38.5911406
 135.6482254  38.8573936  38.7777892 135.4930158  37.1365210  39.4788431
 135.2954557  36.5434570  38.7539498 134.9376822  36.8317420  40.1964370
 132.0529989  38.8215405  41.6456177 132.7401028  38.5077135  41.0577192
 131.8978117  39.7256769  41.3723428 136.8564711  33.7105601  46.0741200
 136.7722900  33.1031271  45.3391610 136.0347417  34.2014620  46.0750697
 131.6297965  36.9015998  43.9173644 131.6682064  36.3679589  44.7110762
 131.1238258  36.3751204  43.2984621 135.2606542  35.6280100  36.9927575
 135.5559983  34.7190779  36.9394629 134.3594578  35.6067840  36.6708578
 136.9894384  33.3094198  37.1166900 136.6607090  32.4291577  36.9342006
 137.3433755  33.2541867  38.0043290 135.4480361  38.2977996  46.1352409
 134.9033829  39.0737804  46.2672683 136.3259711  38.6448800  45.9771530
 136.2346383  37.4247892  49.0282566 135.4928119  37.5730528  49.6147196
 135.9139127  37.6856158  48.1649315 136.6802996  45.3113321  41.0592960
 137.5061016  45.0117093  40.6791604 136.3297048  44.5420943  41.5082749
 134.8811601  43.2299647  42.0181894 134.0443510  42.8021822  41.8365895
 134.8535247  43.4232091  42.9552685 134.1961098  36.2908996  41.8030826
 133.8763882  35.4374304  41.5105200 133.6494526  36.5057574  42.5588793
 134.0649358  39.9111907  43.7723948 133.3712829  39.4965860  43.2593902
 134.8122349  39.9532444  43.1757367 135.9786100  39.8430161  41.6489963
 135.9556788  39.9417848  40.6971846 136.2886737  40.6895312  41.9707129
 136.9923707  47.4425935  42.7806775 136.8578175  46.6826336  42.2144773
 136.5755769  48.1666835  42.3135564 134.4807775  34.8045566  49.0299572
 135.1266638  34.2944520  49.5186797 134.2724926  35.5414247  49.6042997
  16.0010906  66.7194876 128.0992718  15.3498886  67.3048957 127.7126732
  16.7955269  67.2501071 128.1587755  22.2677630  63.2119812 129.3597555
  21.4907073  62.8730972 128.9152717  22.9469111  63.2172436 128.6852520
  13.6728691  62.3084983 123.9032089  12.7655753  62.0774237 124.1023238
  14.1699723  61.5122603 124.0906071  16.5796770  71.0182491 126.8228776
  15.9058469  71.3214187 127.4313733  16.9662592  71.8211571 126.4734233
  14.5493012  63.9506322 125.7644158  14.1112442  63.2342181 125.3049796
  15.2903453  64.1782437 125.2029250  14.7787985  71.1862163 129.0375855
  14.9539741  70.7150206 129.8521478  14.0920773  71.8127929 129.2657116
  18.6704240  62.8090704 125.3576216  18.0533411  62.0837532 125.2609268
  18.2020728  63.5700064 125.0143290  19.4941925  66.1329875 129.4768856
  19.7701769  66.0186470 130.3862730  18.6246424  65.7347360 129.4381029
  16.4638155  69.3084411 130.3816718  16.9925921  68.7976866 129.7686880
  16.7266374  68.9926942 131.2462251  19.5578338  69.2801210 130.9971701
  19.7315216  68.7147632 130.2445553  20.0507229  70.0802105 130.8151191
  20.5453511  68.5967974 128.0968599  21.2404415  69.2174667 128.3155914
  20.8876661  67.7463325 128.3720977  22.4444934  66.0467680 129.6255930
  22.9696258  66.3854952 128.9005250  22.3567286  65.1114695 129.4419064
  14.6368379  68.7029726 127.0043692  14.0642346  69.3219913 126.5514164
  15.2101173  69.2529087 127.5383614  17.8565639  68.9866876 128.1352275
  18.7896312  68.9212438 128.3385150  17.7688852  69.8223143 127.6766807
  20.4853656  68.3032746 125.0956222  20.4067287  67.9692610 125.9891980
  21.3063322  68.7954514 125.0947695  15.0215178  60.0390539 124.3459745
  15.9674282  59.9096747 124.4148163  14.6429423  59.3005200 124.8229173
  18.0557607  65.6200742 124.7166201  18.7593457  65.8250744 125.3323856
  17.3320256  66.1877504 124.9815284  19.9644305  66.0583271 126.7664661
  20.7989909  65.6264469 126.5842135  19.8028648  65.8865285 127.6941555
  19.6190197  62.5615384 128.1321000  19.5639001  62.3959656 127.1909444
  18.9936252  63.2691417 128.2883190  28.5928580  76.5752922 136.8619837
  29.2306990  76.4559669 136.1583178  28.4749423  77.5233766 136.9207790
  25.4018286  76.5280350 136.7981362  25.0636798  76.4121415 135.9101897
  26.2708054  76.1271515 136.7782368  21.2605102  78.3815826 132.7878253
  20.6969967  78.2905763 132.0194541  21.1457497  77.5615731 133.2680746
  26.8404661  82.0486794 128.0992718  26.1892640  82.6340875 127.7126732
  27.6349023  82.5792989 128.1587755  20.7660288  79.1375931 128.4979852
  21.5391164  78.5904918 128.3592728  21.1185687  80.0020181 128.7094314
  23.5301537  77.8429162 138.2948111  24.1265109  77.6185184 137.5805074
  23.5876509  77.1013908 138.8973559  23.1026566  75.2968597 126.1298302
  23.3552086  74.7750119 125.3681765  22.1651125  75.1334743 126.2324986
  28.1469848  74.3004376 133.9373045  28.9332938  73.8823799 133.5863462
  28.4108553  75.2050468 134.1054694  28.3179926  79.7377226 128.6361702
  27.6825759  79.8111853 129.3482607  27.9877332  80.3270825 127.9580782
  33.5478275  74.2379609 134.8406024  34.2803447  73.6678826 135.0743853
  32.7917631  73.8501209 135.2812530  22.8222854  77.1996703 128.3322677
  22.7059112  76.5241607 129.0003762  22.9325114  76.7129077 127.5154830
  25.1654395  76.6606850 132.0369366  24.8012602  76.1337471 132.7482288
  26.0221511  76.2705320 131.8635852  24.8059882  71.6896750 127.0330715
  24.9734285  72.5576987 127.4001186  24.6157051  71.8524032 126.1092004
  27.5635215  80.1513729 138.6996545  27.2635938  81.0538768 138.5912353
  27.2186275  79.8845912 139.5517698  21.0147697  76.6027526 134.7333250
  20.0898193  76.4703740 134.9410942  21.2632110  77.3821745 135.2303192
  30.9632359  72.6696269 136.3793983  30.0549236  72.6011678 136.0852744
  30.9119955  73.1468214 137.2075808  24.7849103  74.1454408 128.0177382
  24.6648728  74.5911458 128.8562862  24.0901691  74.4939725 127.4590920
  22.5455995  86.9158049 131.6667513  22.4680025  87.8665875 131.7455994
  21.9417639  86.5703922 132.3242439  32.8294006  70.8712708 138.1571857
  32.1868386  71.1645241 137.5111651  32.3248934  70.7565628 138.9625053
  30.4834169  74.6175881 128.8457716  31.3952025  74.8503268 128.6705413
  29.9743816  75.2012925 128.2832794  29.0903751  79.6001699 136.2371297
  28.4612614  79.7647413 135.5347365  28.7029414  80.0143309 137.0082261
  32.9692983  80.5356137 133.5915661  32.2844022  80.9155039 133.0412694
  33.0536833  81.1451464 134.3247609  30.2243915  78.1816096 140.1911005
  30.4360810  78.8247856 139.5145386  30.1773663  77.3478413 139.7232935
  24.6431713  79.3376107 133.5021382  25.1070059  79.6163810 132.7126005
  24.3788511  78.4359552 133.3194473  21.5355794  78.8847589 136.4401146
  22.1057151  79.3134857 135.8018630  22.1263906  78.6030174 137.1385331
  23.5800599  75.4599260 130.3110948  24.2824643  75.9120303 130.7784874
  23.2481228  74.8183079 130.9390841  31.3389743  81.0588052 138.3633362
  32.1607187  80.6568239 138.0816044  31.3352146  80.9556286 139.3149478
  19.2740679  74.0827392 132.5711558  18.4771842  74.1946086 133.0895053
  19.0466271  74.4214044 131.7052448  39.4295736  77.4026800 134.7118333
  38.6759444  76.8334198 134.5562338  39.5643277  77.3689465 135.6588968
  24.8194364  82.2740202 130.3873053  24.6840039  83.1191738 130.8157901
  25.3604177  82.4759480 129.6238987  18.2723761  79.7915640 130.9600978
  18.7848282  80.5858891 131.1106543  18.9246474  79.0941931 130.8934579
  16.2372678  78.1204295 131.7360548  17.0747900  78.5301303 131.5194256
  16.4150946  77.1803737 131.7060742  28.1337110  75.7879375 127.4244381
  27.6183734  76.5583980 127.6632769  27.8614419  75.1144512 128.0477443
  25.7184221  70.6329076 132.4829620  24.8625818  70.2435927 132.3035258
  26.1311173  70.7121037 131.6229405  33.1071384  78.5411730 129.3597555
  32.3300827  78.2022890 128.9152717  33.7862865  78.5464353 128.6852520
  27.9223414  73.6606467 129.2504162  27.6173549  73.9752617 130.1014306
  28.8753856  73.7387887 129.2931495  26.3669845  79.8196691 130.8997116
  25.8391207  79.0849450 130.5870354  25.8657348  80.5971367 130.6537085
  31.3462691  78.0145711 136.0164163  30.6886366  78.7044973 136.1044291
  32.1503091  78.4042143 136.3598149  21.0988573  70.4816357 133.2603728
  21.6732325  70.2591539 132.5276921  21.6859555  70.5505052 134.0132329
  30.1568150  76.3690084 134.0668105  30.6700032  77.0020076 134.5689814
  30.8069374  75.7691279 133.7011465  21.4258160  72.5120818 127.2799613
  20.5895472  72.8495505 127.6008888  21.2862930  72.3769798 126.3426750
  23.4011241  67.3557606 131.9878797  22.7475653  67.0406623 131.3635412
  23.3591715  66.7333346 132.7138620  24.5122446  77.6376901 123.9032089
  23.6049507  77.4066154 124.1023238  25.0093478  76.8414520 124.0906071
  27.4190524  86.3474408 126.8228776  26.7452223  86.6506105 127.4313733
  27.8056346  87.1503489 126.4734233  26.6348981  73.8439540 136.3126445
  25.7171542  74.0654487 136.1548133  27.0509125  73.9185850 135.4538152
  27.4184029  75.2430955 131.4429125  28.1655848  75.7552352 131.1336247
  27.6875618  74.9215008 132.3033519  25.6910679  77.7389496 128.4256080
  24.7821898  77.4548529 128.5228549  25.7205763  78.1588574 127.5659386
  30.9229946  81.3496085 132.1947247  30.4692273  80.5086995 132.2512438
  30.2923913  81.9857484 132.5322027  29.8662866  72.2788071 133.4247915
  29.1285623  71.7665458 133.7558157  30.1189639  71.8388453 132.6131191
  29.3662886  83.1872582 133.1297065  29.6585860  83.7477639 132.4109431
  29.8761506  83.4801143 133.8850224  29.9674493  65.0564323 134.0189684
  30.2733370  64.1961687 133.7315599  30.6927098  65.6481944 133.8188678
  16.2598849  75.4595010 132.4071282  16.0623249  74.8664371 131.6822348
  15.7045513  75.1547220 133.1247221  24.2395573  75.3518117 134.5265875
  24.2944183  74.3991953 134.4508352  23.4286775  75.5077556 135.0107173
  25.3886767  79.2798240 125.7644158  24.9506197  78.5634099 125.3049796
  26.1297208  79.5074354 125.2029250  22.1787933  73.9695176 132.2856254
  21.3655798  74.2689347 132.6921446  22.6746927  73.5750865 133.0030736
  24.3296511  83.9652933 134.2190519  24.2872690  84.1913779 133.2899051
  25.2459210  83.7316308 134.3676320  33.5059882  77.5555437 131.8220477
  33.3677780  77.7457033 130.8941666  33.1496100  78.3174819 132.2788528
  33.5329261  79.6231964 136.8331748  33.9665768  79.5307253 137.6814802
  34.2460842  79.5989464 136.1951764  22.4462312  80.8415962 134.0152481
  23.2402910  80.3466282 133.8135056  21.7354004  80.3133825 133.6520187
  18.7545075  74.9859044 130.0912234  17.8242663  74.9243499 130.3082196
  18.8502547  74.4634997 129.2948875  18.6730624  71.5113857 132.6790476
  18.9337441  72.4259190 132.5699636  19.4947796  71.0438299 132.8287088
  34.3944811  79.6655664 139.3664634  34.5880701  80.5701475 139.6123909
  34.2945429  79.2063083 140.2003219  26.2245256  77.3894320 139.9251781
  27.1537316  77.5405479 139.7520748  25.8036286  77.4778341 139.0700427
  25.6181740  86.5154081 129.0375855  25.7933495  86.0442124 129.8521478
  24.9314528  87.1419847 129.2657116  26.5738803  80.7926587 135.0839156
  26.2388635  80.7527357 135.9796806  26.0742748  80.1271303 134.6109566
  29.5097994  78.1382621 125.3576216  28.8927165  77.4129449 125.2609268
  29.0414483  78.8991982 125.0143290  21.2996540  72.3568046 124.4797520
  20.4226007  72.2356846 124.1159767  21.7754293  71.5654124 124.2276409
  31.1669533  80.8121114 141.2495976  30.2796312  80.4747035 141.3722375
  31.7368084  80.0804145 141.4864741  24.4860466  84.7094336 131.7260041
  23.7027988  85.2516016 131.8198265  25.1853212  85.2268316 132.1254282
  27.7957116  70.5188965 134.3694246  28.2925816  69.7658928 134.0495316
  27.0244098  70.5553282 133.8037455  35.6486874  76.2229331 136.0112537
  35.6376750  77.1054046 135.6406471  34.7804253  75.8700882 135.8167075
  28.8786897  79.2760653 131.9432669  27.9443176  79.3962115 131.7737374
  29.0563566  78.3733119 131.6792679  24.3792085  72.6606348 134.0965931
  24.0089873  72.1077389 134.7846836  24.8751178  72.0564482 133.5440931
  32.2659448  75.1177972 132.4782703  32.7319901  75.9505963 132.4043006
  32.7166949  74.6522953 133.1827962  30.3335680  81.4621793 129.4768856
  30.6095523  81.3478388 130.3862730  29.4640178  81.0639278 129.4381029
  30.0082570  75.6748451 139.0173499  29.3554020  75.9224358 138.3625952
  30.3862950  74.8612589 138.6835976  26.9689744  85.7108144 133.1201669
  27.1512138  84.8929800 133.5829421  27.7922730  85.9275836 132.6826559
  27.3031909  84.6376329 130.3816718  27.8319676  84.1268784 129.7686880
  27.5660129  84.3218859 131.2462251  16.0275234  73.9509901 129.9210426
  16.3228675  73.0420579 129.8677479  15.1263270  73.9297640 129.5991428
  27.9361313  85.6717165 136.7260834  27.8112452  84.8706905 136.2171780
  28.5940404  86.1663358 136.2374804  29.9996221  83.4726185 138.3540384
  29.0526557  83.3531536 138.2818711  30.3478994  82.5848683 138.4366646
  17.7563076  71.6323998 130.0449751  17.4275782  70.7521377 129.8624857
  18.1102446  71.5771667 130.9326140  27.0042655  83.2678901 134.5544736
  26.8567617  82.3395609 134.7352306  27.8296148  83.2898992 134.0701812
  20.8704899  71.9196968 130.4125229  21.2100971  72.4482889 129.6903837
  21.3177019  72.2577374 131.1883795  30.6076776  84.0907460 135.6409609
  31.5323324  83.8850321 135.5034060  30.4392080  83.8423861 136.5498951
  22.8573046  70.4171590 128.6118521  23.5781409  70.7952843 128.1082238
  22.2338350  71.1360467 128.7153499  27.0004169  71.1216739 129.5476854
  27.2167783  72.0041377 129.2465682  26.5198236  70.7302952 128.8182496
  30.3972093  84.6093127 130.9971701  30.5708970  84.0439550 130.2445553
  30.8900984  85.4094022 130.8151191  23.0036669  69.9519380 131.4416058
  23.1252580  69.0236026 131.6406945  22.7138711  69.9658066 130.5294373
  36.2511484  77.3729550 132.6162000  36.6942630  76.6236875 132.2181124
  35.3737994  77.3639687 132.2335732  31.3847265  83.9259892 128.0968599
  32.0798170  84.5466584 128.3155914  31.7270415  83.0755243 128.3720977
  33.2838688  81.3759597 129.6255930  33.8090012  81.7146870 128.9005250
  33.1961041  80.4406613 129.4419064  33.0930469  78.8584967 142.2439856
  33.1428474  78.6934975 143.1855379  32.9844393  77.9912226 141.8537737
  21.9766728  81.5373513 129.5331945  22.1254848  82.2208977 128.8798618
  22.7833172  81.5178603 130.0481401  34.5948666  81.2781909 142.4881878
  34.3033475  81.6411889 143.3245339  33.9820797  80.5648917 142.3095210
  35.7944349  78.8434789 135.0084448  36.6291240  79.2824593 135.1722008
  35.9303477  78.3673442 134.1892694  32.8435854  76.4014523 140.9561936
  33.3189976  76.5942170 140.1480787  31.9201420  76.4573709 140.7105319
  19.7319361  77.5638691 130.5393014  19.4865403  76.6601021 130.7373224
  19.9015276  77.5655841 129.5972492  19.0015009  73.2967048 128.0379175
  18.3084254  73.3711403 127.3819211  18.7566760  72.5327392 128.5600692
  25.4762134  84.0321643 127.0043692  24.9036101  84.6511831 126.5514164
  26.0494927  84.5821005 127.5383614  31.5437523  73.2780284 139.1890241
  32.4954946  73.3778381 139.2102465  31.3740974  72.4858552 139.6988326
  28.6959393  84.3158794 128.1352275  29.6290067  84.2504355 128.3385150
  28.6082606  85.1515060 127.6766807  31.3247410  83.6324664 125.0956222
  31.2461042  83.2984527 125.9891980  32.1457077  84.1246432 125.0947695
  34.0225601  76.4986403 138.3032541  33.9901921  75.5602404 138.4892225
  34.6326225  76.5770440 137.5698366  25.8608932  75.3682456 124.3459745
  26.8068037  75.2388664 124.4148163  25.4823177  74.6297118 124.8229173
  34.1720090  73.2897447 138.3490824  33.6559138  72.5055903 138.1620753
  35.0560038  72.9616163 138.5137344  31.8330817  67.0338462 134.3086637
  31.6355638  66.7253550 135.1929969  32.4430522  67.7600101 134.4384567
  39.8402151  77.5602410 137.4438578  40.5705540  77.2987698 138.0046281
  39.2309097  76.8231132 137.4840646  37.9217448  75.7010273 138.0413029
  37.1950612  75.5666238 137.4329521  37.5064735  76.0087101 138.8469747
  24.0451849  73.2932433 124.2814630  23.1383305  72.9965545 124.3577344
  24.3227830  72.9962251 123.4148916  25.6613915  67.8369322 130.4358871
  24.8514643  67.4916407 130.8114118  26.3498332  67.5276866 131.0246483
  27.5904463  66.9147369 132.0583168  28.1435502  67.3342823 132.7173191
  27.8274550  65.9883117 132.1006124  22.8150634  70.1519368 124.4226609
  23.6769798  70.4774266 124.6822427  23.0000978  69.3650864 123.9099675
  30.9683270  69.0247894 131.5661832  30.3881939  69.6832698 131.1839885
  30.7019203  68.2025239 131.1549250  29.4186837  68.4252952 133.7683153
  29.9186615  68.5369486 132.9597472  30.0622445  68.1214005 134.4083961
  29.7508148  71.1847985 130.6218181  28.8634003  71.4697635 130.4038375
  30.1662137  71.0241748 129.7745458  33.1022684  71.2094506 134.3372520
  33.8783075  71.6990958 134.6097137  32.3770819  71.6352560 134.7944389
  35.5395243  71.9222125 135.3946461  36.1339734  71.6817861 134.6839769
  35.6121827  71.2029255 136.0219997  28.8951362  80.9492659 124.7166201
  29.5987212  81.1542662 125.3323856  28.1714011  81.5169421 124.9815284
  29.7249172  76.7002521 130.8368471  29.6684374  77.1571072 129.9976103
  30.2777515  75.9393205 130.6591314  33.5353978  72.4892252 131.6618590
  33.2790912  72.0888888 132.4926798  32.9106846  73.2036046 131.5368729
  37.8466316  75.2288326 134.1689882  37.2865874  75.2981515 134.9421444
  37.2409819  75.0529310 133.4489378  30.8038059  81.3875188 126.7664661
  31.6383663  80.9556387 126.5842135  30.6422402  81.2157202 127.6941555
  30.4583951  77.8907302 128.1321000  30.4032755  77.7251573 127.1909444
  29.8330007  78.5983335 128.2883190  23.7680077  67.3915411 127.7106318
  23.7558747  68.3357251 127.8674589  24.6603499  67.2085556 127.4165780
  27.5832196  63.9858187 131.9652255  26.8164592  63.4316674 132.1108938
  27.9942901  64.0580056 132.8266407  39.4322334  91.9044840 136.8619837
  40.0700744  91.7851587 136.1583178  39.3143177  92.8525684 136.9207790
  36.2412041  91.8572268 136.7981362  35.9030552  91.7413332 135.9101897
  37.1101809  91.4563433 136.7782368  32.0998856  93.7107744 132.7878253
  31.5363721  93.6197681 132.0194541  31.9851251  92.8907649 133.2680746
  37.6798415  97.3778712 128.0992718  37.0286395  97.9632792 127.7126732
  38.4742778  97.9084907 128.1587755  31.6054042  94.4667849 128.4979852
  32.3784918  93.9196836 128.3592728  31.9579441  95.3312098 128.7094314
  34.3695292  93.1721080 138.2948111  34.9658864  92.9477102 137.5805074
  34.4270263  92.4305825 138.8973559  33.9420320  90.6260515 126.1298302
  34.1945841  90.1042036 125.3681765  33.0044879  90.4626661 126.2324986
  38.9863603  89.6296293 133.9373045  39.7726692  89.2115717 133.5863462
  39.2502307  90.5342386 134.1054694  39.1573680  95.0669144 128.6361702
  38.5219513  95.1403770 129.3482607  38.8271087  95.6562743 127.9580782
  44.3872030  89.5671527 134.8406024  45.1197202  88.9970743 135.0743853
  43.6311386  89.1793127 135.2812530  33.6616609  92.5288621 128.3322677
  33.5452867  91.8533524 129.0003762  33.7718869  92.0420995 127.5154830
  36.0048150  91.9898768 132.0369366  35.6406357  91.4629389 132.7482288
  36.8615266  91.5997237 131.8635852  41.9097450  83.2793101 139.3000633
  41.5780775  84.1488512 139.0761848  41.3143064  82.9629385 139.9794663
  35.6453637  87.0188668 127.0330715  35.8128039  87.8868904 127.4001186
  35.4550806  87.1815950 126.1092004  38.4028970  95.4805647 138.6996545
  38.1029693  96.3830686 138.5912353  38.0580029  95.2137830 139.5517698
  31.8541451  91.9319444 134.7333250  30.9291948  91.7995658 134.9410942
  32.1025865  92.7113663 135.2303192  41.8026114  87.9988187 136.3793983
  40.8942991  87.9303595 136.0852744  41.7513709  88.4760132 137.2075808
  35.6242858  89.4746325 128.0177382  35.5042483  89.9203376 128.8562862
  34.9295446  89.8231643 127.4590920  33.3849750 102.2449967 131.6667513
  33.3073779 103.1957792 131.7455994  32.7811393 101.8995840 132.3242439
  43.6687760  86.2004625 138.1571857  43.0262140  86.4937158 137.5111651
  43.1642689  86.0857546 138.9625053  41.3227924  89.9467799 128.8457716
  42.2345780  90.1795185 128.6705413  40.8137571  90.5304843 128.2832794
  35.9599761  89.3065033 139.8552565  36.8060957  89.7304447 139.9987214
  35.8998399  88.6498657 140.5491128  39.9297506  94.9293617 136.2371297
  39.3006368  95.0939331 135.5347365  39.5423168  95.3435227 137.0082261
  43.8086738  95.8648055 133.5915661  43.1237776  96.2446956 133.0412694
  43.8930587  96.4743381 134.3247609  39.1099207  86.9669401 141.5133739
  38.8660139  87.7211462 140.9768015  39.3859137  87.3454749 142.3480986
  41.0637669  93.5108014 140.1911005  41.2754565  94.1539774 139.5145386
  41.0167418  92.6770330 139.7232935  38.6663898  86.1225834 137.0947577
  37.8048377  86.4207088 137.3864314  38.6926333  86.3396233 136.1628609
  35.4825468  94.6668025 133.5021382  35.9463813  94.9455728 132.7126005
  35.2182266  93.7651470 133.3194473  32.3749549  94.2139507 136.4401146
  32.9450906  94.6426775 135.8018630  32.9657661  93.9322091 137.1385331
  34.4194354  90.7891177 130.3110948  35.1218397  91.2412221 130.7784874
  34.0874982  90.1474996 130.9390841  28.1619688  89.0474730 135.6128081
  27.3718742  89.3032259 135.1368192  28.6530935  89.8623068 135.7180122
  42.1783497  96.3879969 138.3633362  43.0000941  95.9860157 138.0816044
  42.1745900  96.2848203 139.3149478  30.1134433  89.4119309 132.5711558
  29.3165597  89.5238004 133.0895053  29.8860025  89.7505962 131.7052448
  50.2689490  92.7318718 134.7118333  49.5153199  92.1626116 134.5562338
  50.4037032  92.6981382 135.6588968  35.6588119  97.6032120 130.3873053
  35.5233793  98.4483656 130.8157901  36.1997931  97.8051398 129.6238987
  29.1117516  95.1207558 130.9600978  29.6242036  95.9150808 131.1106543
  29.7640229  94.4233849 130.8934579  39.0080582  81.1262682 138.9171946
  38.6644851  82.0164324 138.8411057  39.3759545  80.9364340 138.0541531
  27.0766433  93.4496212 131.7360548  27.9141655  93.8593221 131.5194256
  27.2544700  92.5095655 131.7060742  38.9730865  91.1171293 127.4244381
  38.4577488  91.8875898 127.6632769  38.7008173  90.4436429 128.0477443
  36.5577976  85.9620994 132.4829620  35.7019572  85.5727844 132.3035258
  36.9704928  86.0412955 131.6229405  38.0877122  83.4967337 136.8821179
  37.5841918  83.4597472 136.0688985  38.3807729  84.4060080 136.9417836
  34.3320008  83.5806067 135.8887361  35.1973005  83.3848875 135.5293251
  34.3997517  83.3516419 136.8156718  43.9465139  93.8703648 129.3597555
  43.1694582  93.5314807 128.9152717  44.6256620  93.8756271 128.6852520
  38.7617168  88.9898385 129.2504162  38.4567304  89.3044534 130.1014306
  39.7147610  89.0679805 129.2931495  37.2063600  95.1488608 130.8997116
  36.6784961  94.4141368 130.5870354  36.7051103  95.9263285 130.6537085
  42.1856446  93.3437629 136.0164163  41.5280120  94.0336890 136.1044291
  42.9896845  93.7334061 136.3598149  31.9382327  85.8108275 133.2603728
  32.5126079  85.5883456 132.5276921  32.5253310  85.8796969 134.0132329
  40.9961905  91.6982002 134.0668105  41.5093786  92.3311993 134.5689814
  41.6463129  91.0983197 133.7011465  32.2651915  87.8412736 127.2799613
  31.4289227  88.1787422 127.6008888  32.1256684  87.7061716 126.3426750
  34.2404995  82.6849524 131.9878797  33.5869408  82.3698541 131.3635412
  34.1985469  82.0625264 132.7138620  35.3516200  92.9668819 123.9032089
  34.4443262  92.7358072 124.1023238  35.8487232  92.1706438 124.0906071
  38.2584279 101.6766326 126.8228776  37.5845978 101.9798023 127.4313733
  38.6450101 102.4795406 126.4734233  37.4742736  89.1731457 136.3126445
  36.5565297  89.3946404 136.1548133  37.8902879  89.2477768 135.4538152
  38.2577783  90.5722873 131.4429125  39.0049602  91.0844270 131.1336247
  38.5269373  90.2506926 132.3033519  36.5304433  93.0681414 128.4256080
  35.6215653  92.7840446 128.5228549  36.5599517  93.4880492 127.5659386
  41.7623701  96.6788003 132.1947247  41.3086028  95.8378913 132.2512438
  41.1317668  97.3149401 132.5322027  40.7056620  87.6079989 133.4247915
  39.9679377  87.0957375 133.7558157  40.9583394  87.1680371 132.6131191
  40.2056640  98.5164500 133.1297065  40.4979614  99.0769557 132.4109431
  40.7155261  98.8093061 133.8850224  40.8068248  80.3856241 134.0189684
  41.1127125  79.5253605 133.7315599  41.5320853  80.9773861 133.8188678
  27.0992604  90.7886928 132.4071282  26.9017004  90.1956288 131.6822348
  26.5439268  90.4839138 133.1247221  35.0789327  90.6810034 134.5265875
  35.1337937  89.7283871 134.4508352  34.2680530  90.8369473 135.0107173
  36.2280521  94.6090157 125.7644158  35.7899951  93.8926016 125.3049796
  36.9690962  94.8366272 125.2029250  33.0181687  89.2987094 132.2856254
  32.2049553  89.5981264 132.6921446  33.5140682  88.9042783 133.0030736
  35.1690265  99.2944851 134.2190519  35.1266444  99.5205697 133.2899051
  36.0852964  99.0608225 134.3676320  38.6155899  89.7628918 141.1171148
  38.9705287  89.9900392 141.9765613  39.2628030  90.0947295 140.4948403
  44.3453636  92.8847354 131.8220477  44.2071535  93.0748950 130.8941666
  43.9889855  93.6466737 132.2788528  32.5095762  86.8705449 137.9017489
  33.1495141  86.7294209 137.2040452  31.6773293  86.5839963 137.5256091
  44.3723016  94.9523881 136.8331748  44.8059522  94.8599170 137.6814802
  45.0854596  94.9281382 136.1951764  33.2856066  96.1707880 134.0152481
  34.0796665  95.6758200 133.8135056  32.5747758  95.6425743 133.6520187
  29.5938830  90.3150962 130.0912234  28.6636418  90.2535417 130.3082196
  29.6896302  89.7926914 129.2948875  29.5124379  86.8405774 132.6790476
  29.7731196  87.7551108 132.5699636  30.3341551  86.3730217 132.8287088
  45.2338565  94.9947582 139.3664634  45.4274455  95.8993392 139.6123909
  45.1339183  94.5355001 140.2003219  36.8874876  84.8805473 141.8654961
  36.2402791  85.5795422 141.7719437  37.6575891  85.3141616 142.2331209
  37.0639010  92.7186237 139.9251781  37.9931070  92.8697397 139.7520748
  36.6430040  92.8070258 139.0700427  36.4575494 101.8445998 129.0375855
  36.6327250 101.3734042 129.8521478  35.7708282 102.4711765 129.2657116
  37.4132557  96.1218505 135.0839156  37.0782390  96.0819275 135.9796806
  36.9136503  95.4563220 134.6109566  40.3491749  93.4674539 125.3576216
  39.7320920  92.7421367 125.2609268  39.8808237  94.2283899 125.0143290
  32.1390295  87.6859963 124.4797520  31.2619761  87.5648764 124.1159767
  32.6148048  86.8946042 124.2276409  42.0063288  96.1413031 141.2495976
  41.1190067  95.8038953 141.3722375  42.5761839  95.4096062 141.4864741
  35.3254221 100.0386254 131.7260041  34.5421743 100.5807934 131.8198265
  36.0246966 100.5560233 132.1254282  38.6350871  85.8480883 134.3694246
  39.1319570  85.0950845 134.0495316  37.8637852  85.8845200 133.8037455
  46.4880628  91.5521249 136.0112537  46.4770505  92.4345964 135.6406471
  45.6198008  91.1992799 135.8167075  39.7180652  94.6052570 131.9432669
  38.7836930  94.7254033 131.7737374  39.8957320  93.7025037 131.6792679
  35.2185840  87.9898266 134.0965931  34.8483627  87.4369306 134.7846836
  35.7144932  87.3856399 133.5440931  43.1053203  90.4469890 132.4782703
  43.5713655  91.2797881 132.4043006  43.5560703  89.9814871 133.1827962
  41.1729434  96.7913711 129.4768856  41.4489278  96.6770305 130.3862730
  40.3033933  96.3931196 129.4381029  41.0769866  82.8150477 136.5173605
  40.1632946  83.0454703 136.6855812  41.5062967  82.8988921 137.3687637
  40.8476324  91.0040368 139.0173499  40.1947774  91.2516276 138.3625952
  41.2256704  90.1904507 138.6835976  37.8083498 101.0400062 133.1201669
  37.9905893 100.2221718 133.5829421  38.6316484 101.2567754 132.6826559
  38.1425664  99.9668247 130.3816718  38.6713430  99.4560701 129.7686880
  38.4053883  99.6510777 131.2462251  26.8668989  89.2801818 129.9210426
  27.1622430  88.3712497 129.8677479  25.9657024  89.2589558 129.5991428
  38.7755067 101.0009083 136.7260834  38.6506207 100.1998822 136.2171780
  39.4334159 101.4955276 136.2374804  30.3963236  87.3557815 135.9037974
  29.6749821  87.9693783 135.7645448  31.1856491  87.8915580 135.8254620
  40.8389976  98.8018103 138.3540384  39.8920311  98.6823454 138.2818711
  41.1872749  97.9140601 138.4366646  33.1989549  84.6912242 142.1778626
  33.7223951  84.9374538 142.9404935  32.9801882  85.5232276 141.7581763
  28.5956830  86.9615916 130.0449751  28.2669536  86.0813295 129.8624857
  28.9496201  86.9063585 130.9326140  37.8436409  98.5970819 134.5544736
  37.6961372  97.6687526 134.7352306  38.6689903  98.6190910 134.0701812
  31.7098653  87.2488886 130.4125229  32.0494726  87.7774807 129.6903837
  32.1570774  87.5869292 131.1883795  41.4470531  99.4199378 135.6409609
  42.3717078  99.2142239 135.5034060  41.2785834  99.1715779 136.5498951
  34.4042094  85.6325937 139.8628297  34.0638915  84.8333750 140.2648976
  33.6981100  85.9327647 139.2905130  35.0558566  82.7175249 138.3155620
  35.8784635  82.2435727 138.1934510  35.2996630  83.4965733 138.8154306
  33.6966801  85.7463507 128.6118521  34.4175163  86.1244760 128.1082238
  33.0732105  86.4652384 128.7153499  37.8397923  86.4508656 129.5476854
  38.0561538  87.3333294 129.2465682  37.3591991  86.0594870 128.8182496
  32.5797145  89.4094370 136.1247598  32.4341725  89.7234673 137.0171880
  32.1022348  90.0279270 135.5718497  34.4393528  86.3996918 136.1728488
  34.4255096  85.5038011 135.8360786  35.1565956  86.4067581 136.8066774
  36.2919658  86.8334258 138.2181615  36.0337436  87.7551329 138.2165946
  35.7604699  86.4364692 138.9082079  41.2365847  99.9385045 130.9971701
  41.4102725  99.3731467 130.2445553  41.7294738 100.7385940 130.8151191
  33.8430424  85.2811298 131.4416058  33.9646335  84.3527944 131.6406945
  33.5532466  85.2949984 130.5294373  36.7121614  82.9666208 134.5782778
  36.7343311  83.0305541 133.6234757  37.1289673  82.1270717 134.7723284
  47.0905238  92.7021468 132.6162000  47.5336384  91.9528793 132.2181124
  46.2131749  92.6931604 132.2335732  42.2241020  99.2551809 128.0968599
  42.9191924  99.8758502 128.3155914  42.5664170  98.4047161 128.3720977
  44.1232443  96.7051515 129.6255930  44.6483767  97.0438788 128.9005250
  44.0354795  95.7698530 129.4419064  43.9324224  94.1876885 142.2439856
  43.9822229  94.0226892 143.1855379  43.8238147  93.3204144 141.8537737
  32.8160483  96.8665431 129.5331945  32.9648603  97.5500895 128.8798618
  33.6226926  96.8470521 130.0481401  41.2227986  90.1707813 143.5599163
  42.1237849  90.0314278 143.2683161  41.2975961  90.3362268 144.4997340
  45.4342421  96.6073826 142.4881878  45.1427229  96.9703807 143.3245339
  44.8214552  95.8940835 142.3095210  46.6338103  94.1726706 135.0084448
  47.4684994  94.6116510 135.1722008  46.7697232  93.6965359 134.1892694
  43.6829609  91.7306441 140.9561936  44.1583731  91.9234087 140.1480787
  42.7595174  91.7865627 140.7105319  30.5713116  92.8930608 130.5393014
  30.3259157  91.9892938 130.7373224  30.7409030  92.8947759 129.5972492
  38.2609825  83.7654285 139.9217770  38.7791769  84.5015312 139.5964258
  37.9064958  84.0718278 140.7564529  29.8408763  88.6258966 128.0379175
  29.1478008  88.7003321 127.3819211  29.5960515  87.8619309 128.5600692
  38.5122420  80.1854567 135.4418666  38.7924173  79.5177756 136.0679093
  39.2973027  80.3783663 134.9293330  36.3155888  99.3613561 127.0043692
  35.7429855  99.9803748 126.5514164  36.8888682  99.9112923 127.5383614
  42.3831278  88.6072201 139.1890241  43.3348701  88.7070299 139.2102465
  42.2134728  87.8150470 139.6988326  40.4045657  85.6927784 139.3749642
  39.8095590  85.9732797 138.6796131  40.1195354  86.1821685 140.1466383
  39.5353148  99.6450711 128.1352275  40.4683821  99.5796273 128.3385150
  39.4476361 100.4806978 127.6766807  42.1641165  98.9616582 125.0956222
  42.0854796  98.6276445 125.9891980  42.9850831  99.4538349 125.0947695
  44.8619356  91.8278321 138.3032541  44.8295676  90.8894322 138.4892225
  45.4719979  91.9062358 137.5698366  36.7002687  90.6974374 124.3459745
  37.6461791  90.5680582 124.4148163  36.3216932  89.9589036 124.8229173
  45.0113844  88.6189364 138.3490824  44.4952893  87.8347821 138.1620753
  45.8953793  88.2908081 138.5137344  42.6724571  82.3630380 134.3086637
  42.4749392  82.0545468 135.1929969  43.2824277  83.0892019 134.4384567
  50.6795906  92.8894328 137.4438578  51.4099294  92.6279616 138.0046281
  50.0702851  92.1523050 137.4840646  48.7611203  91.0302190 138.0413029
  48.0344366  90.8958155 137.4329521  48.3458490  91.3379019 138.8469747
  34.8845604  88.6224350 124.2814630  33.9777059  88.3257463 124.3577344
  35.1621585  88.3254168 123.4148916  36.5007669  83.1661240 130.4358871
  35.6908398  82.8208325 130.8114118  37.1892086  82.8568784 131.0246483
  38.4298218  82.2439287 132.0583168  38.9829256  82.6634740 132.7173191
  38.6668304  81.3175035 132.1006124  33.6544388  85.4811285 124.4226609
  34.5163552  85.8066184 124.6822427  33.8394733  84.6942781 123.9099675
  41.8077025  84.3539812 131.5661832  41.2275694  85.0124616 131.1839885
  41.5412958  83.5317157 131.1549250  40.2580591  83.7544870 133.7683153
  40.7580370  83.8661404 132.9597472  40.9016199  83.4505922 134.4083961
  40.5901903  86.5139902 130.6218181  39.7027758  86.7989553 130.4038375
  41.0055892  86.3533666 129.7745458  43.9416439  86.5386423 134.3372520
  44.7176829  87.0282876 134.6097137  43.2164573  86.9644477 134.7944389
  46.3788998  87.2514042 135.3946461  46.9733488  87.0109778 134.6839769
  46.4515581  86.5321173 136.0219997  39.7345116  96.2784577 124.7166201
  40.4380966  96.4834579 125.3323856  39.0107765  96.8461339 124.9815284
  40.5642927  92.0294438 130.8368471  40.5078128  92.4862990 129.9976103
  41.1171269  91.2685123 130.6591314  44.3747733  87.8184170 131.6618590
  44.1184667  87.4180806 132.4926798  43.7500601  88.5327964 131.5368729
  48.6860070  90.5580243 134.1689882  48.1259628  90.6273433 134.9421444
  48.0803574  90.3821228 133.4489378  41.6431814  96.7167106 126.7664661
  42.4777418  96.2848305 126.5842135  41.4816157  96.5449120 127.6941555
  41.2977706  93.2199219 128.1321000  41.2426510  93.0543491 127.1909444
  40.6723761  93.9275252 128.2883190  34.6073831  82.7207328 127.7106318
  34.5952501  83.6649168 127.8674589  35.4997253  82.5377474 127.4165780
  38.4225951  79.3150105 131.9652255  37.6558347  78.7608592 132.1108938
  38.8336656  79.3871974 132.8266407  50.2716089 107.2336757 136.8619837
  50.9094499 107.1143505 136.1583178  50.1536932 108.1817601 136.9207790
  47.0805795 107.1864185 136.7981362  46.7424307 107.0705250 135.9101897
  47.9495563 106.7855350 136.7782368  42.9392611 109.0399662 132.7878253
  42.3757476 108.9489599 132.0194541  42.8245006 108.2199566 133.2680746
  48.5192170 112.7070629 128.0992718  47.8680149 113.2924710 127.7126732
  49.3136532 113.2376824 128.1587755  42.4447797 109.7959767 128.4979852
  43.2178673 109.2488754 128.3592728  42.7973196 110.6604016 128.7094314
  45.2089046 108.5012997 138.2948111  45.8052618 108.2769020 137.5805074
  45.2664018 107.7597743 138.8973559  44.7814074 105.9552433 126.1298302
  45.0339595 105.4333954 125.3681765  43.8438634 105.7918578 126.2324986
  49.8257357 104.9588211 133.9373045  50.6120447 104.5407634 133.5863462
  50.0896062 105.8634303 134.1054694  49.9967435 110.3961061 128.6361702
  49.3613268 110.4695688 129.3482607  49.6664841 110.9854660 127.9580782
  55.2265784 104.8963444 134.8406024  55.9590956 104.3262661 135.0743853
  54.4705140 104.5085045 135.2812530  44.5010363 107.8580539 128.3322677
  44.3846621 107.1825442 129.0003762  44.6112623 107.3712913 127.5154830
  46.8441904 107.3190686 132.0369366  46.4800111 106.7921307 132.7482288
  47.7009020 106.9289155 131.8635852  52.7491205  98.6085018 139.3000633
  52.4174530  99.4780429 139.0761848  52.1536818  98.2921302 139.9794663
  46.4847391 102.3480586 127.0330715  46.6521793 103.2160822 127.4001186
  46.2944560 102.5107867 126.1092004  42.6935206 107.2611361 134.7333250
  41.7685702 107.1287575 134.9410942  42.9419619 108.0405581 135.2303192
  52.6419868 103.3280105 136.3793983  51.7336745 103.2595513 136.0852744
  52.5907464 103.8052050 137.2075808  46.4636612 104.8038243 128.0177382
  46.3436237 105.2495294 128.8562862  45.7689200 105.1523561 127.4590920
  44.2243504 117.5741885 131.6667513  44.1467534 118.5249710 131.7455994
  43.6205148 117.2287757 132.3242439  54.5081515 101.5296543 138.1571857
  53.8655895 101.8229076 137.5111651  54.0036443 101.4149463 138.9625053
  52.1621678 105.2759716 128.8457716  53.0739534 105.5087103 128.6705413
  51.6531325 105.8596760 128.2832794  46.7993516 104.6356951 139.8552565
  47.6454711 105.0596364 139.9987214  46.7392154 103.9790575 140.5491128
  49.5057653 101.4517752 137.0947577  48.6442132 101.7499006 137.3864314
  49.5320088 101.6688151 136.1628609  46.3219222 109.9959943 133.5021382
  46.7857568 110.2747646 132.7126005  46.0576020 109.0943387 133.3194473
  43.2143303 109.5431424 136.4401146  43.7844660 109.9718693 135.8018630
  43.8051415 109.2614009 137.1385331  45.2588108 106.1183095 130.3110948
  45.9612152 106.5704139 130.7784874  44.9268737 105.4766914 130.9390841
  39.0013442 104.3766648 135.6128081  38.2112496 104.6324176 135.1368192
  39.4924690 105.1914986 135.7180122  40.9528188 104.7411227 132.5711558
  40.1559351 104.8529921 133.0895053  40.7253780 105.0797879 131.7052448
  46.4981873 112.9324038 130.3873053  46.3627548 113.7775573 130.8157901
  47.0391686 113.1343315 129.6238987  39.9511270 110.4499476 130.9600978
  40.4635791 111.2442726 131.1106543  40.6033983 109.7525766 130.8934579
  49.8474337  96.4554600 138.9171946  49.5038606  97.3456241 138.8411057
  50.2153299  96.2656257 138.0541531  37.9160187 108.7788130 131.7360548
  38.7535409 109.1885138 131.5194256  38.0938455 107.8387572 131.7060742
  49.8124619 106.4463211 127.4244381  49.2971243 107.2167815 127.6632769
  49.5401928 105.7728347 128.0477443  47.3971730 101.2912912 132.4829620
  46.5413327 100.9019762 132.3035258  47.8098682 101.3704872 131.6229405
  48.9270877  98.8259255 136.8821179  48.4235673  98.7889390 136.0688985
  49.2201484  99.7351997 136.9417836  45.1713763  98.9097984 135.8887361
  46.0366760  98.7140793 135.5293251  45.2391272  98.6808336 136.8156718
  54.7858893 109.1995565 129.3597555  54.0088336 108.8606725 128.9152717
  55.4650374 109.2048189 128.6852520  49.6010922 104.3190303 129.2504162
  49.2961058 104.6336452 130.1014306  50.5541365 104.3971723 129.2931495
  48.0457354 110.4780526 130.8997116  47.5178716 109.7433286 130.5870354
  47.5444857 111.2555202 130.6537085  42.7776082 101.1400192 133.2603728
  43.3519834 100.9175374 132.5276921  43.3647064 101.2088887 134.0132329
  51.8355659 107.0273919 134.0668105  52.3487541 107.6603911 134.5689814
  52.4856883 106.4275115 133.7011465  43.1045669 103.1704653 127.2799613
  42.2682981 103.5079340 127.6008888  42.9650439 103.0353633 126.3426750
  45.0798750  98.0141441 131.9878797  44.4263162  97.6990458 131.3635412
  45.0379224  97.3917182 132.7138620  46.1909955 108.2960736 123.9032089
  45.2837016 108.0649990 124.1023238  46.6880986 107.4998356 124.0906071
  49.0978033 117.0058244 126.8228776  48.4239732 117.3089940 127.4313733
  49.4843855 117.8087324 126.4734233  48.3136490 104.5023375 136.3126445
  47.3959051 104.7238322 136.1548133  48.7296634 104.5769685 135.4538152
  49.0971538 105.9014791 131.4429125  49.8443357 106.4136188 131.1336247
  49.3663127 105.5798843 132.3033519  47.3698188 108.3973331 128.4256080
  46.4609407 108.1132364 128.5228549  47.3993272 108.8172410 127.5659386
  52.6017455 112.0079921 132.1947247  52.1479782 111.1670831 132.2512438
  51.9711422 112.6441319 132.5322027  51.5450375 102.9371907 133.4247915
  50.8073132 102.4249293 133.7558157  51.7977148 102.4972288 132.6131191
  51.0450395 113.8456417 133.1297065  51.3373369 114.4061475 132.4109431
  51.5549015 114.1384978 133.8850224  51.6462002  95.7148159 134.0189684
  51.9520879  94.8545522 133.7315599  52.3714607  96.3065779 133.8188678
  37.9386358 106.1178845 132.4071282  37.7410758 105.5248206 131.6822348
  37.3833022 105.8131056 133.1247221  45.9183082 106.0101952 134.5265875
  45.9731692 105.0575788 134.4508352  45.1074284 106.1661391 135.0107173
  47.0674276 109.9382075 125.7644158  46.6293706 109.2217934 125.3049796
  47.8084717 110.1658190 125.2029250  43.8575442 104.6279012 132.2856254
  43.0443307 104.9273182 132.6921446  44.3534436 104.2334700 133.0030736
  46.0084020 114.6236769 134.2190519  45.9660199 114.8497615 133.2899051
  46.9246719 114.3900143 134.3676320  55.1847391 108.2139272 131.8220477
  55.0465289 108.4040868 130.8941666  54.8283609 108.9758655 132.2788528
  43.3489517 102.1997367 137.9017489  43.9888896 102.0586126 137.2040452
  42.5167047 101.9131881 137.5256091  44.1249821 111.4999798 134.0152481
  44.9190419 111.0050118 133.8135056  43.4141513 110.9717661 133.6520187
  40.4332584 105.6442879 130.0912234  39.5030172 105.5827335 130.3082196
  40.5290056 105.1218832 129.2948875  40.3518133 102.1697692 132.6790476
  40.6124950 103.0843025 132.5699636  41.1735305 101.7022135 132.8287088
  47.7268630 100.2097390 141.8654961  47.0796545 100.9087340 141.7719437
  48.4969646 100.6433534 142.2331209  47.2969249 117.1737916 129.0375855
  47.4721004 116.7025959 129.8521478  46.6102037 117.8003682 129.2657116
  48.2526312 111.4510422 135.0839156  47.9176144 111.4111192 135.9796806
  47.7530257 110.7855138 134.6109566  51.1885503 108.7966457 125.3576216
  50.5714674 108.0713285 125.2609268  50.7201992 109.5575817 125.0143290
  42.9784049 103.0151881 124.4797520  42.1013516 102.8940682 124.1159767
  43.4541802 102.2237959 124.2276409  46.1647975 115.3678171 131.7260041
  45.3815497 115.9099851 131.8198265  46.8640720 115.8852151 132.1254282
  49.4744625 101.1772801 134.3694246  49.9713325 100.4242763 134.0495316
  48.7031607 101.2137117 133.8037455  50.5574406 109.9344488 131.9432669
  49.6230685 110.0545950 131.7737374  50.7351075 109.0316955 131.6792679
  46.0579594 103.3190184 134.0965931  45.6877382 102.7661224 134.7846836
  46.5538687 102.7148317 133.5440931  53.9446957 105.7761807 132.4782703
  54.4107410 106.6089799 132.4043006  54.3954458 105.3106789 133.1827962
  52.0123189 112.1205629 129.4768856  52.2883032 112.0062223 130.3862730
  51.1427687 111.7223113 129.4381029  51.9163620  98.1442394 136.5173605
  51.0026700  98.3746621 136.6855812  52.3456722  98.2280838 137.3687637
  48.6477253 116.3691979 133.1201669  48.8299647 115.5513635 133.5829421
  49.4710239 116.5859672 132.6826559  48.9819418 115.2960164 130.3816718
  49.5107185 114.7852619 129.7686880  49.2447638 114.9802695 131.2462251
  37.7062743 104.6093736 129.9210426  38.0016184 103.7004415 129.8677479
  36.8050779 104.5881476 129.5991428  41.2356990 102.6849733 135.9037974
  40.5143576 103.2985700 135.7645448  42.0250246 103.2207498 135.8254620
  44.0383304 100.0204159 142.1778626  44.5617705 100.2666456 142.9404935
  43.8195637 100.8524194 141.7581763  39.4350585 102.2907834 130.0449751
  39.1063291 101.4105213 129.8624857  39.7889955 102.2355502 130.9326140
  48.6830164 113.9262737 134.5544736  48.5355126 112.9979444 134.7352306
  49.5083657 113.9482827 134.0701812  42.5492408 102.5780804 130.4125229
  42.8888480 103.1066725 129.6903837  42.9964528 102.9161210 131.1883795
  45.2435849 100.9617854 139.8628297  44.9032669 100.1625667 140.2648976
  44.5374855 101.2619565 139.2905130  45.8952320  98.0467167 138.3155620
  46.7178390  97.5727645 138.1934510  46.1390384  98.8257650 138.8154306
  44.5360555 101.0755425 128.6118521  45.2568917 101.4536678 128.1082238
  43.9125859 101.7944302 128.7153499  48.6791678 101.7800574 129.5476854
  48.8955292 102.6625212 129.2465682  48.1985745 101.3886788 128.8182496
  43.4190899 104.7386287 136.1247598  43.2735480 105.0526590 137.0171880
  42.9416103 105.3571188 135.5718497  45.2787282 101.7288835 136.1728488
  45.2648851 100.8329929 135.8360786  45.9959710 101.7359499 136.8066774
  47.1313413 102.1626176 138.2181615  46.8731191 103.0843246 138.2165946
  46.5998453 101.7656610 138.9082079  52.0759602 115.2676963 130.9971701
  52.2496479 114.7023385 130.2445553  52.5688493 116.0677858 130.8151191
  44.6824178 100.6103216 131.4416058  44.8040089  99.6819862 131.6406945
  44.3926220 100.6241902 130.5294373  47.5515368  98.2958126 134.5782778
  47.5737065  98.3597459 133.6234757  47.9683427  97.4562635 134.7723284
  57.9298993 108.0313386 132.6162000  58.3730139 107.2820711 132.2181124
  57.0525503 108.0223522 132.2335732  53.0634774 114.5843727 128.0968599
  53.7585679 115.2050420 128.3155914  53.4057924 113.7339078 128.3720977
  54.9626197 112.0343433 129.6255930  55.4877521 112.3730705 128.9005250
  54.8748550 111.0990448 129.4419064  43.6554237 112.1957348 129.5331945
  43.8042357 112.8792813 128.8798618  44.4620680 112.1762438 130.0481401
  41.4106870 108.2222526 130.5393014  41.1652912 107.3184856 130.7373224
  41.5802785 108.2239676 129.5972492  49.1003580  99.0946202 139.9217770
  49.6185524  99.8307229 139.5964258  48.7458713  99.4010196 140.7564529
  40.6802518 103.9550884 128.0379175  39.9871762 104.0295239 127.3819211
  40.4354269 103.1911227 128.5600692  49.3516174  95.5146485 135.4418666
  49.6317928  94.8469674 136.0679093  50.1366781  95.7075580 134.9293330
  47.1549643 114.6905479 127.0043692  46.5823610 115.3095666 126.5514164
  47.7282436 115.2404840 127.5383614  51.2439412 101.0219702 139.3749642
  50.6489344 101.3024715 138.6796131  50.9589109 101.5113603 140.1466383
  50.3746902 114.9742629 128.1352275  51.3077576 114.9088191 128.3385150
  50.2870115 115.8098896 127.6766807  53.0034919 114.2908499 125.0956222
  52.9248551 113.9568363 125.9891980  53.8244586 114.7830267 125.0947695
  47.5396441 106.0266292 124.3459745  48.4855546 105.8972500 124.4148163
  47.1610686 105.2880953 124.8229173  53.5118326  97.6922298 134.3086637
  53.3143147  97.3837386 135.1929969  54.1218031  98.4183936 134.4384567
  45.7239358 103.9516268 124.2814630  44.8170814 103.6549381 124.3577344
  46.0015339 103.6546086 123.4148916  47.3401424  98.4953158 130.4358871
  46.5302152  98.1500243 130.8114118  48.0285841  98.1860701 131.0246483
  49.2691972  97.5731204 132.0583168  49.8223011  97.9926658 132.7173191
  49.5062059  96.6466953 132.1006124  44.4938143 100.8103203 124.4226609
  45.3557307 101.1358101 124.6822427  44.6788487 100.0234699 123.9099675
  52.6470779  99.6831730 131.5661832  52.0669448 100.3416534 131.1839885
  52.3806712  98.8609074 131.1549250  51.0974346  99.0836787 133.7683153
  51.5974124  99.1953322 132.9597472  51.7409954  98.7797840 134.4083961
  51.4295657 101.8431820 130.6218181  50.5421512 102.1281471 130.4038375
  51.8449646 101.6825583 129.7745458  54.7810193 101.8678341 134.3372520
  55.5570584 102.3574793 134.6097137  54.0558328 102.2936395 134.7944389
  57.2182752 102.5805960 135.3946461  57.8127243 102.3401696 134.6839769
  57.2909336 101.8613091 136.0219997  50.5738871 111.6076495 124.7166201
  51.2774721 111.8126497 125.3323856  49.8501520 112.1753257 124.9815284
  51.4036681 107.3586356 130.8368471  51.3471882 107.8154907 129.9976103
  51.9565024 106.5977041 130.6591314  55.2141487 103.1476088 131.6618590
  54.9578421 102.7472723 132.4926798  54.5894355 103.8619882 131.5368729
  59.5253825 105.8872161 134.1689882  58.9653383 105.9565350 134.9421444
  58.9197328 105.7113146 133.4489378  52.4825568 112.0459024 126.7664661
  53.3171172 111.6140222 126.5842135  52.3209911 111.8741038 127.6941555
  52.1371460 108.5491137 128.1321000  52.0820264 108.3835409 127.1909444
  51.5117516 109.2567170 128.2883190  45.4467586  98.0499246 127.7106318
  45.4346256  98.9941086 127.8674589  46.3391008  97.8669392 127.4165780
  49.2619705  94.6442023 131.9652255  48.4952101  94.0900509 132.1108938
  49.6730410  94.7163892 132.8266407  55.6207829 121.2844350 126.1298302
  55.8733350 120.7625872 125.3681765  54.6832388 121.1210496 126.2324986
  57.3241146 117.6772503 127.0330715  57.4915548 118.5452740 127.4001186
  57.1338315 117.8399785 126.1092004  53.9439424 118.4996571 127.2799613
  53.1076736 118.8371258 127.6008888  53.8044193 118.3645551 126.3426750
  55.9192504 113.3433359 131.9878797  55.2656916 113.0282376 131.3635412
  55.8772978 112.7209099 132.7138620  57.0303709 123.6252654 123.9032089
  56.1230771 123.3941908 124.1023238  57.5274741 122.8290273 124.0906071
  51.2726339 120.9734797 130.0912234  50.3423927 120.9119252 130.3082196
  51.3683811 120.4510750 129.2948875  53.8177804 118.3443799 124.4797520
  52.9407270 118.2232599 124.1159767  54.2935557 117.5529877 124.2276409
  48.5456498 119.9385654 129.9210426  48.8409939 119.0296332 129.8677479
  47.6444533 119.9173393 129.5991428  50.2744339 117.6199751 130.0449751
  49.9457045 116.7397130 129.8624857  50.6283710 117.5647420 130.9326140
  55.3754309 116.4047343 128.6118521  56.0962672 116.7828596 128.1082238
  54.7519614 117.1236220 128.7153499  55.5217933 115.9395133 131.4416058
  55.6433844 115.0111779 131.6406945  55.2319975 115.9533819 130.5294373
  51.5196272 119.2842801 128.0379175  50.8265517 119.3587156 127.3819211
  51.2748024 118.5203145 128.5600692  58.3790196 121.3558209 124.3459745
  59.3249300 121.2264417 124.4148163  58.0004441 120.6172871 124.8229173
  56.5633113 119.2808186 124.2814630  55.6564568 118.9841298 124.3577344
  56.8409094 118.9838004 123.4148916  58.1795178 113.8245075 130.4358871
  57.3695907 113.4792160 130.8114118  58.8679595 113.5152619 131.0246483
  55.3331897 116.1395121 124.4226609  56.1951061 116.4650019 124.6822427
  55.5182241 115.3526617 123.9099675  56.2861340 113.3791164 127.7106318
  56.2740010 114.3233004 127.8674589  57.1784762 113.1961309 127.4165780
  60.1013460 109.9733940 131.9652255  59.3345856 109.4192427 132.1108938
  60.5124165 110.0455809 132.8266407  16.0010907  43.7256999 114.8238025
  15.3498887  44.3111079 114.4372038  16.7955270  44.2563194 114.8833062
  22.2677631  40.2181935 116.0842861  21.4907074  39.8793094 115.6398024
  22.9469112  40.2234558 115.4097826  13.6728692  39.3147106 110.6277396
  12.7655754  39.0836359 110.8268545  14.1699724  38.5184725 110.8151378
  16.5796771  48.0244613 113.5474082  15.9058470  48.3276310 114.1559040
  16.9662593  48.8273693 113.1979539  14.5493014  40.9568445 112.4889465
  14.1112443  40.2404303 112.0295102  15.2903454  41.1844559 111.9274556
  14.7787986  48.1924286 115.7621161  14.9539742  47.7212329 116.5766784
  14.0920774  48.8190052 115.9902422  18.6704241  39.8152826 112.0821522
  18.0533412  39.0899654 111.9854575  18.2020730  40.5762186 111.7388597
  19.4941926  43.1391998 116.2014162  19.7701770  43.0248593 117.1108036
  18.6246425  42.7409483 116.1626335  16.4638156  46.3146534 117.1062024
  16.9925922  45.8038989 116.4932186  16.7266375  45.9989064 117.9707557
  19.5578339  46.2863332 117.7217007  19.7315217  45.7209755 116.9690860
  20.0507231  47.0864227 117.5396497  20.5453512  45.6030097 114.8213906
  21.2404417  46.2236789 115.0401220  20.8876662  44.7525448 115.0966283
  22.4444935  43.0529802 116.3501236  22.9696259  43.3917075 115.6250556
  22.3567288  42.1176818 116.1664371  14.6368380  45.7091848 113.7288999
  14.0642347  46.3282035 113.2759471  15.2101174  46.2591210 114.2628921
  17.8565640  45.9928998 114.8597581  18.7896313  45.9274560 115.0630457
  17.7688853  46.8285265 114.4012114  20.4853657  45.3094869 111.8201529
  20.4067288  44.9754732 112.7137287  21.3063324  45.8016637 111.8193001
  15.0215179  37.0452661 111.0705052  15.9674284  36.9158869 111.1393470
  14.6429424  36.3067323 111.5474480  18.0557609  42.6262864 111.4411507
  18.7593459  42.8312867 112.0569163  17.3320257  43.1939626 111.7060591
  19.9644306  43.0645393 113.4909967  20.7989910  42.6326592 113.3087442
  19.8028649  42.8927407 114.4186862  19.6190198  39.5677507 114.8566307
  19.5639002  39.4021778 113.9154751  18.9936253  40.2753540 115.0128496
  28.5928581  53.5815045 123.5865144  29.2306991  53.4621792 122.8828484
  28.4749424  54.5295888 123.6453096  25.4018287  53.5342473 123.5226669
  25.0636799  53.4183537 122.6347204  26.2708056  53.1333638 123.5027675
  21.2605103  55.3877949 119.5123560  20.6969968  55.2967886 118.7439847
  21.1457498  54.5677853 119.9926052  18.8069535  56.8829141 122.3507780
  19.5990827  56.5419965 121.9354079  19.0466185  56.9924116 123.2709933
  26.8404662  59.0548917 114.8238025  26.1892642  59.6402997 114.4372038
  27.6349025  59.5855112 114.8833062  20.7660289  56.1438054 115.2225159
  21.5391165  55.5967041 115.0838035  21.1185688  57.0082303 115.4339620
  23.5301538  54.8491285 125.0193418  24.1265111  54.6247307 124.3050381
  23.5876510  54.1076030 125.6218866  23.1026567  52.3030720 112.8543609
  23.3552087  51.7812241 112.0927072  22.1651126  52.1396865 112.9570292
  28.1469850  51.3066498 120.6618352  28.9332939  50.8885922 120.3108769
  28.4108554  52.2112591 120.8300000  28.3179927  56.7439349 115.3607009
  27.6825760  56.8173975 116.0727914  27.9877333  57.3332948 114.6826088
  33.5478277  51.2441732 121.5651331  34.2803449  50.6740948 121.7989160
  32.7917632  50.8563332 122.0057836  22.8222855  54.2058826 115.0567984
  22.7059114  53.5303729 115.7249068  22.9325115  53.7191200 114.2400137
  25.1654396  53.6668973 118.7614673  24.8012604  53.1399594 119.4727595
  26.0221512  53.2767442 118.5881158  24.8059883  48.6958873 113.7576022
  24.9734286  49.5639109 114.1246493  24.6157052  48.8586154 112.8337311
  27.5635217  57.1575852 125.4241852  27.2635940  58.0600890 125.3157659
  27.2186276  56.8908035 126.2763005  21.0147698  53.6089649 121.4578556
  20.0898195  53.4765863 121.6656248  21.2632111  54.3883868 121.9548499
  30.9632360  49.6758392 123.1039289  30.0549238  49.6073800 122.8098050
  30.9119956  50.1530337 123.9321115  24.7849104  51.1516530 114.7422688
  24.6648729  51.5973581 115.5808169  24.0901693  51.5001848 114.1836227
  18.3756509  53.2522922 122.2922345  18.5048890  53.5057401 123.2061757
  17.6953960  53.8450630 121.9727001  22.5455996  63.9220172 118.3912820
  22.4680026  64.8727997 118.4701300  21.9417640  63.5766045 119.0487746
  32.8294007  47.8774830 124.8817163  32.1868387  48.1707363 124.2356958
  32.3248935  47.7627751 125.6870360  30.4834170  51.6238003 115.5703022
  31.3952027  51.8565390 115.3950720  29.9743818  52.2075048 115.0078101
  29.0903753  56.6063822 122.9616604  28.4612615  56.7709536 122.2592672
  28.7029415  57.0205431 123.7327568  32.9692985  57.5418260 120.3160968
  32.2844023  57.9217161 119.7658001  33.0536834  58.1513586 121.0492915
  30.2243916  55.1878219 126.9156311  30.4360811  55.8309979 126.2390692
  30.1773665  54.3540535 126.4478241  24.6431715  56.3438230 120.2266689
  25.1070060  56.6225933 119.4371312  24.3788513  55.4421675 120.0439780
  21.5355796  55.8909712 123.1646452  22.1057153  56.3196980 122.5263937
  22.1263908  55.6092296 123.8630638  23.5800601  52.4661382 117.0356254
  24.2824644  52.9182426 117.5030181  23.2481229  51.8245201 117.6636147
  31.3389744  58.0650174 125.0878669  32.1607188  57.6630361 124.8061350
  31.3352147  57.9618408 126.0394784  19.2740680  51.0889514 119.2956864
  18.4771843  51.2008209 119.8140360  19.0466272  51.4276166 118.4297755
  25.1046348  57.6134217 127.2439379  25.1690780  58.0754625 128.0797551
  24.3957272  56.9831582 127.3721689  39.4295737  54.4088923 121.4363640
  38.6759446  53.8396321 121.2807644  39.5643278  54.3751587 122.3834275
  24.8194365  59.2802325 117.1118359  24.6840040  60.1253861 117.5403207
  25.3604178  59.4821603 116.3484293  18.2723763  56.7977763 117.6846284
  18.7848283  57.5921013 117.8351849  18.9246476  56.1004053 117.6179886
  20.0818647  59.9143519 119.7669038  20.2585276  60.8361484 119.5790022
  20.8775481  59.6001939 120.1963417  21.2049963  61.4321693 125.7679380
  21.7557388  61.3038756 124.9956374  20.3661439  61.7316582 125.4174273
  28.5444080  60.1828691 129.2700103  28.5262555  61.0037572 128.7780372
  29.4664000  60.0582767 129.4950244  16.2372679  55.1266417 118.4605855
  17.0747901  55.5363426 118.2439563  16.4150947  54.1865859 118.4306049
  28.1337112  52.7941498 114.1489688  27.6183735  53.5646103 114.3878075
  27.8614420  52.1206634 114.7722749  25.7184223  47.6391199 119.2074926
  24.8625819  47.2498049 119.0280565  26.1311174  47.7183160 118.3474712
  33.1071386  55.5473853 116.0842861  32.3300828  55.2085012 115.6398024
  33.7862867  55.5526476 115.4097826  27.9223415  50.6668590 115.9749469
  27.6173550  50.9814739 116.8259612  28.8753857  50.7450010 116.0176802
  26.3669847  56.8258813 117.6242423  25.8391208  56.0911573 117.3115661
  25.8657349  57.6033490 117.3782391  31.3462693  55.0207834 122.7409469
  30.6886367  55.7107095 122.8289598  32.1503092  55.4104266 123.0843456
  21.0988574  47.4878480 119.9849035  21.6732326  47.2653661 119.2522228
  21.6859557  47.5567174 120.7377636  30.1568151  53.3752207 120.7913411
  30.6700033  54.0082198 121.2935121  30.8069375  52.7753402 120.4256771
  21.4258161  49.5182941 114.0044920  20.5895474  49.8557627 114.3254195
  21.2862931  49.3831920 113.0672057  23.4011242  44.3619729 118.7124104
  22.7475654  44.0468746 118.0880719  23.3591716  43.7395469 119.4383927
  24.5122447  54.6439024 110.6277396  23.6049509  54.4128277 110.8268545
  25.0093479  53.8476643 110.8151378  27.4190526  63.3536531 113.5474082
  26.7452224  63.6568228 114.1559040  27.8056348  64.1565611 113.1979539
  26.6348982  50.8501662 123.0371752  25.7171544  51.0716609 122.8793440
  27.0509126  50.9247973 122.1783459  27.4184030  52.2493078 118.1674432
  28.1655849  52.7614475 117.8581554  27.6875620  51.9277131 119.0278826
  25.6910680  54.7451619 115.1501386  24.7821899  54.4610651 115.2473856
  25.7205764  55.1650697 114.2904693  30.9229948  58.3558208 118.9192554
  30.4692275  57.5149118 118.9757744  30.2923914  58.9919606 119.2567334
  29.8662867  49.2850194 120.1493221  29.1285624  48.7727580 120.4803464
  30.1189641  48.8450576 119.3376498  29.3662887  60.1934705 119.8542372
  29.6585861  60.7539762 119.1354738  29.8761507  60.4863266 120.6095531
  29.9674495  42.0626446 120.7434991  30.2733371  41.2023809 120.4560906
  30.6927099  42.6544066 120.5433984  16.2598851  52.4657133 119.1316588
  16.0623250  51.8726493 118.4067655  15.7045515  52.1609343 119.8492527
  24.2395574  52.3580239 121.2511182  24.2944184  51.4054076 121.1753658
  23.4286776  52.5139678 121.7352480  25.3886768  56.2860362 112.4889465
  24.9506198  55.5696221 112.0295102  26.1297209  56.5136477 111.9274556
  22.1787934  50.9757299 119.0101560  21.3655800  51.2751469 119.4166753
  22.6746928  50.5812988 119.7276043  24.3296512  60.9715056 120.9435825
  24.2872691  61.1975902 120.0144357  25.2459211  60.7378430 121.0921626
  33.5059883  54.5617559 118.5465783  33.3677781  54.7519155 117.6186973
  33.1496102  55.3236942 119.0033835  33.5329262  56.6294086 123.5577055
  33.9665769  56.5369375 124.4060109  34.2460843  56.6051587 122.9197071
  22.4462313  57.8478085 120.7397788  23.2402911  57.3528405 120.5380363
  21.7354005  57.3195948 120.3765493  27.2657157  60.2296180 125.0910155
  27.3194180  60.7987117 125.8587871  26.3971939  60.3998065 124.7264193
  18.7545076  51.9921167 116.8157541  17.8242664  51.9305622 117.0327503
  18.8502548  51.4697119 116.0194182  18.6730625  48.5175979 119.4035782
  18.9337443  49.4321313 119.2944943  19.4947798  48.0500422 119.5532395
  34.3944812  56.6717787 126.0909940  34.5880702  57.5763597 126.3369215
  34.2945430  56.2125206 126.9248525  26.2245257  54.3956442 126.6497087
  27.1537317  54.5467602 126.4766055  25.8036287  54.4840463 125.7945734
  25.0233589  58.4207107 124.4195625  24.8844675  58.0525891 125.2921563
  24.2348185  58.9354746 124.2479583  25.6181741  63.5216203 115.7621161
  25.7933497  63.0504246 116.5766784  24.9314529  64.1481969 115.9902422
  26.5738804  57.7988709 121.8084463  26.2388637  57.7589479 122.7042113
  26.0742750  57.1333425 121.3354873  29.5097996  55.1444744 112.0821522
  28.8927166  54.4191572 111.9854575  29.0414484  55.9054104 111.7388597
  31.1652127  59.8543652 129.7427303  31.1064673  59.1702872 129.0757886
  31.5671646  60.5962642 129.2907929  20.1842826  66.6705566 122.5361022
  20.4239424  67.3024090 123.2140040  19.3412023  66.3193606 122.8226381
  21.2996542  49.3630168 111.2042827  20.4226008  49.2418969 110.8405073
  21.7754295  48.5716246 110.9521715  31.1669535  57.8183236 127.9741282
  30.2796313  57.4809158 128.0967681  31.7368086  57.0866267 128.2110048
  12.8198682  54.1507328 121.2984334  13.5069722  53.8369058 120.7105349
  12.6646810  55.0548692 121.0251585  24.6970688  62.4784688 124.9402526
  24.6240859  63.2839660 125.4521830  24.2548081  62.6776654 124.1150547
  24.4860468  61.7156458 118.4505347  23.7027989  62.2578139 118.5443572
  25.1853213  62.2330438 118.8499588  27.7957118  47.5251088 121.0939553
  28.2925817  46.7721050 120.7740623  27.0244099  47.5615405 120.5282762
  35.6486875  53.2291453 122.7357844  35.6376751  54.1116169 122.3651777
  34.7804255  52.8763004 122.5412381  27.1569371  62.3771522 127.0960684
  27.8697344  63.0118987 127.0236586  26.6659400  62.4735388 126.2800686
  28.8786898  56.2822775 118.6677976  27.9443177  56.4024238 118.4982680
  29.0563567  55.3795242 118.4037986  24.3792086  49.6668471 120.8211237
  24.0089874  49.1139511 121.5092143  24.8751179  49.0626604 120.2686237
  32.2659450  52.1240094 119.2028010  32.7319902  52.9568086 119.1288313
  32.7166950  51.6585076 119.9073269  22.2081285  60.1265966 127.9166255
  22.9090745  60.7602449 128.0695649  21.7376400  60.4680697 127.1561894
  30.3335681  58.4683916 116.2014162  30.6095525  58.3540510 117.1108036
  29.4640180  58.0701401 116.1626335  30.0082571  52.6810573 125.7418805
  29.3554021  52.9286481 125.0871258  30.3862951  51.8674712 125.4081283
  26.9689745  62.7170267 119.8446976  27.1512139  61.8991923 120.3074728
  27.7922731  62.9337959 119.4071866  27.3031910  61.6438452 117.1062024
  27.8319677  61.1330906 116.4932186  27.5660130  61.3280982 117.9707557
  17.8049003  59.6602321 124.8497358  18.3902440  58.9146009 124.9825262
  17.6073842  59.9706278 125.7334022  20.6587658  62.6953568 119.8659800
  19.9898034  63.1799696 119.3823840  20.5200528  62.9422789 120.7803179
  24.7992927  64.7297312 126.4642459  25.3511235  64.8928933 127.2291544
  25.1399120  65.3201750 125.7922483  16.0275235  50.9572023 116.6455732
  16.3228676  50.0482702 116.5922786  15.1263271  50.9359763 116.3236735
  27.9361314  62.6779287 123.4506141  27.8112454  61.8769027 122.9417086
  28.5940405  63.1725481 122.9620111  29.9996223  60.4788308 125.0785691
  29.0526558  60.3593659 125.0064018  30.3478996  59.5910806 125.1611952
  17.7563077  48.6386121 116.7695057  17.4275783  47.7583500 116.5870163
  18.1102448  48.5833790 117.6571447  27.0042656  60.2741024 121.2790043
  26.8567618  59.3457731 121.4597613  27.8296149  60.2961114 120.7947118
  20.8704900  48.9259091 117.1370535  21.2100973  49.4545012 116.4149144
  21.3177021  49.2639497 117.9129102  30.6076778  61.0969582 122.3654916
  31.5323325  60.8912444 122.2279367  30.4392081  60.8485984 123.2744257
  22.8573047  47.4233712 115.3363828  23.5781410  47.8014965 114.8327545
  22.2338351  48.1422589 115.4398806  27.0004170  48.1278861 116.2722160
  27.2167785  49.0103499 115.9710988  26.5198237  47.7365075 115.5427802
  30.3972094  61.6155250 117.7217007  30.5708971  61.0501672 116.9690860
  30.8900985  62.4156145 117.5396497  23.0036670  46.9581503 118.1661365
  23.1252582  46.0298149 118.3652252  22.7138713  46.9720189 117.2539680
  36.2511485  54.3791673 119.3407307  36.6942631  53.6298998 118.9426430
  35.3737995  54.3701809 118.9581039  31.3847266  60.9322014 114.8213906
  32.0798171  61.5528707 115.0401220  31.7270417  60.0817366 115.0966283
  33.2838690  58.3821720 116.3501236  33.8090014  58.7208993 115.6250556
  33.1961042  57.4468735 116.1664371  24.9458738  62.2955794 128.4791113
  25.2545865  62.0504940 129.3513813  25.7434220  62.5002432 127.9909983
  24.9679350  64.4493703 120.7096489  24.5284341  63.9570082 121.4029346
  25.7187467  63.9066671 120.4688565  17.4471689  60.6405244 120.7121118
  18.2729709  60.3409016 120.3319761  17.0965741  59.8712866 121.1610906
  22.4153222  59.9931712 122.7818791  21.7933232  59.3302417 122.4821019
  23.0858089  60.0192844 122.0992439  15.6480294  58.5591570 121.6710051
  14.8112203  58.1313745 121.4894052  15.6203940  58.7524014 122.6080842
  32.9732596  59.0154624 131.6552434  32.1828139  58.9978762 131.1156934
  32.7365950  59.5542917 132.4101471  33.0930471  55.8647090 128.9685163
  33.1428476  55.6997097 129.9100686  32.9844394  54.9974349 128.5783044
  21.9766729  58.5435636 116.2577252  22.1254850  59.2271100 115.6043924
  22.7833173  58.5240726 116.7726707  34.5948667  58.2844031 129.2127184
  34.3033476  58.6474012 130.0490645  33.9820799  57.5711040 129.0340516
  35.7944350  55.8496911 121.7329755  36.6291241  56.2886715 121.8967315
  35.9303479  55.3735564 120.9138000  32.8435856  53.4076646 127.6807242
  33.3189977  53.6004292 126.8726094  31.9201421  53.4635832 127.4350626
  19.7319362  54.5700813 117.2638321  19.4865404  53.6663143 117.4618531
  19.9015277  54.5717964 116.3217799  19.0015010  50.3029171 114.7624482
  18.3084255  50.3773526 114.1064518  18.7566762  49.5389514 115.2845999
  25.4762135  61.0383766 113.7288999  24.9036102  61.6573953 113.2759471
  26.0494929  61.5883128 114.2628921  31.5437525  50.2842406 125.9135548
  32.4954948  50.3840504 125.9347772  31.3740975  49.4920675 126.4233632
  28.6959395  61.3220916 114.8597581  29.6290068  61.2566478 115.0630457
  28.6082607  62.1577183 114.4012114  31.3247411  60.6386786 111.8201529
  31.2461043  60.3046650 112.7137287  32.1457078  61.1308554 111.8193001
  34.0225602  53.5048526 125.0277848  33.9901923  52.5664527 125.2137531
  34.6326226  53.5832563 124.2943672  25.8608933  52.3744579 111.0705052
  26.8068038  52.2450787 111.1393470  25.4823178  51.6359241 111.5474480
  34.1720091  50.2959569 125.0736131  33.6559140  49.5118026 124.8866060
  35.0560039  49.9678286 125.2382650  31.8330818  44.0400585 121.0331943
  31.6355639  43.7315673 121.9175275  32.4430523  44.7662224 121.1629873
  39.8402152  54.5664533 124.1683884  40.5705541  54.3049821 124.7291588
  39.2309098  53.8293255 124.2085952  37.9217449  52.7072395 124.7658336
  37.1950613  52.5728360 124.1574827  37.5064736  53.0149224 125.5715054
  24.0451850  50.2994555 111.0059937  23.1383306  50.0027668 111.0822650
  24.3227832  50.0024373 110.1394223  25.6613916  44.8431445 117.1604178
  24.8514645  44.4978530 117.5359424  26.3498333  44.5338989 117.7491790
  27.5904465  43.9209492 118.7828475  28.1435503  44.3404945 119.4418498
  27.8274551  42.9945240 118.8251431  22.8150635  47.1581490 111.1471916
  23.6769799  47.4836389 111.4067733  23.0000979  46.3712986 110.6344982
  30.9683272  46.0310017 118.2907139  30.3881941  46.6894821 117.9085191
  30.7019204  45.2087361 117.8794557  29.4186838  45.4315075 120.4928459
  29.9186616  45.5431609 119.6842778  30.0622446  45.1276127 121.1329268
  16.7454793  55.1722084 121.3018120  16.7225482  55.2709771 120.3500003
  17.0555430  56.0187235 121.6235286  29.7508150  48.1910107 117.3463487
  28.8634005  48.4759758 117.1283682  30.1662139  48.0303871 116.4990764
  33.1022686  48.2156628 121.0617827  33.8783076  48.7053081 121.3342443
  32.3770820  48.6414682 121.5189696  35.5395244  48.9284247 122.1191767
  36.1339735  48.6879983 121.4085075  35.6121828  48.2091378 122.7465303
  17.7592400  62.7717858 122.4334932  17.6246868  62.0118259 121.8672930
  17.3424462  63.4958758 121.9663721  28.8951363  57.9554782 111.4411507
  29.5987213  58.1604784 112.0569163  28.1714012  58.5231544 111.7060591
  29.7249173  53.7064643 117.5613777  29.6684375  54.1633195 116.7221410
  30.2777516  52.9455328 117.3836620  33.5353979  49.4954375 118.3863897
  33.2790914  49.0951011 119.2172105  32.9106847  50.2098169 118.2614036
  37.8466317  52.2350448 120.8935188  37.2865875  52.3043638 121.6666750
  37.2409820  52.0591433 120.1734685  20.9161526  63.6687175 122.6453375
  20.7993910  64.6132608 122.5432065  20.0953972  63.3660737 123.0339174
  30.8038060  58.3937311 113.4909967  31.6383664  57.9618510 113.3087442
  30.6422403  58.2219325 114.4186862  30.4583953  54.8969424 114.8566307
  30.4032756  54.7313696 113.9154751  29.8330008  55.6045457 115.0128496
  23.7680078  44.3977533 114.4351625  23.7558748  45.3419373 114.5919896
  24.6603500  44.2147679 114.1411086  21.9416040  64.3215437 125.8609303
  22.8443287  64.3539048 126.1775798  21.7153410  63.3915888 125.8755639
  23.6969642  63.0746424 122.5219382  22.7465273  63.0748285 122.4083754
  24.0002128  62.3279158 122.0055416  27.5832198  40.9920310 118.6897562
  26.8164593  40.4378797 118.8354244  27.9942903  41.0642179 119.5511713
  39.4322336  68.9106962 123.5865144  40.0700746  68.7913710 122.8828484
  39.3143178  69.8587806 123.6453096  36.2412042  68.8634390 123.5226669
  35.9030553  68.7475455 122.6347204  37.1101810  68.4625555 123.5027675
  32.0998858  70.7169867 119.5123560  31.5363723  70.6259804 118.7439847
  31.9851253  69.8969771 119.9926052  36.7231825  70.0169242 129.4812874
  36.7120466  69.6222040 128.6093378  36.8852464  69.2835315 130.0746646
  29.6463289  72.2121058 122.3507780  30.4384581  71.8711883 121.9354079
  29.8859940  72.3216033 123.2709933  37.6798416  74.3840834 114.8238025
  37.0286396  74.9694915 114.4372038  38.4742779  74.9147029 114.8833062
  31.6054043  71.4729972 115.2225159  32.3784919  70.9258959 115.0838035
  31.9579442  72.3374221 115.4339620  33.4439086  72.8006354 128.4292058
  33.1528952  73.7051985 128.3138725  34.0796070  72.8422881 129.1436128
  34.3695293  70.1783202 125.0193418  34.9658865  69.9539225 124.3050381
  34.4270264  69.4367948 125.6218866  33.9420321  67.6322638 112.8543609
  34.1945842  67.1104159 112.0927072  33.0044880  67.4688783 112.9570292
  38.9863604  66.6358416 120.6618352  39.7726693  66.2177839 120.3108769
  39.2502308  67.5404508 120.8300000  39.1573681  72.0731266 115.3607009
  38.5219514  72.1465893 116.0727914  38.8271088  72.6624865 114.6826088
  44.3872031  66.5733649 121.5651331  45.1197203  66.0032866 121.7989160
  43.6311387  66.1855250 122.0057836  33.6616610  69.5350744 115.0567984
  33.5452868  68.8595647 115.7249068  33.7718870  69.0483118 114.2400137
  36.0048151  68.9960891 118.7614673  35.6406358  68.4691512 119.4727595
  36.8615267  68.6059360 118.5881158  41.9097452  60.2855223 126.0245939
  41.5780776  61.1550634 125.8007154  41.3143065  59.9691507 126.7039970
  35.6453638  64.0250790 113.7576022  35.8128040  64.8931027 114.1246493
  35.4550807  64.1878072 112.8337311  38.4028971  72.4867769 125.4241852
  38.1029694  73.3892808 125.3157659  38.0580031  72.2199953 126.2763005
  31.8541453  68.9381566 121.4578556  30.9291949  68.8057780 121.6656248
  32.1025866  69.7175785 121.9548499  41.8026115  65.0050310 123.1039289
  40.8942992  64.9365718 122.8098050  41.7513711  65.4822254 123.9321115
  35.6242859  66.4808448 114.7422688  35.5042484  66.9265499 115.5808169
  34.9295447  66.8293766 114.1836227  29.2150264  68.5814840 122.2922345
  29.3442645  68.8349319 123.2061757  28.5347715  69.1742548 121.9727001
  33.3849751  79.2512090 118.3912820  33.3073781  80.2019915 118.4701300
  32.7811394  78.9057962 119.0487746  35.8766981  66.4239955 131.0474187
  35.1000315  66.9833875 131.0377051  36.5157544  66.9096738 131.5689057
  43.6687761  63.2066748 124.8817163  43.0262142  63.4999281 124.2356958
  43.1642690  63.0919668 125.6870360  41.3227925  66.9529921 115.5703022
  42.2345781  67.1857308 115.3950720  40.8137572  67.5366965 115.0078101
  34.1313353  69.2325408 130.6092154  34.8728037  69.7710452 130.3326977
  33.4250338  69.8591697 130.7663705  39.6068693  71.3754549 129.2064315
  40.0152049  70.9336959 128.4618947  38.8845954  70.8007176 129.4598508
  35.9599763  66.3127156 126.5797872  36.8060958  66.7366569 126.7232521
  35.8998400  65.6560780 127.2736435  39.9297507  71.9355740 122.9616604
  39.3006370  72.1001454 122.2592672  39.5423169  72.3497349 123.7327568
  43.8086739  72.8710177 120.3160968  43.1237777  73.2509079 119.7658001
  43.8930588  73.4805504 121.0492915  39.1099208  63.9731524 128.2379046
  38.8660140  64.7273585 127.7013321  39.3859138  64.3516872 129.0726293
  41.0637671  70.5170136 126.9156311  41.2754566  71.1601896 126.2390692
  41.0167419  69.6832453 126.4478241  38.6663900  63.1287957 123.8192883
  37.8048379  63.4269211 124.1109621  38.6926334  63.3458356 122.8873916
  35.4825469  71.6730148 120.2266689  35.9463815  71.9517851 119.4371312
  35.2182267  70.7713592 120.0439780  32.3749550  71.2201629 123.1646452
  32.9450907  71.6488898 122.5263937  32.9657662  70.9384214 123.8630638
  34.4194355  67.7953300 117.0356254  35.1218399  68.2474344 117.5030181
  34.0874984  67.1537119 117.6636147  32.8674717  66.3865057 131.4107464
  32.2373377  67.0681338 131.6442860  32.7610805  66.2748138 130.4660602
  28.1619689  66.0536853 122.3373388  27.3718743  66.3094381 121.8613498
  28.6530937  66.8685191 122.4425428  42.1783499  73.3942092 125.0878669
  43.0000942  72.9922279 124.8061350  42.1745902  73.2910326 126.0394784
  30.1134435  66.4181432 119.2956864  29.3165598  66.5300126 119.8140360
  29.8860027  66.7568084 118.4297755  35.9440102  72.9426135 127.2439379
  36.0084535  73.4046542 128.0797551  35.2351026  72.3123500 127.3721689
  26.4457392  66.3067343 124.7688379  26.6965431  67.1914353 125.0345954
  26.9816941  66.1271945 123.9963470  50.2689492  69.7380840 121.4363640
  49.5153200  69.1688238 121.2807644  50.4037033  69.7043505 122.3834275
  35.6588120  74.6094243 117.1118359  35.5233795  75.4545778 117.5403207
  36.1997932  74.8113520 116.3484293  29.1117517  72.1269681 117.6846284
  29.6242038  72.9212931 117.8351849  29.7640230  71.4295971 117.6179886
  30.9212402  75.2435437 119.7669038  31.0979030  76.1653402 119.5790022
  31.7169235  74.9293856 120.1963417  35.0623420  62.1043702 131.3652971
  35.8033134  62.7050855 131.2857434  35.2941343  61.3621339 130.8071014
  30.2064758  67.2900069 129.6431201  30.0918274  66.3885326 129.9438300
  29.3509276  67.5363766 129.2916017  37.2856596  75.2317809 131.2418701
  36.8420450  74.4454188 130.9239606  37.9473810  75.4196960 130.5762592
  32.0443717  76.7613611 125.7679380  32.5951142  76.6330674 124.9956374
  31.2055193  77.0608500 125.4174273  39.3837834  75.5120609 129.2700103
  39.3656310  76.3329490 128.7780372  40.3057754  75.3874684 129.4950244
  35.8410888  73.0264739 130.1123611  36.3739225  72.2653027 129.8822919
  35.3124969  72.7338390 130.8547766  39.0080583  58.1324805 125.6417253
  38.6644853  59.0226446 125.5656363  39.3759546  57.9426462 124.7786838
  27.0766434  70.4558335 118.4605855  27.9141656  70.8655343 118.2439563
  27.2544702  69.5157777 118.4306049  38.9730866  68.1233416 114.1489688
  38.4577490  68.8938020 114.3878075  38.7008175  67.4498552 114.7722749
  36.5577977  62.9683116 119.2074926  35.7019573  62.5789967 119.0280565
  36.9704929  63.0475077 118.3474712  38.0877124  60.5029460 123.6066486
  37.5841919  60.4659595 122.7934291  38.3807731  61.4122202 123.6663143
  34.3320010  60.5868189 122.6132668  35.1973006  60.3910998 122.2538557
  34.3997519  60.3578541 123.5402025  43.9465140  70.8765770 116.0842861
  43.1694583  70.5376930 115.6398024  44.6256621  70.8818393 115.4097826
  38.7617169  65.9960508 115.9749469  38.4567305  66.3106657 116.8259612
  39.7147611  66.0741928 116.0176802  37.2063601  72.1550731 117.6242423
  36.6784963  71.4203491 117.3115661  36.7051104  72.9325407 117.3782391
  42.1856447  70.3499752 122.7409469  41.5280122  71.0399013 122.8289598
  42.9896846  70.7396183 123.0843456  31.9382329  62.8170397 119.9849035
  32.5126081  62.5945579 119.2522228  32.5253311  62.8859092 120.7377636
  40.9961906  68.7044124 120.7913411  41.5093788  69.3374116 121.2935121
  41.6463130  68.1045320 120.4256771  32.2651916  64.8474858 114.0044920
  31.4289228  65.1849545 114.3254195  32.1256685  64.7123838 113.0672057
  34.2404996  59.6911646 118.7124104  33.5869409  59.3760663 118.0880719
  34.1985471  59.0687387 119.4383927  35.3516201  69.9730941 110.6277396
  34.4443263  69.7420195 110.8268545  35.8487233  69.1768561 110.8151378
  38.2584280  78.6828449 113.5474082  37.5845979  78.9860145 114.1559040
  38.6450102  79.4857529 113.1979539  37.4742737  66.1793580 123.0371752
  36.5565298  66.4008527 122.8793440  37.8902880  66.2539890 122.1783459
  38.2577785  67.5784995 118.1674432  39.0049603  68.0906393 117.8581554
  38.5269374  67.2569048 119.0278826  36.5304435  70.0743536 115.1501386
  35.6215654  69.7902569 115.2473856  36.5599519  70.4942615 114.2904693
  41.7623702  73.6850126 118.9192554  41.3086029  72.8441036 118.9757744
  41.1317669  74.3211524 119.2567334  40.7056622  64.6142112 120.1493221
  39.9679378  64.1019498 120.4803464  40.9583395  64.1742493 119.3376498
  40.2056641  75.5226622 119.8542372  40.4979616  76.0831679 119.1354738
  40.7155262  75.8155183 120.6095531  40.8068249  57.3918364 120.7434991
  41.1127126  56.5315727 120.4560906  41.5320854  57.9835984 120.5433984
  27.0992605  67.7949050 119.1316588  26.9017005  67.2018411 118.4067655
  26.5439269  67.4901260 119.8492527  35.0789329  67.6872157 121.2511182
  35.1337939  66.7345993 121.1753658  34.2680531  67.8431596 121.7352480
  36.2280523  71.6152280 112.4889465  35.7899952  70.8988139 112.0295102
  36.9690963  71.8428395 111.9274556  33.0181689  66.3049217 119.0101560
  32.2049554  66.6043387 119.4166753  33.5140683  65.9104905 119.7276043
  35.1690267  76.3006973 120.9435825  35.1266445  76.5267820 120.0144357
  36.0852965  76.0670348 121.0921626  38.6155900  66.7691041 127.8416454
  38.9705288  66.9962514 128.7010920  39.2628032  67.1009418 127.2193710
  44.3453637  69.8909477 118.5465783  44.2071536  70.0811073 117.6186973
  43.9889856  70.6528860 119.0033835  32.5095763  63.8767572 124.6262795
  33.1495143  63.7356331 123.9285759  31.6773294  63.5902085 124.2501397
  44.3723017  71.9586004 123.5577055  44.8059524  71.8661293 124.4060109
  45.0854598  71.9343504 122.9197071  33.2856067  73.1770002 120.7397788
  34.0796666  72.6820323 120.5380363  32.5747760  72.6487866 120.3765493
  38.1050912  75.5588098 125.0910155  38.1587934  76.1279034 125.8587871
  37.2365693  75.7289983 124.7264193  29.5938831  67.3213084 116.8157541
  28.6636419  67.2597540 117.0327503  29.6896303  66.7989037 116.0194182
  29.5124380  63.8467897 119.4035782  29.7731197  64.7613230 119.2944943
  30.3341552  63.3792340 119.5532395  30.9849305  65.2605654 126.5734607
  31.6572359  65.0523016 125.9247256  30.1579092  65.0627740 126.1339839
  45.2338566  72.0009705 126.0909940  45.4274457  72.9055515 126.3369215
  45.1339185  71.5417124 126.9248525  36.8874877  61.8867595 128.5900268
  36.2402792  62.5857545 128.4964744  37.6575893  62.3203739 128.9576516
  40.2953675  72.1516447 131.6650821  40.1439182  71.9226999 130.7480905
  40.2858355  73.1087049 131.6782166  37.0639012  69.7248360 126.6497087
  37.9931072  69.8759520 126.4766055  36.6430042  69.8132381 125.7945734
  35.8627343  73.7499024 124.4195625  35.7238429  73.3817809 125.2921563
  35.0741940  74.2646664 124.2479583  36.4575495  78.8508121 115.7621161
  36.6327251  78.3796164 116.5766784  35.7708283  79.4773887 115.9902422
  37.4132558  73.1280627 121.8084463  37.0782391  73.0881397 122.7042113
  36.9136504  72.4625343 121.3354873  31.3876802  68.5348257 127.3337044
  31.2496600  67.8028496 127.9348583  32.2981726  68.4457157 127.0521232
  40.3491750  70.4736662 112.0821522  39.7320921  69.7483490 111.9854575
  39.8808239  71.2346022 111.7388597  34.0159103  68.2468217 126.8220724
  34.7258722  67.6061409 126.7807342  33.9728411  68.4981111 127.7446904
  42.0045882  75.1835570 129.7427303  41.9458428  74.4994790 129.0757886
  42.4065400  75.9254560 129.2907929  32.7288037  65.2333434 128.6416363
  32.1925394  64.7824173 129.2937959  32.1404746  65.3679343 127.8986827
  31.0236581  81.9997484 122.5361022  31.2633179  82.6316008 123.2140040
  30.1805777  81.6485524 122.8226381  32.1390296  64.6922086 111.2042827
  31.2619762  64.5710887 110.8405073  32.6148049  63.9008164 110.9521715
  42.0063289  73.1475154 127.9741282  41.1190068  72.8101076 128.0967681
  42.5761840  72.4158185 128.2110048  23.6592436  69.4799246 121.2984334
  24.3463476  69.1660976 120.7105349  23.5040565  70.3840610 121.0251585
  28.4627158  64.3689442 125.7269358  28.3785347  63.7615112 124.9919767
  27.6409865  64.8598460 125.7278854  35.5364442  77.8076606 124.9402526
  35.4634614  78.6131578 125.4521830  35.0941836  78.0068572 124.1150547
  35.3254222  77.0448376 118.4505347  34.5421744  77.5870056 118.5443572
  36.0246967  77.5622356 118.8499588  38.6350872  62.8543006 121.0939553
  39.1319572  62.1012968 120.7740623  37.8637854  62.8907322 120.5282762
  46.4880630  68.5583371 122.7357844  46.4770506  69.4408087 122.3651777
  45.6198009  68.2054922 122.5412381  37.9963126  77.7063440 127.0960684
  38.7091098  78.3410905 127.0236586  37.5053155  77.8027306 126.2800686
  39.7180653  71.6114693 118.6677976  38.7836932  71.7316155 118.4982680
  39.8957321  70.7087160 118.4037986  35.2185841  64.9960389 120.8211237
  34.8483628  64.4431429 121.5092143  35.7144933  64.3918522 120.2686237
  43.1053204  67.4532012 119.2028010  43.5713656  68.2860004 119.1288313
  43.5560705  66.9876994 119.9073269  33.0475040  75.4557884 127.9166255
  33.7484499  76.0894367 128.0695649  32.5770155  75.7972615 127.1561894
  41.1729435  73.7975833 116.2014162  41.4489279  73.6832428 117.1108036
  40.3033934  73.3993318 116.1626335  41.0769867  59.8212599 123.2418911
  40.1632947  60.0516826 123.4101118  41.5062968  59.9051043 124.0932944
  40.8476325  68.0102491 125.7418805  40.1947776  68.2578399 125.0871258
  41.2256705  67.1966629 125.4081283  37.8083499  78.0462184 119.8446976
  37.9905894  77.2283840 120.3074728  38.6316485  78.2629877 119.4071866
  38.1425665  76.9730369 117.1062024  38.6713431  76.4622824 116.4932186
  38.4053884  76.6572900 117.9707557  36.8963898  68.7522302 132.2284843
  36.2204536  68.6516431 132.8987218  37.7191532  68.5961516 132.6920840
  28.6442758  74.9894239 124.8497358  29.2296194  74.2437927 124.9825262
  28.4467596  75.2998195 125.7334022  31.4981413  78.0245486 119.8659800
  30.8291788  78.5091614 119.3823840  31.3594282  78.2714707 120.7803179
  23.2360412  67.5599839 123.5701801  23.2744512  67.0263430 124.3638919
  22.7300705  67.0335044 122.9512778  35.6386681  80.0589230 126.4642459
  36.1904989  80.2220851 127.2291544  35.9792875  80.6493667 125.7922483
  30.6151175  62.4064379 127.0664343  30.6792501  63.2679210 126.6541741
  30.5518295  61.7938381 126.3336702  30.0903447  64.4787512 130.7137378
  30.7175486  64.0964589 131.3274902  29.2331366  64.2601714 131.0793070
  40.4897556  74.8850487 132.3191113  41.0337460  75.4980445 131.8246068
  39.9084401  75.4430066 132.8358126  26.8668990  66.2863941 116.6455732
  27.1622431  65.3774619 116.5922786  25.9657026  66.2651680 116.3236735
  38.7755069  78.0071205 123.4506141  38.6506208  77.2060945 122.9417086
  39.4334160  78.5017398 122.9620111  30.3963237  64.3619938 122.6283281
  29.6749823  64.9755905 122.4890754  31.1856493  64.8977702 122.5499927
  40.8389977  75.8080225 125.0785691  39.8920313  75.6885576 125.0064018
  41.1872750  74.9202723 125.1611952  33.1989550  61.6974364 128.9023933
  33.7223952  61.9436661 129.6650242  32.9801884  62.5294399 128.4827070
  28.5956831  63.9678039 116.7695057  28.2669538  63.0875418 116.5870163
  28.9496202  63.9125707 117.6571447  37.8436410  75.6032941 121.2790043
  37.6961373  74.6749649 121.4597613  38.6689904  75.6253032 120.7947118
  31.7098655  64.2551009 117.1370535  32.0494727  64.7836930 116.4149144
  32.1570775  64.5931415 117.9129102  41.4470532  76.4261500 122.3654916
  42.3717080  76.2204361 122.2279367  41.2785836  76.1777901 123.2744257
  34.4042095  62.6388059 126.5873603  34.0638916  61.8395872 126.9894283
  33.6981102  62.9389770 126.0150436  35.0558567  59.7237372 125.0400926
  35.8784637  59.2497850 124.9179817  35.2996631  60.5027855 125.5399613
  33.6966802  62.7525630 115.3363828  34.4175164  63.1306883 114.8327545
  33.0732106  63.4714507 115.4398806  37.8397925  63.4570779 116.2722160
  38.0561539  64.3395417 115.9710988  37.3591992  63.0656992 115.5427802
  32.5797146  66.4156492 122.8492905  32.4341727  66.7296795 123.7417186
  32.1022350  67.0341393 122.2963804  34.4393529  63.4059040 122.8973794
  34.4255098  62.5100134 122.5606092  35.1565957  63.4129704 123.5312080
  36.2919660  63.8396380 124.9426922  36.0337437  64.7613451 124.9411252
  35.7604700  63.4426815 125.6327386  41.2365848  76.9447168 117.7217007
  41.4102726  76.3793590 116.9690860  41.7294740  77.7448062 117.5396497
  27.0542808  68.9561837 125.7880566  26.5096276  69.7321645 125.9200840
  27.9322158  69.3032641 125.6299687  33.8430425  62.2873421 118.1661365
  33.9646336  61.3590067 118.3652252  33.5532467  62.3012107 117.2539680
  36.7121615  59.9728331 121.3028084  36.7343312  60.0367664 120.3480064
  37.1289674  59.1332840 121.4968591  47.0905240  69.7083591 119.3407307
  47.5336386  68.9590916 118.9426430  46.2131750  69.6993727 118.9581039
  42.2241021  76.2613932 114.8213906  42.9191926  76.8820625 115.0401220
  42.5664171  75.4109283 115.0966283  27.8408830  68.0831733 128.6810723
  27.0990566  68.2314368 129.2675353  27.5201574  68.3439999 127.8177472
  44.1232444  73.7113638 116.3501236  44.6483768  74.0500910 115.6250556
  44.0354797  72.7760653 116.1664371  35.7852493  77.6247711 128.4791113
  36.0939619  77.3796858 129.3513813  36.5827975  77.8294350 127.9909983
  35.8073105  79.7785621 120.7096489  35.3678095  79.2862000 121.4029346
  36.5581222  79.2358588 120.4688565  28.2865444  75.9697162 120.7121118
  29.1123464  75.6700934 120.3319761  27.9359496  75.2004784 121.1610906
  33.2546977  75.3223630 122.7818791  32.6326986  74.6594335 122.4821019
  33.9251844  75.3484762 122.0992439  26.4874049  73.8883488 121.6710051
  25.6505957  73.4605662 121.4894052  26.4597694  74.0815931 122.6080842
  33.3271504  63.8005418 132.3751297  33.3759660  64.6767541 131.9929067
  33.8694019  63.2582811 131.8022940  43.8126350  74.3446541 131.6552434
  43.0221894  74.3270680 131.1156934  43.5759705  74.8834835 132.4101471
  43.9324225  71.1939008 128.9685163  43.9822230  71.0289015 129.9100686
  43.8238148  70.3266267 128.5783044  32.8160484  73.8727553 116.2577252
  32.9648604  74.5563018 115.6043924  33.6226927  73.8532643 116.7726707
  41.2227988  67.1769936 130.2844469  42.1237850  67.0376400 129.9928467
  41.2975962  67.3424390 131.2242647  35.5570793  64.5536790 129.1297656
  34.6874102  64.8470356 128.8580244  35.7930273  65.1377235 129.8504919
  45.4342422  73.6135949 129.2127184  45.1427230  73.9765930 130.0490645
  44.8214553  72.9002957 129.0340516  46.6338104  71.1788829 121.7329755
  47.4684996  71.6178633 121.8967315  46.7697233  70.7027482 120.9138000
  43.6829610  68.7368564 127.6807242  44.1583732  68.9296210 126.8726094
  42.7595176  68.7927750 127.4350626  30.5713117  69.8992731 117.2638321
  30.3259159  68.9955061 117.4618531  30.7409031  69.9009881 116.3217799
  38.2609827  60.7716407 126.6463076  38.7791771  61.5077434 126.3209565
  37.9064959  61.0780401 127.4809835  29.8408764  65.6321088 114.7624482
  29.1478009  65.7065443 114.1064518  29.5960516  64.8681432 115.2845999
  38.5122421  57.1916690 122.1663973  38.7924175  56.5239879 122.7924399
  39.2973028  57.3845785 121.6538637  36.3155889  76.3675684 113.7288999
  35.7429856  76.9865871 113.2759471  36.8888683  76.9175045 114.2628921
  42.3831279  65.6134324 125.9135548  43.3348702  65.7132421 125.9347772
  42.2134730  64.8212592 126.4233632  40.4045659  62.6989907 126.0994949
  39.8095591  62.9794920 125.4041437  40.1195355  63.1883808 126.8711690
  39.5353149  76.6512834 114.8597581  40.4683822  76.5858395 115.0630457
  39.4476362  77.4869101 114.4012114  42.1641166  75.9678704 111.8201529
  42.0854797  75.6338568 112.7137287  42.9850833  76.4600472 111.8193001
  44.8619357  68.8340443 125.0277848  44.8295677  67.8956444 125.2137531
  45.4719981  68.9124480 124.2943672  36.7002688  67.7036496 111.0705052
  37.6461793  67.5742705 111.1393470  36.3216933  66.9651158 111.5474480
  45.0113845  65.6251487 125.0736131  44.4952894  64.8409944 124.8866060
  45.8953794  65.2970204 125.2382650  42.6724572  59.3692502 121.0331943
  42.4749394  59.0607591 121.9175275  43.2824278  60.0954141 121.1629873
  50.6795907  69.8956450 124.1683884  51.4099295  69.6341738 124.7291588
  50.0702852  69.1585172 124.2085952  48.7611204  68.0364313 124.7658336
  48.0344368  67.9020278 124.1574827  48.3458491  68.3441142 125.5715054
  36.5841380  71.7554243 132.5305709  37.5044390  71.9332842 132.7245755
  36.5490963  70.8110288 132.3785408  34.8845605  65.6286473 111.0059937
  33.9777060  65.3319586 111.0822650  35.1621586  65.3316291 110.1394223
  25.8023545  66.9492836 121.4558983  25.4826330  66.0958144 121.1633357
  25.2556974  67.1641414 122.2116951  29.5803453  69.6655277 125.1728490
  29.7989463  70.5972385 125.1916524  29.9929227  69.3063252 125.9583294
  36.5007671  60.1723363 117.1604178  35.6908399  59.8270448 117.5359424
  37.1892088  59.8630906 117.7491790  38.4298219  59.2501409 118.7828475
  38.9829258  59.6696863 119.4418498  38.6668305  58.3237157 118.8251431
  34.4531318  65.2388483 134.5631239  34.3528045  66.1882840 134.4943330
  34.2352860  64.9106722 133.6907309  33.6544390  62.4873408 111.1471916
  34.5163554  62.8128306 111.4067733  33.8394734  61.7004904 110.6344982
  25.6711805  70.5695748 123.4252105  24.9775277  70.1549701 122.9122059
  26.4184796  70.6116284 122.8285524  41.8077026  61.3601935 118.2907139
  41.2275695  62.0186739 117.9085191  41.5412959  60.5379279 117.8794557
  40.2580592  60.7606992 120.4928459  40.7580371  60.8723527 119.6842778
  40.9016200  60.4568045 121.1329268  34.3162588  68.6685622 133.3796300
  33.8329670  69.4685982 133.5860189  34.4023527  68.6793567 132.4263744
  27.5848548  70.5014002 121.3018120  27.5619236  70.6001689 120.3500003
  27.8949184  71.3479152 121.6235286  30.2435926  72.5590157 125.4164734
  31.1979179  72.5274099 125.3494666  30.0448449  72.0980780 126.2314960
  30.8335308  71.1291273 127.9835532  31.6528197  71.6235351 128.0070369
  31.1072116  70.2123241 127.9553099  40.5901904  63.5202025 117.3463487
  39.7027759  63.8051676 117.1283682  41.0055893  63.3595788 116.4990764
  43.9416440  63.5448546 121.0617827  44.7176830  64.0344998 121.3342443
  43.2164574  63.9706600 121.5189696  46.3788999  64.2576165 122.1191767
  46.9733490  64.0171901 121.4085075  46.4515583  63.5383296 122.7465303
  28.5986155  78.1009776 122.4334932  28.4640622  77.3410177 121.8672930
  28.1818217  78.8250676 121.9663721  39.7345118  73.2846700 111.4411507
  40.4380968  73.4896702 112.0569163  39.0107766  73.8523461 111.7060591
  40.5642928  69.0356561 117.5613777  40.5078129  69.4925112 116.7221410
  41.1171270  68.2747245 117.3836620  44.3747734  64.8246293 118.3863897
  44.1184668  64.4242928 119.2172105  43.7500602  65.5390087 118.2614036
  48.6860072  67.5642366 120.8935188  48.1259630  67.6335555 121.6666750
  48.0803575  67.3883351 120.1734685  31.7555280  78.9979093 122.6453375
  31.6387665  79.9424526 122.5432065  30.9347727  78.6952655 123.0339174
  41.6431815  73.7229229 113.4909967  42.4777419  73.2910427 113.3087442
  41.4816158  73.5511242 114.4186862  41.2977707  70.2261342 114.8566307
  41.2426511  70.0605614 113.9154751  40.6723762  70.9337375 115.0128496
  26.0870222  65.4629406 128.6827729  26.7329086  64.9528360 129.1714954
  25.8787373  66.1998088 129.2571154  38.6123614  72.5310254 134.1819869
  39.4814774  72.7050906 133.8206504  38.1330366  73.3504671 134.0595599
  34.6073833  59.7269451 114.4351625  34.5952502  60.6711291 114.5919896
  35.4997254  59.5439596 114.1411086  32.7809795  79.6507355 125.8609303
  33.6837041  79.6830965 126.1775798  32.5547165  78.7207806 125.8755639
  34.5363397  78.4038341 122.5219382  33.5859028  78.4040203 122.4083754
  34.8395883  77.6571076 122.0055416  38.4225952  56.3212228 118.6897562
  37.6558348  55.7670714 118.8354244  38.8336657  56.3934096 119.5511713
  50.2716090  84.2398880 123.5865144  50.9094500  84.1205627 122.8828484
  50.1536933  85.1879724 123.6453096  47.0805796  84.1926308 123.5226669
  46.7424308  84.0767373 122.6347204  47.9495565  83.7917473 123.5027675
  42.9392612  86.0461784 119.5123560  42.3757477  85.9551721 118.7439847
  42.8245007  85.2261689 119.9926052  47.5625579  85.3461160 129.4812874
  47.5514220  84.9513958 128.6093378  47.7246219  84.6127232 130.0746646
  40.4857044  87.5412976 122.3507780  41.2778336  87.2003801 121.9354079
  40.7253694  87.6507951 123.2709933  48.5192171  89.7132752 114.8238025
  47.8680151  90.2986833 114.4372038  49.3136534  90.2438947 114.8833062
  42.4447798  86.8021889 115.2225159  43.2178674  86.2550876 115.0838035
  42.7973197  87.6666139 115.4339620  44.2832840  88.1298272 128.4292058
  43.9922706  89.0343902 128.3138725  44.9189825  88.1714799 129.1436128
  45.2089047  85.5075120 125.0193418  45.8052620  85.2831142 124.3050381
  45.2664019  84.7659866 125.6218866  44.7814076  82.9614555 112.8543609
  45.0339596  82.4396077 112.0927072  43.8438635  82.7980701 112.9570292
  49.8257359  81.9650334 120.6618352  50.6120448  81.5469757 120.3108769
  50.0896063  82.8696426 120.8300000  49.9967436  87.4023184 115.3607009
  49.3613269  87.4757811 116.0727914  49.6664842  87.9916783 114.6826088
  55.2265786  81.9025567 121.5651331  55.9590958  81.3324784 121.7989160
  54.4705141  81.5147167 122.0057836  44.5010364  84.8642661 115.0567984
  44.3846623  84.1887565 115.7249068  44.6112624  84.3775035 114.2400137
  46.8441905  84.3252808 118.7614673  46.4800113  83.7983429 119.4727595
  47.7009021  83.9351277 118.5881158  52.7491206  75.6147141 126.0245939
  52.4174531  76.4842552 125.8007154  52.1536819  75.2983425 126.7039970
  46.4847392  79.3542708 113.7576022  46.6521795  80.2222945 114.1246493
  46.2944561  79.5169990 112.8337311  49.2422726  87.8159687 125.4241852
  48.9423449  88.7184726 125.3157659  48.8973785  87.5491870 126.2763005
  42.6935207  84.2673484 121.4578556  41.7685704  84.1349698 121.6656248
  42.9419620  85.0467703 121.9548499  52.6419869  80.3342227 123.1039289
  51.7336747  80.2657636 122.8098050  52.5907465  80.8114172 123.9321115
  46.4636613  81.8100366 114.7422688  46.3436238  82.2557416 115.5808169
  45.7689202  82.1585683 114.1836227  40.0544018  83.9106757 122.2922345
  40.1836399  84.1641236 123.2061757  39.3741469  84.5034465 121.9727001
  44.2243505  94.5804007 118.3912820  44.1467535  95.5311832 118.4701300
  43.6205149  94.2349880 119.0487746  46.7160735  81.7531873 131.0474187
  45.9394069  82.3125793 131.0377051  47.3551298  82.2388656 131.5689057
  54.5081516  78.5358666 124.8817163  53.8655896  78.8291199 124.2356958
  54.0036444  78.4211586 125.6870360  52.1621679  82.2821839 115.5703022
  53.0739536  82.5149226 115.3950720  51.6531326  82.8658883 115.0078101
  44.9707107  84.5617326 130.6092154  45.7121792  85.1002370 130.3326977
  44.2644093  85.1883615 130.7663705  50.4462447  86.7046467 129.2064315
  50.8545803  86.2628877 128.4618947  49.7239709  86.1299094 129.4598508
  46.7993517  81.6419073 126.5797872  47.6454712  82.0658487 126.7232521
  46.7392155  80.9852698 127.2736435  50.7691262  87.2647657 122.9616604
  50.1400124  87.4293371 122.2592672  50.3816924  87.6789267 123.7327568
  54.6480494  88.2002095 120.3160968  53.9631532  88.5800996 119.7658001
  54.7324343  88.8097422 121.0492915  49.9492962  79.3023442 128.2379046
  49.7053894  80.0565502 127.7013321  50.2252893  79.6808789 129.0726293
  51.9031425  85.8462054 126.9156311  52.1148320  86.4893814 126.2390692
  51.8561173  85.0124371 126.4478241  49.5057654  78.4579875 123.8192883
  48.6442133  78.7561128 124.1109621  49.5320089  78.6750274 122.8873916
  46.3219224  87.0022065 120.2266689  46.7857569  87.2809768 119.4371312
  46.0576022  86.1005510 120.0439780  43.2143305  86.5493547 123.1646452
  43.7844662  86.9780815 122.5263937  43.8051417  86.2676132 123.8630638
  45.2588110  83.1245218 117.0356254  45.9612153  83.5766261 117.5030181
  44.9268738  82.4829037 117.6636147  43.7068471  81.7156974 131.4107464
  43.0767132  82.3973255 131.6442860  43.6004559  81.6040056 130.4660602
  39.0013444  81.3828770 122.3373388  38.2112498  81.6386299 121.8613498
  39.4924691  82.1977108 122.4425428  53.0177253  88.7234010 125.0878669
  53.8394697  88.3214197 124.8061350  53.0139656  88.6202244 126.0394784
  40.9528189  81.7473350 119.2956864  40.1559352  81.8592044 119.8140360
  40.7253781  82.0860002 118.4297755  46.7833857  88.2718053 127.2439379
  46.8478289  88.7338460 128.0797551  46.0744781  87.6415418 127.3721689
  37.2851147  81.6359261 124.7688379  37.5359185  82.5206271 125.0345954
  37.8210695  81.4563862 123.9963470  61.1083246  85.0672758 121.4363640
  60.3546955  84.4980156 121.2807644  61.2430787  85.0335423 122.3834275
  46.4981874  89.9386160 117.1118359  46.3627549  90.7837696 117.5403207
  47.0391687  90.1405438 116.3484293  42.9849214  76.0177740 133.7732715
  42.5916159  75.4643939 134.4480359  43.8015354  76.3288319 134.1639232
  39.9511272  87.4561598 117.6846284  40.4635792  88.2504849 117.8351849
  40.6033985  86.7587889 117.6179886  41.7606156  90.5727355 119.7669038
  41.9372785  91.4945319 119.5790022  42.5562990  90.2585774 120.1963417
  45.9017175  77.4335619 131.3652971  46.6426888  78.0342772 131.2857434
  46.1335098  76.6913257 130.8071014  41.0458513  82.6191987 129.6431201
  40.9312028  81.7177244 129.9438300  40.1903031  82.8655683 129.2916017
  48.1250351  90.5609727 131.2418701  47.6814205  89.7746105 130.9239606
  48.7867564  90.7488877 130.5762592  42.8837472  92.0905528 125.7679380
  43.4344897  91.9622592 124.9956374  42.0448948  92.3900417 125.4174273
  50.2231589  90.8412527 129.2700103  50.2050064  91.6621408 128.7780372
  51.1451509  90.7166602 129.4950244  46.6804643  88.3556656 130.1123611
  47.2132980  87.5944944 129.8822919  46.1518724  88.0630308 130.8547766
  49.8474338  73.4616722 125.6417253  49.5038607  74.3518364 125.5656363
  50.2153300  73.2718380 124.7786838  37.9160188  85.7850253 118.4605855
  38.7535410  86.1947261 118.2439563  38.0938456  84.8449695 118.4306049
  49.8124621  83.4525333 114.1489688  49.2971244  84.2229938 114.3878075
  49.5401929  82.7790469 114.7722749  47.3971732  78.2975034 119.2074926
  46.5413328  77.9081884 119.0280565  47.8098683  78.3766995 118.3474712
  48.9270878  75.8321377 123.6066486  48.4235674  75.7951513 122.7934291
  49.2201485  76.7414120 123.6663143  45.1713764  75.9160107 122.6132668
  46.0366761  75.7202916 122.2538557  45.2391273  75.6870459 123.5402025
  54.7858895  86.2057688 116.0842861  54.0088337  85.8668847 115.6398024
  55.4650376  86.2110311 115.4097826  49.6010924  81.3252425 115.9749469
  49.2961059  81.6398575 116.8259612  50.5541366  81.4033845 116.0176802
  48.0457356  87.4842649 117.6242423  47.5178717  86.7495408 117.3115661
  47.5444858  88.2617325 117.3782391  53.0250202  85.6791669 122.7409469
  52.3673876  86.3690931 122.8289598  53.8290601  86.0688101 123.0843456
  42.7776083  78.1462315 119.9849035  43.3519835  77.9237497 119.2522228
  43.3647066  78.2151010 120.7377636  51.8355660  84.0336042 120.7913411
  52.3487542  84.6666034 121.2935121  52.4856884  83.4337237 120.4256771
  43.1045670  80.1766776 114.0044920  42.2682983  80.5141463 114.3254195
  42.9650440  80.0415756 113.0672057  45.0798751  75.0203564 118.7124104
  44.4263163  74.7052581 118.0880719  45.0379225  74.3979304 119.4383927
  46.1909956  85.3022859 110.6277396  45.2837018  85.0712112 110.8268545
  46.6880988  84.5060478 110.8151378  49.0978035  94.0120366 113.5474082
  48.4239733  94.3152063 114.1559040  49.4843857  94.8149447 113.1979539
  48.3136491  81.5085497 123.0371752  47.3959053  81.7300444 122.8793440
  48.7296635  81.5831808 122.1783459  49.0971539  82.9076913 118.1674432
  49.8443358  83.4198310 117.8581554  49.3663129  82.5860966 119.0278826
  47.3698189  85.4035454 115.1501386  46.4609408  85.1194487 115.2473856
  47.3993273  85.8234532 114.2904693  52.6017457  89.0142043 118.9192554
  52.1479784  88.1732953 118.9757744  51.9711423  89.6503442 119.2567334
  51.5450376  79.9434029 120.1493221  50.8073133  79.4311416 120.4803464
  51.7977150  79.5034411 119.3376498  51.0450396  90.8518540 119.8542372
  51.3373370  91.4123597 119.1354738  51.5549016  91.1447101 120.6095531
  51.6462004  72.7210281 120.7434991  51.9520880  71.8607645 120.4560906
  52.3714608  73.3127902 120.5433984  37.9386360  83.1240968 119.1316588
  37.7410759  82.5310329 118.4067655  37.3833024  82.8193178 119.8492527
  45.9183083  83.0164074 121.2511182  45.9731693  82.0637911 121.1753658
  45.1074285  83.1723514 121.7352480  47.0674277  86.9444198 112.4889465
  46.6293707  86.2280056 112.0295102  47.8084718  87.1720312 111.9274556
  43.8575443  81.6341134 119.0101560  43.0443309  81.9335305 119.4166753
  44.3534437  81.2396823 119.7276043  46.0084021  91.6298891 120.9435825
  45.9660200  91.8559737 120.0144357  46.9246720  91.3962266 121.0921626
  49.4549655  82.0982959 127.8416454  49.8099043  82.3254432 128.7010920
  50.1021786  82.4301335 127.2193710  55.1847392  85.2201395 118.5465783
  55.0465290  85.4102991 117.6186973  54.8283611  85.9820777 119.0033835
  43.3489518  79.2059490 124.6262795  43.9888897  79.0648249 123.9285759
  42.5167048  78.9194003 124.2501397  55.2116771  87.2877922 123.5577055
  55.6453278  87.1953211 124.4060109  55.9248352  87.2635422 122.9197071
  44.1249822  88.5061920 120.7397788  44.9190420  88.0112240 120.5380363
  43.4141514  87.9779783 120.3765493  48.9444666  90.8880016 125.0910155
  48.9981689  91.4570952 125.8587871  48.0759448  91.0581901 124.7264193
  40.4332585  82.6505002 116.8157541  39.5030173  82.5889457 117.0327503
  40.5290057  82.1280955 116.0194182  40.3518134  79.1759815 119.4035782
  40.6124952  80.0905148 119.2944943  41.1735307  78.7084257 119.5532395
  41.8243060  80.5897572 126.5734607  42.4966113  80.3814934 125.9247256
  40.9972846  80.3919658 126.1339839  56.0732321  87.3301622 126.0909940
  56.2668211  88.2347433 126.3369215  55.9732939  86.8709041 126.9248525
  47.7268632  77.2159513 128.5900268  47.0796547  77.9149462 128.4964744
  48.4969647  77.6495657 128.9576516  51.1347430  87.4808365 131.6650821
  50.9832936  87.2518917 130.7480905  51.1252109  88.4378966 131.6782166
  47.9032766  85.0540278 126.6497087  48.8324826  85.2051437 126.4766055
  47.4823796  85.1424299 125.7945734  46.7021098  89.0790942 124.4195625
  46.5632184  88.7109727 125.2921563  45.9135694  89.5938582 124.2479583
  47.2969250  94.1800039 115.7621161  47.4721005  93.7088082 116.5766784
  46.6102038  94.8065805 115.9902422  48.2526313  88.4572545 121.8084463
  47.9176146  88.4173315 122.7042113  47.7530259  87.7917261 121.3354873
  42.2270557  83.8640175 127.3337044  42.0890355  83.1320414 127.9348583
  43.1375480  83.7749075 127.0521232  51.1885505  85.8028579 112.0821522
  50.5714675  85.0775407 111.9854575  50.7201993  86.5637939 111.7388597
  44.8552858  83.5760134 126.8220724  45.5652476  82.9353326 126.7807342
  44.8122166  83.8273029 127.7446904  52.8439636  90.5127488 129.7427303
  52.7852182  89.8286708 129.0757886  53.2459155  91.2546478 129.2907929
  43.5681792  80.5625352 128.6416363  43.0319149  80.1116091 129.2937959
  42.9798500  80.6971261 127.8986827  41.8630335  97.3289401 122.5361022
  42.1026933  97.9607926 123.2140040  41.0199532  96.9777441 122.8226381
  42.9784051  80.0214003 111.2042827  42.1013517  79.9002804 110.8405073
  43.4541804  79.2300082 110.9521715  52.8457044  88.4767071 127.9741282
  51.9583822  88.1392993 128.0967681  53.4155595  87.7450103 128.2110048
  34.4986191  84.8091163 121.2984334  35.1857231  84.4952893 120.7105349
  34.3434319  85.7132528 121.0251585  39.3020913  79.6981360 125.7269358
  39.2179102  79.0907029 124.9919767  38.4803619  80.1890378 125.7278854
  46.3758197  93.1368524 124.9402526  46.3028368  93.9423495 125.4521830
  45.9335590  93.3360490 124.1150547  46.1647977  92.3740294 118.4505347
  45.3815498  92.9161974 118.5443572  46.8640722  92.8914273 118.8499588
  49.4744627  78.1834923 121.0939553  49.9713326  77.4304886 120.7740623
  48.7031608  78.2199240 120.5282762  57.3274384  83.8875289 122.7357844
  57.3164260  84.7700004 122.3651777  56.4591764  83.5346840 122.5412381
  48.8356880  93.0355358 127.0960684  49.5484853  93.6702823 127.0236586
  48.3446909  93.1319224 126.2800686  50.5574407  86.9406611 118.6677976
  49.6230686  87.0608073 118.4982680  50.7351076  86.0379077 118.4037986
  46.0579595  80.3252306 120.8211237  45.6877383  79.7723347 121.5092143
  46.5538688  79.7210440 120.2686237  53.9446959  82.7823930 119.2028010
  54.4107411  83.6151921 119.1288313  54.3954459  82.3168911 119.9073269
  43.8868794  90.7849801 127.9166255  44.5878253  91.4186284 128.0695649
  43.4163909  91.1264533 127.1561894  52.0123190  89.1267751 116.2014162
  52.2883034  89.0124346 117.1108036  51.1427689  88.7285236 116.1626335
  51.9163621  75.1504517 123.2418911  51.0026701  75.3808744 123.4101118
  52.3456723  75.2342961 124.0932944  51.6870080  83.3394409 125.7418805
  51.0341530  83.5870316 125.0871258  52.0650460  82.5258547 125.4081283
  48.6477254  93.3754102 119.8446976  48.8299648  92.5575758 120.3074728
  49.4710240  93.5921794 119.4071866  48.9819419  92.3022287 117.1062024
  49.5107186  91.7914742 116.4932186  49.2447639  91.9864817 117.9707557
  47.7357653  84.0814220 132.2284843  47.0598290  83.9808349 132.8987218
  48.5585287  83.9253434 132.6920840  39.4836512  90.3186156 124.8497358
  40.0689949  89.5729844 124.9825262  39.2861351  90.6290113 125.7334022
  42.3375167  93.3537404 119.8659800  41.6685543  93.8383531 119.3823840
  42.1988037  93.6006624 120.7803179  34.0754167  82.8891757 123.5701801
  34.1138266  82.3555347 124.3638919  33.5694460  82.3626962 122.9512778
  46.4780436  95.3881147 126.4642459  47.0298744  95.5512769 127.2291544
  46.8186629  95.9785585 125.7922483  41.4544929  77.7356297 127.0664343
  41.5186256  78.5971128 126.6541741  41.3912049  77.1230299 126.3336702
  40.9297202  79.8079430 130.7137378  41.5569240  79.4256507 131.3274902
  40.0725120  79.5893632 131.0793070  51.3291310  90.2142405 132.3191113
  51.8731214  90.8272363 131.8246068  50.7478155  90.7721983 132.8358126
  37.7062744  81.6155859 116.6455732  38.0016185  80.7066537 116.5922786
  36.8050780  81.5943598 116.3236735  49.6148823  93.3363123 123.4506141
  49.4899963  92.5352863 122.9417086  50.2727914  93.8309316 122.9620111
  41.2356991  79.6911855 122.6283281  40.5143577  80.3047823 122.4890754
  42.0250247  80.2269620 122.5499927  51.6783732  91.1372143 125.0785691
  50.7314067  91.0177494 125.0064018  52.0266505  90.2494641 125.1611952
  44.0383305  77.0266282 128.9023933  44.5617707  77.2728578 129.6650242
  43.8195638  77.8586317 128.4827070  39.4350586  79.2969956 116.7695057
  39.1063292  78.4167335 116.5870163  39.7889957  79.2417625 117.6571447
  48.6830165  90.9324859 121.2790043  48.5355127  90.0041567 121.4597613
  49.5083658  90.9544950 120.7947118  42.5492409  79.5842926 117.1370535
  42.8888482  80.1128847 116.4149144  42.9964530  79.9223332 117.9129102
  52.2864287  91.7553418 122.3654916  53.2110834  91.5496279 122.2279367
  52.1179590  91.5069819 123.2744257  45.2435850  77.9679977 126.5873603
  44.9032670  77.1687790 126.9894283  44.5374856  78.2681688 126.0150436
  45.8952322  75.0529289 125.0400926  46.7178391  74.5789768 124.9179817
  46.1390385  75.8319773 125.5399613  44.5360556  78.0817548 115.3363828
  45.2568919  78.4598801 114.8327545  43.9125860  78.8006425 115.4398806
  48.6791679  78.7862697 116.2722160  48.8955294  79.6687335 115.9710988
  48.1985746  78.3948910 115.5427802  43.4190901  81.7448410 122.8492905
  43.2735481  82.0588713 123.7417186  42.9416104  82.3633310 122.2963804
  45.2787283  78.7350958 122.8973794  45.2648852  77.8392051 122.5606092
  45.9959712  78.7421622 123.5312080  47.1313414  79.1688298 124.9426922
  46.8731192  80.0905369 124.9411252  46.5998454  78.7718733 125.6327386
  52.0759603  92.2739085 117.7217007  52.2496480  91.7085508 116.9690860
  52.5688494  93.0739980 117.5396497  37.8936563  84.2853754 125.7880566
  37.3490031  85.0613562 125.9200840  38.7715913  84.6324559 125.6299687
  44.6824179  77.6165338 118.1661365  44.8040091  76.6881984 118.3652252
  44.3926222  77.6304024 117.2539680  47.5515370  75.3020249 121.3028084
  47.5737067  75.3659582 120.3480064  47.9683429  74.4624757 121.4968591
  57.9298994  85.0375508 119.3407307  58.3730140  84.2882833 118.9426430
  57.0525504  85.0285645 118.9581039  53.0634775  91.5905850 114.8213906
  53.7585680  92.2112542 115.0401220  53.4057926  90.7401201 115.0966283
  38.6802585  83.4123651 128.6810723  37.9384321  83.5606286 129.2675353
  38.3595329  83.6731916 127.8177472  54.9626198  89.0405555 116.3501236
  55.4877523  89.3792828 115.6250556  54.8748551  88.1052571 116.1664371
  46.6246247  92.9539629 128.4791113  46.9333374  92.7088776 129.3513813
  47.4221729  93.1586267 127.9909983  46.6466859  95.1077538 120.7096489
  46.2071850  94.6153917 121.4029346  47.3974976  94.5650506 120.4688565
  39.1259198  91.2989079 120.7121118  39.9517218  90.9992851 120.3319761
  38.7753250  90.5296702 121.1610906  44.0940731  90.6515548 122.7818791
  43.4720741  89.9886253 122.4821019  44.7645598  90.6776679 122.0992439
  37.3267803  89.2175406 121.6710051  36.4899712  88.7897580 121.4894052
  37.2991449  89.4107849 122.6080842  44.1665259  79.1297336 132.3751297
  44.2153414  80.0059458 131.9929067  44.7087773  78.5874729 131.8022940
  54.6520105  89.6738459 131.6552434  53.8615648  89.6562598 131.1156934
  54.4153459  90.2126753 132.4101471  54.7717980  86.5230925 128.9685163
  54.8215985  86.3580933 129.9100686  54.6631903  85.6558184 128.5783044
  43.6554238  89.2019471 116.2577252  43.8042359  89.8854935 115.6043924
  44.4620682  89.1824561 116.7726707  52.0621742  82.5061853 130.2844469
  52.9631605  82.3668318 129.9928467  52.1369717  82.6716308 131.2242647
  46.3964547  79.8828708 129.1297656  45.5267857  80.1762274 128.8580244
  46.6324028  80.4669153 129.8504919  56.2736176  88.9427867 129.2127184
  55.9820985  89.3057847 130.0490645  55.6608308  88.2294875 129.0340516
  57.4731859  86.5080747 121.7329755  58.3078750  86.9470551 121.8967315
  57.6090988  86.0319400 120.9138000  54.5223365  84.0660481 127.6807242
  54.9977486  84.2588128 126.8726094  53.5988930  84.1219667 127.4350626
  41.4106871  85.2284649 117.2638321  41.1652913  84.3246979 117.4618531
  41.5802786  85.2301799 116.3217799  49.1003581  76.1008325 126.6463076
  49.6185525  76.8369352 126.3209565  48.7458714  76.4072318 127.4809835
  40.6802519  80.9613006 114.7624482  39.9871764  81.0357361 114.1064518
  40.4354271  80.1973350 115.2845999  49.3516175  72.5208607 122.1663973
  49.6317929  71.8531797 122.7924399  50.1366782  72.7137703 121.6538637
  47.1549644  91.6967601 113.7288999  46.5823611  92.3157789 113.2759471
  47.7282437  92.2466963 114.2628921  53.2225034  80.9426241 125.9135548
  54.1742457  81.0424339 125.9347772  53.0528484  80.1504510 126.4233632
  51.2439413  78.0281825 126.0994949  50.6489345  78.3086837 125.4041437
  50.9589110  78.5175726 126.8711690  50.3746904  91.9804752 114.8597581
  51.3077577  91.9150313 115.0630457  50.2870116  92.8161018 114.4012114
  53.0034920  91.2970622 111.8201529  52.9248552  90.9630485 112.7137287
  53.8244587  91.7892390 111.8193001  55.7013111  84.1632361 125.0277848
  55.6689432  83.2248362 125.2137531  56.3113735  84.2416398 124.2943672
  47.5396442  83.0328414 111.0705052  48.4855547  82.9034622 111.1393470
  47.1610687  82.2943076 111.5474480  55.8507600  80.9543405 125.0736131
  55.3346649  80.1701861 124.8866060  56.7347548  80.6262121 125.2382650
  53.5118327  74.6984420 121.0331943  53.3143148  74.3899508 121.9175275
  54.1218032  75.4246059 121.1629873  61.5189661  85.2248368 124.1683884
  62.2493050  84.9633656 124.7291588  60.9096607  84.4877090 124.2085952
  59.6004958  83.3656231 124.7658336  58.8738122  83.2312196 124.1574827
  59.1852245  83.6733059 125.5715054  47.4235135  87.0846160 132.5305709
  48.3438144  87.2624759 132.7245755  47.3884718  86.1402206 132.3785408
  45.7239359  80.9578391 111.0059937  44.8170815  80.6611503 111.0822650
  46.0015340  80.6608209 110.1394223  36.6417300  82.2784754 121.4558983
  36.3220084  81.4250062 121.1633357  36.0950728  82.4933332 122.2116951
  40.4197207  84.9947195 125.1728490  40.6383217  85.9264303 125.1916524
  40.8322981  84.6355169 125.9583294  47.3401425  75.5015280 117.1604178
  46.5302154  75.1562365 117.5359424  48.0285842  75.1922824 117.7491790
  49.2691973  74.5793327 118.7828475  49.8223012  74.9988780 119.4418498
  49.5062060  73.6529075 118.8251431  45.2925073  80.5680401 134.5631239
  45.1921800  81.5174758 134.4943330  45.0746615  80.2398640 133.6907309
  44.4938144  77.8165326 111.1471916  45.3557308  78.1420224 111.4067733
  44.6788488  77.0296822 110.6344982  36.5105560  85.8987665 123.4252105
  35.8169031  85.4841618 122.9122059  37.2578551  85.9408202 122.8285524
  52.6470781  76.6893852 118.2907139  52.0669450  77.3478656 117.9085191
  52.3806713  75.8671197 117.8794557  51.0974347  76.0898910 120.4928459
  51.5974125  76.2015444 119.6842778  51.7409955  75.7859963 121.1329268
  45.1556343  83.9977540 133.3796300  44.6723424  84.7977900 133.5860189
  45.2417282  84.0085484 132.4263744  38.4242302  85.8305919 121.3018120
  38.4012990  85.9293606 120.3500003  38.7342939  86.6771070 121.6235286
  41.0829680  87.8882074 125.4164734  42.0372934  87.8566017 125.3494666
  40.8842204  87.4272698 126.2314960  41.6729062  86.4583190 127.9835532
  42.4921951  86.9527269 128.0070369  41.9465870  85.5415158 127.9553099
  51.4295659  78.8493943 117.3463487  50.5421514  79.1343593 117.1283682
  51.8449648  78.6887706 116.4990764  54.7810195  78.8740464 121.0617827
  55.5570585  79.3636916 121.3342443  54.0558329  79.2998518 121.5189696
  57.2182753  79.5868083 122.1191767  57.8127244  79.3463819 121.4085075
  57.2909337  78.8675213 122.7465303  39.4379909  93.4301694 122.4334932
  39.3034377  92.6702095 121.8672930  39.0211971  94.1542594 121.9663721
  50.5738872  88.6138617 111.4411507  51.2774722  88.8188620 112.0569163
  49.8501521  89.1815379 111.7060591  51.4036682  84.3648479 117.5613777
  51.3471884  84.8217030 116.7221410  51.9565025  83.6039163 117.3836620
  55.2141488  80.1538210 118.3863897  54.9578422  79.7534846 119.2172105
  54.5894356  80.8682004 118.2614036  59.5253826  82.8934284 120.8935188
  58.9653384  82.9627473 121.6666750  58.9197329  82.7175268 120.1734685
  42.5949035  94.3271011 122.6453375  42.4781419  95.2716443 122.5432065
  41.7741481  94.0244572 123.0339174  52.4825569  89.0521146 113.4909967
  53.3171173  88.6202345 113.3087442  52.3209912  88.8803160 114.4186862
  52.1371462  85.5553260 114.8566307  52.0820265  85.3897531 113.9154751
  51.5117517  86.2629293 115.0128496  36.9263977  80.7921324 128.6827729
  37.5722840  80.2820278 129.1714954  36.7181128  81.5290006 129.2571154
  49.4517369  87.8602172 134.1819869  50.3208528  88.0342824 133.8206504
  48.9724120  88.6796588 134.0595599  45.4467587  75.0561369 114.4351625
  45.4346257  76.0003209 114.5919896  46.3391009  74.8731514 114.1411086
  43.6203549  94.9799273 125.8609303  44.5230796  95.0122883 126.1775798
  43.3940919  94.0499724 125.8755639  45.3757151  93.7330259 122.5219382
  44.4252782  93.7332121 122.4083754  45.6789637  92.9862994 122.0055416
  49.2619707  71.6504145 118.6897562  48.4952102  71.0962632 118.8354244
  49.6730412  71.7226014 119.5511713  41.2661468  77.9388941 132.7802743
  42.1292929  77.5825746 132.9906068  40.6926878  77.6002836 133.4678147
  61.1109845  99.5690798 123.5865144  61.7488255  99.4497545 122.8828484
  60.9930687 100.5171642 123.6453096  57.9199551  99.5218226 123.5226669
  57.5818062  99.4059290 122.6347204  58.7889319  99.1209391 123.5027675
  53.7786367 101.3753702 119.5123560  53.2151232 101.2843639 118.7439847
  53.6638762 100.5553607 119.9926052  58.4019334 100.6753077 129.4812874
  58.3907975 100.2805876 128.6093378  58.5639973  99.9419150 130.0746646
  51.3250798 102.8704894 122.3507780  52.1172090 102.5295718 121.9354079
  51.5647449 102.9799869 123.2709933  59.3585925 105.0424670 114.8238025
  58.7073905 105.6278750 114.4372038  60.1530288 105.5730865 114.8833062
  53.2841552 102.1313807 115.2225159  54.0572428 101.5842794 115.0838035
  53.6366951 102.9958056 115.4339620  55.1226595 103.4590189 128.4292058
  54.8316461 104.3635820 128.3138725  55.7583579 103.5006717 129.1436128
  56.0482802 100.8367038 125.0193418  56.6446374 100.6123060 124.3050381
  56.1057773 100.0951783 125.6218866  55.6207830  98.2906473 112.8543609
  55.8733351  97.7687994 112.0927072  54.6832389  98.1272618 112.9570292
  60.6651113  97.2942251 120.6618352  61.4514202  96.8761675 120.3108769
  60.9289817  98.1988344 120.8300000  60.8361190 102.7315102 115.3607009
  60.2007023 102.8049728 116.0727914  60.5058597 103.3208701 114.6826088
  66.0659540  97.2317485 121.5651331  66.7984712  96.6616701 121.7989160
  65.3098896  96.8439085 122.0057836  55.3404119 100.1934579 115.0567984
  55.2240377  99.5179482 115.7249068  55.4506379  99.7066953 114.2400137
  57.6835660  99.6544726 118.7614673  57.3193867  99.1275347 119.4727595
  58.5402776  99.2643195 118.5881158  63.5884961  90.9439059 126.0245939
  63.2568285  91.8134470 125.8007154  62.9930574  90.6275343 126.7039970
  57.3241147  94.6834626 113.7576022  57.4915549  95.5514862 114.1246493
  57.1338316  94.8461907 112.8337311  60.0816480 103.1451605 125.4241852
  59.7817203 104.0476644 125.3157659  59.7367540 102.8783788 126.2763005
  53.5328962  99.5965402 121.4578556  52.6079458  99.4641616 121.6656248
  53.7813375 100.3759621 121.9548499  63.4813624  95.6634145 123.1039289
  62.5730501  95.5949553 122.8098050  63.4301220  96.1406090 123.9321115
  57.3030368  97.1392283 114.7422688  57.1829993  97.5849334 115.5808169
  56.6082956  97.4877601 114.1836227  50.8937773  99.2398675 122.2922345
  51.0230154  99.4933154 123.2061757  50.2135224  99.8326383 121.9727001
  55.0637260 109.9095925 118.3912820  54.9861290 110.8603750 118.4701300
  54.4598903 109.5641798 119.0487746  57.5554490  97.0823790 131.0474187
  56.7787824  97.6417711 131.0377051  58.1945053  97.5680573 131.5689057
  65.3475270  93.8650583 124.8817163  64.7049650  94.1583116 124.2356958
  64.8430199  93.7503504 125.6870360  63.0015434  97.6113756 115.5703022
  63.9133290  97.8441143 115.3950720  62.4925081  98.1950801 115.0078101
  55.8100862  99.8909244 130.6092154  56.5515546 100.4294288 130.3326977
  55.1037847 100.5175533 130.7663705  61.2856202 102.0338384 129.2064315
  61.6939558 101.5920795 128.4618947  60.5633463 101.4591012 129.4598508
  57.6387272  96.9710991 126.5797872  58.4848467  97.3950405 126.7232521
  57.5785909  96.3144615 127.2736435  61.6085016 102.5939575 122.9616604
  60.9793879 102.7585289 122.2592672  61.2210678 103.0081184 123.7327568
  65.4874248 103.5294013 120.3160968  64.8025286 103.9092914 119.7658001
  65.5718097 104.1389339 121.0492915  60.7886717  94.6315359 128.2379046
  60.5447649  95.3857420 127.7013321  61.0646647  95.0100707 129.0726293
  62.7425180 101.1753972 126.9156311  62.9542075 101.8185732 126.2390692
  62.6954928 100.3416288 126.4478241  60.3451409  93.7871792 123.8192883
  59.4835888  94.0853046 124.1109621  60.3713843  94.0042191 122.8873916
  57.1612978 102.3313983 120.2266689  57.6251324 102.6101686 119.4371312
  56.8969776 101.4297428 120.0439780  54.0537059 101.8785465 123.1646452
  54.6238416 102.3072733 122.5263937  54.6445171 101.5968049 123.8630638
  56.0981864  98.4537135 117.0356254  56.8005907  98.9058179 117.5030181
  55.7662493  97.8120954 117.6636147  54.5462226  97.0448892 131.4107464
  53.9160886  97.7265173 131.6442860  54.4398314  96.9331974 130.4660602
  49.8407198  96.7120688 122.3373388  49.0506252  96.9678217 121.8613498
  50.3318445  97.5269026 122.4425428  63.8571008 104.0525927 125.0878669
  64.6788451 103.6506114 124.8061350  63.8533411 103.9494161 126.0394784
  51.7921943  97.0765267 119.2956864  50.9953107  97.1883962 119.8140360
  51.5647536  97.4151920 118.4297755  57.6227611 103.6009971 127.2439379
  57.6872044 104.0630378 128.0797551  56.9138535 102.9707335 127.3721689
  48.1244901  96.9651178 124.7688379  48.3752940  97.8498188 125.0345954
  48.6604449  96.7855780 123.9963470  71.9477001 100.3964676 121.4363640
  71.1940709  99.8272074 121.2807644  72.0824542 100.3627340 122.3834275
  57.3375629 105.2678078 117.1118359  57.2021304 106.1129614 117.5403207
  57.8785441 105.4697356 116.3484293  53.8242968  91.3469658 133.7732715
  53.4309914  90.7935856 134.4480359  54.6409109  91.6580236 134.1639232
  50.7905026 102.7853516 117.6846284  51.3029547 103.5796766 117.8351849
  51.4427739 102.0879806 117.6179886  52.5999911 105.9019272 119.7669038
  52.7766539 106.8237237 119.5790022  53.3956744 105.5877692 120.1963417
  56.7410929  92.7627537 131.3652971  57.4820643  93.3634690 131.2857434
  56.9728852  92.0205175 130.8071014  51.8852267  97.9483904 129.6431201
  51.7705783  97.0469161 129.9438300  51.0296785  98.1947601 129.2916017
  58.9644105 105.8901645 131.2418701  58.5207959 105.1038023 130.9239606
  59.6261319 106.0780795 130.5762592  53.7231226 107.4197446 125.7679380
  54.2738651 107.2914509 124.9956374  52.8842702 107.7192335 125.4174273
  61.0625343 106.1704444 129.2700103  61.0443819 106.9913325 128.7780372
  61.9845263 106.0458520 129.4950244  57.5198397 103.6848574 130.1123611
  58.0526734 102.9236862 129.8822919  56.9912478 103.3922226 130.8547766
  60.6868092  88.7908640 125.6417253  60.3432362  89.6810282 125.5656363
  61.0547055  88.6010298 124.7786838  48.7553943 101.1142170 118.4605855
  49.5929165 101.5239179 118.2439563  48.9332211 100.1741613 118.4306049
  60.6518375  98.7817251 114.1489688  60.1364998  99.5521856 114.3878075
  60.3795684  98.1082387 114.7722749  58.2365486  93.6266952 119.2074926
  57.3807082  93.2373802 119.0280565  58.6492438  93.7058913 118.3474712
  59.7664633  91.1613295 123.6066486  59.2629428  91.1243430 122.7934291
  60.0595240  92.0706038 123.6663143  56.0107519  91.2452025 122.6132668
  56.8760515  91.0494833 122.2538557  56.0785028  91.0162377 123.5402025
  65.6252649 101.5349606 116.0842861  64.8482092 101.1960765 115.6398024
  66.3044130 101.5402229 115.4097826  60.4404678  96.6544343 115.9749469
  60.1354814  96.9690492 116.8259612  61.3935120  96.7325763 116.0176802
  58.8851110 102.8134566 117.6242423  58.3572472 102.0787326 117.3115661
  58.3838613 103.5909243 117.3782391  63.8643956 101.0083587 122.7409469
  63.2067631 101.6982848 122.8289598  64.6684355 101.3980019 123.0843456
  53.6169838  93.4754233 119.9849035  54.1913590  93.2529414 119.2522228
  54.2040820  93.5442927 120.7377636  62.6749415  99.3627960 120.7913411
  63.1881297  99.9957951 121.2935121  63.3250639  98.7629155 120.4256771
  53.9439425  95.5058694 114.0044920  53.1076737  95.8433380 114.3254195
  53.8044194  95.3707674 113.0672057  55.9192505  90.3495482 118.7124104
  55.2656918  90.0344499 118.0880719  55.8772980  89.7271222 119.4383927
  57.0303710 100.6314777 110.6277396  56.1230772 100.4004030 110.8268545
  57.5274742  99.8352396 110.8151378  59.9371789 109.3412284 113.5474082
  59.2633488 109.6443981 114.1559040  60.3237611 110.1441364 113.1979539
  59.1530246  96.8377415 123.0371752  58.2352807  97.0592362 122.8793440
  59.5690389  96.9123726 122.1783459  59.9365294  98.2368831 118.1674432
  60.6837112  98.7490228 117.8581554  60.2056883  97.9152884 119.0278826
  58.2091944 100.7327372 115.1501386  57.3003163 100.4486404 115.2473856
  58.2387028 101.1526450 114.2904693  63.4411211 104.3433961 118.9192554
  62.9873538 103.5024871 118.9757744  62.8105178 104.9795359 119.2567334
  62.3844131  95.2725947 120.1493221  61.6466887  94.7603333 120.4803464
  62.6370904  94.8326329 119.3376498  61.8844150 106.1810458 119.8542372
  62.1767125 106.7415515 119.1354738  62.3942771 106.4739019 120.6095531
  62.4855758  88.0502199 120.7434991  62.7914635  87.1899563 120.4560906
  63.2108363  88.6419819 120.5433984  48.7780114  98.4532886 119.1316588
  48.5804514  97.8602246 118.4067655  48.2226778  98.1485096 119.8492527
  56.7576838  98.3455992 121.2511182  56.8125448  97.3929829 121.1753658
  55.9468040  98.5015431 121.7352480  57.9068031 102.2736115 112.4889465
  57.4687461 101.5571974 112.0295102  58.6478472 102.5012230 111.9274556
  54.6969198  96.9633052 119.0101560  53.8837063  97.2627222 119.4166753
  55.1928192  96.5688741 119.7276043  56.8477776 106.9590809 120.9435825
  56.8053954 107.1851655 120.0144357  57.7640474 106.7254183 121.0921626
  60.2943409  97.4274876 127.8416454  60.6492797  97.6546349 128.7010920
  60.9415541  97.7593253 127.2193710  66.0241146 100.5493312 118.5465783
  65.8859045 100.7394908 117.6186973  65.6677365 101.3112695 119.0033835
  54.1883272  94.5351407 124.6262795  54.8282652  94.3940167 123.9285759
  53.3560803  94.2485921 124.2501397  66.0510526 102.6169839 123.5577055
  66.4847033 102.5245128 124.4060109  66.7642107 102.5927340 122.9197071
  54.9643576 103.8353838 120.7397788  55.7584175 103.3404158 120.5380363
  54.2535269 103.3071701 120.3765493  59.7838421 106.2171933 125.0910155
  59.8375443 106.7862870 125.8587871  58.9153202 106.3873818 124.7264193
  51.2726340  97.9796920 116.8157541  50.3423928  97.9181375 117.0327503
  51.3683812  97.4572872 116.0194182  51.1911889  94.5051732 119.4035782
  51.4518706  95.4197066 119.2944943  52.0129061  94.0376175 119.5532395
  52.6636814  95.9189490 126.5734607  53.3359868  95.7106852 125.9247256
  51.8366601  95.7211576 126.1339839  66.9126075 102.6593540 126.0909940
  67.1061966 103.5639350 126.3369215  66.8126694 102.2000959 126.9248525
  58.5662386  92.5451430 128.5900268  57.9190301  93.2441380 128.4964744
  59.3363402  92.9787574 128.9576516  61.9741184 102.8100283 131.6650821
  61.8226691 102.5810834 130.7480905  61.9645864 103.7670884 131.6782166
  58.7426521 100.3832195 126.6497087  59.6718581 100.5343355 126.4766055
  58.3217551 100.4716216 125.7945734  57.5414852 104.4082860 124.4195625
  57.4025938 104.0401644 125.2921563  56.7529449 104.9230499 124.2479583
  58.1363004 109.5091956 115.7621161  58.3114760 109.0379999 116.5766784
  57.4495792 110.1357722 115.9902422  59.0920067 103.7864463 121.8084463
  58.7569900 103.7465232 122.7042113  58.5924013 103.1209178 121.3354873
  53.0664311  99.1932093 127.3337044  52.9284109  98.4612331 127.9348583
  53.9769235  99.1040993 127.0521232  62.0279259 101.1320497 112.0821522
  61.4108430 100.4067325 111.9854575  61.5595748 101.8929857 111.7388597
  55.6946612  98.9052052 126.8220724  56.4046231  98.2645244 126.7807342
  55.6515920  99.1564947 127.7446904  63.6833391 105.8419405 129.7427303
  63.6245937 105.1578625 129.0757886  64.0852909 106.5838395 129.2907929
  54.4075546  95.8917270 128.6416363  53.8712903  95.4408008 129.2937959
  53.8192255  96.0263179 127.8986827  52.7024090 112.6581319 122.5361022
  52.9420688 113.2899843 123.2140040  51.8593286 112.3069359 122.8226381
  53.8177805  95.3505921 111.2042827  52.9407271  95.2294722 110.8405073
  54.2935558  94.5591999 110.9521715  63.6850798 103.8058989 127.9741282
  62.7977577 103.4684911 128.0967681  64.2549349 103.0742020 128.2110048
  45.3379945 100.1383081 121.2984334  46.0250985  99.8244811 120.7105349
  45.1828074 101.0424446 121.0251585  50.1414667  95.0273277 125.7269358
  50.0572856  94.4198947 124.9919767  49.3197374  95.5182296 125.7278854
  57.2151951 108.4660441 124.9402526  57.1422123 109.2715413 125.4521830
  56.7729345 108.6652407 124.1150547  57.0041731 107.7032212 118.4505347
  56.2209253 108.2453892 118.5443572  57.7034476 108.2206191 118.8499588
  60.3138381  93.5126841 121.0939553  60.8107081  92.7596803 120.7740623
  59.5425363  93.5491158 120.5282762  68.1668139  99.2167207 122.7357844
  68.1558015 100.0991922 122.3651777  67.2985518  98.8638757 122.5412381
  59.6750635 108.3647276 127.0960684  60.3878607 108.9994740 127.0236586
  59.1840664 108.4611142 126.2800686  61.3968162 102.2698528 118.6677976
  60.4624441 102.3899991 118.4982680  61.5744830 101.3670995 118.4037986
  56.8973350  95.6544224 120.8211237  56.5271137  95.1015264 121.5092143
  57.3932442  95.0502357 120.2686237  64.7840713  98.1115847 119.2028010
  65.2501165  98.9443839 119.1288313  65.2348214  97.6460829 119.9073269
  54.7262548 106.1141719 127.9166255  55.4272008 106.7478202 128.0695649
  54.2557663 106.4556451 127.1561894  62.8516944 104.4559669 116.2014162
  63.1276788 104.3416263 117.1108036  61.9821443 104.0577154 116.1626335
  62.7557376  90.4796434 123.2418911  61.8420456  90.7100661 123.4101118
  63.1850477  90.5634879 124.0932944  62.5263834  98.6686326 125.7418805
  61.8735285  98.9162234 125.0871258  62.9044214  97.8550465 125.4081283
  59.4871008 108.7046020 119.8446976  59.6693403 107.8867676 120.3074728
  60.3103994 108.9213712 119.4071866  59.8213174 107.6314205 117.1062024
  60.3500940 107.1206659 116.4932186  60.0841393 107.3156735 117.9707557
  58.5751407  99.4106137 132.2284843  57.8992044  99.3100267 132.8987218
  59.3979041  99.2545351 132.6920840  50.3230267 105.6478074 124.8497358
  50.9083703 104.9021762 124.9825262  50.1255105 105.9582031 125.7334022
  53.1768922 108.6829321 119.8659800  52.5079297 109.1675449 119.3823840
  53.0381791 108.9298542 120.7803179  44.9147921  98.2183674 123.5701801
  44.9532021  97.6847265 124.3638919  44.4088214  97.6918880 122.9512778
  57.3174190 110.7173065 126.4642459  57.8692498 110.8804686 127.2291544
  57.6580384 111.3077503 125.7922483  52.2938684  93.0648215 127.0664343
  52.3580010  93.9263046 126.6541741  52.2305804  92.4522216 126.3336702
  51.7690956  95.1371347 130.7137378  52.3962995  94.7548425 131.3274902
  50.9118875  94.9185549 131.0793070  62.1685065 105.5434322 132.3191113
  62.7124969 106.1564281 131.8246068  61.5871910 106.1013901 132.8358126
  48.5456499  96.9447776 116.6455732  48.8409940  96.0358455 116.5922786
  47.6444535  96.9235516 116.3236735  60.4542578 108.6655040 123.4506141
  60.3293717 107.8644780 122.9417086  61.1121669 109.1601234 122.9620111
  52.0750746  95.0203773 122.6283281  51.3537332  95.6339741 122.4890754
  52.8644002  95.5561538 122.5499927  62.5177486 106.4664061 125.0785691
  61.5707822 106.3469412 125.0064018  62.8660259 105.5786559 125.1611952
  54.8777059  92.3558199 128.9023933  55.4011461  92.6020496 129.6650242
  54.6589393  93.1878234 128.4827070  50.2744340  94.6261874 116.7695057
  49.9457047  93.7459253 116.5870163  50.6283711  94.5709543 117.6571447
  59.5223919 106.2616777 121.2790043  59.3748882 105.3333484 121.4597613
  60.3477413 106.2836867 120.7947118  53.3886164  94.9134844 117.1370535
  53.7282236  95.4420765 116.4149144  53.8358284  95.2515250 117.9129102
  63.1258041 107.0845335 122.3654916  64.0504589 106.8788197 122.2279367
  62.9573345 106.8361737 123.2744257  56.0829604  93.2971895 126.5873603
  55.7426425  92.4979708 126.9894283  55.3768611  93.5973605 126.0150436
  56.7346076  90.3821207 125.0400926  57.5572146  89.9081685 124.9179817
  56.9784140  91.1611691 125.5399613  55.3754311  93.4109465 115.3363828
  56.0962673  93.7890718 114.8327545  54.7519615  94.1298342 115.4398806
  59.5185434  94.1154614 116.2722160  59.7349048  94.9979252 115.9710988
  59.0379501  93.7240828 115.5427802  54.2584655  97.0740328 122.8492905
  54.1129236  97.3880631 123.7417186  53.7809859  97.6925228 122.2963804
  56.1181038  94.0642876 122.8973794  56.1042607  93.1683969 122.5606092
  56.8353466  94.0713539 123.5312080  57.9707169  94.4980216 124.9426922
  57.7124946  95.4197286 124.9411252  57.4392209  94.1010650 125.6327386
  62.9153357 107.6031003 117.7217007  63.0890235 107.0377425 116.9690860
  63.4082249 108.4031898 117.5396497  48.7330317  99.6145672 125.7880566
  48.1883785 100.3905480 125.9200840  49.6109667  99.9616477 125.6299687
  55.5217934  92.9457256 118.1661365  55.6433845  92.0173902 118.3652252
  55.2319976  92.9595942 117.2539680  58.3909124  90.6312166 121.3028084
  58.4130821  90.6951499 120.3480064  58.8077183  89.7916675 121.4968591
  68.7692749 100.3667426 119.3407307  69.2123895  99.6174751 118.9426430
  67.8919259 100.3577562 118.9581039  63.9028530 106.9197767 114.8213906
  64.5979434 107.5404460 115.0401220  64.2451680 106.0693119 115.0966283
  49.5196339  98.7415568 128.6810723  48.7778075  98.8898204 129.2675353
  49.1989083  99.0023834 127.8177472  65.8019953 104.3697473 116.3501236
  66.3271277 104.7084746 115.6250556  65.7142306 103.4344488 116.1664371
  57.4640002 108.2831547 128.4791113  57.7727128 108.0380693 129.3513813
  58.2615484 108.4878185 127.9909983  57.4860614 110.4369456 120.7096489
  57.0465604 109.9445835 121.4029346  58.2368731 109.8942424 120.4688565
  49.9652953 106.6280997 120.7121118  50.7910973 106.3284769 120.3319761
  49.6147005 105.8588619 121.1610906  54.9334486 105.9807465 122.7818791
  54.3114495 105.3178170 122.4821019  55.6039353 106.0068597 122.0992439
  48.1661558 104.5467323 121.6710051  47.3293466 104.1189498 121.4894052
  48.1385203 104.7399767 122.6080842  55.0059013  94.4589253 132.3751297
  55.0547169  95.3351376 131.9929067  55.5481528  93.9166646 131.8022940
  65.4913859 105.0030377 131.6552434  64.7009403 104.9854515 131.1156934
  65.2547214 105.5418670 132.4101471  65.6111734 101.8522843 128.9685163
  65.6609739 101.6872850 129.9100686  65.5025657 100.9850102 128.5783044
  54.4947993 104.5311389 116.2577252  54.6436113 105.2146853 115.6043924
  55.3014436 104.5116479 116.7726707  62.9015496  97.8353771 130.2844469
  63.8025359  97.6960236 129.9928467  62.9763471  98.0008226 131.2242647
  57.2358302  95.2120626 129.1297656  56.3661611  95.5054192 128.8580244
  57.4717782  95.7961071 129.8504919  67.1129931 104.2719784 129.2127184
  66.8214739 104.6349765 130.0490645  66.5002062 103.5586793 129.0340516
  68.3125613 101.8372664 121.7329755  69.1472505 102.2762468 121.8967315
  68.4484742 101.3611317 120.9138000  65.3617119  99.3952399 127.6807242
  65.8371241  99.5880045 126.8726094  64.4382685  99.4511585 127.4350626
  52.2500626 100.5576566 117.2638321  52.0046668  99.6538896 117.4618531
  52.4196540 100.5593717 116.3217799  59.9397336  91.4300243 126.6463076
  60.4579280  92.1661270 126.3209565  59.5852468  91.7364236 127.4809835
  51.5196273  96.2904924 114.7624482  50.8265518  96.3649279 114.1064518
  51.2748025  95.5265267 115.2845999  60.1909930  87.8500525 122.1663973
  60.4711684  87.1823714 122.7924399  60.9760537  88.0429621 121.6538637
  57.9943398 107.0259519 113.7288999  57.4217365 107.6449706 113.2759471
  58.5676192 107.5758881 114.2628921  64.0618788  96.2718159 125.9135548
  65.0136211  96.3716257 125.9347772  63.8922239  95.4796428 126.4233632
  62.0833168  93.3573742 126.0994949  61.4883100  93.6378755 125.4041437
  61.7982864  93.8467643 126.8711690  61.2140658 107.3096669 114.8597581
  62.1471331 107.2442231 115.0630457  61.1263871 108.1452936 114.4012114
  63.8428675 106.6262540 111.8201529  63.7642306 106.2922403 112.7137287
  64.6638342 107.1184307 111.8193001  66.5406866  99.4924279 125.0277848
  66.5083186  98.5540280 125.2137531  67.1507490  99.5708316 124.2943672
  58.3790197  98.3620332 111.0705052  59.3249302  98.2326540 111.1393470
  58.0004442  97.6234994 111.5474480  66.6901354  96.2835322 125.0736131
  66.1740403  95.4993779 124.8866060  67.5741303  95.9554039 125.2382650
  64.3512081  90.0276338 121.0331943  64.1536902  89.7191426 121.9175275
  64.9611787  90.7537977 121.1629873  72.3583416 100.5540286 124.1683884
  73.0886804 100.2925574 124.7291588  71.7490361  99.8169008 124.2085952
  70.4398713  98.6948148 124.7658336  69.7131877  98.5604113 124.1574827
  70.0246000  99.0024977 125.5715054  58.2628889 102.4138078 132.5305709
  59.1831899 102.5916677 132.7245755  58.2278472 101.4694123 132.3785408
  56.5633114  96.2870308 111.0059937  55.6564569  95.9903421 111.0822650
  56.8409095  95.9900126 110.1394223  47.4811054  97.6076672 121.4558983
  47.1613839  96.7541980 121.1633357  46.9344483  97.8225250 122.2116951
  51.2590962 100.3239113 125.1728490  51.4776972 101.2556220 125.1916524
  51.6716736  99.9647087 125.9583294  58.1795180  90.8307198 117.1604178
  57.3695908  90.4854283 117.5359424  58.8679597  90.5214742 117.7491790
  60.1085728  89.9085245 118.7828475  60.6616767  90.3280698 119.4418498
  60.3455814  88.9820993 118.8251431  56.1318827  95.8972318 134.5631239
  56.0315554  96.8466675 134.4943330  55.9140369  95.5690557 133.6907309
  55.3331899  93.1457243 111.1471916  56.1951063  93.4712142 111.4067733
  55.5182243  92.3588739 110.6344982  47.3499314 101.2279583 123.4252105
  46.6562786 100.8133536 122.9122059  48.0972305 101.2700120 122.8285524
  63.4864535  92.0185770 118.2907139  62.9063204  92.6770574 117.9085191
  63.2200468  91.1963114 117.8794557  61.9368101  91.4190828 120.4928459
  62.4367880  91.5307362 119.6842778  62.5803709  91.1151880 121.1329268
  55.9950097  99.3269457 133.3796300  55.5117179 100.1269817 133.5860189
  56.0811036  99.3377402 132.4263744  49.2636057 101.1597837 121.3018120
  49.2406745 101.2585524 120.3500003  49.5736693 102.0062988 121.6235286
  51.9223435 103.2173992 125.4164734  52.8766688 103.1857934 125.3494666
  51.7235958 102.7564616 126.2314960  52.5122817 101.7875108 127.9835532
  53.3315706 102.2819187 128.0070369  52.7859625 100.8707076 127.9553099
  62.2689413  94.1785860 117.3463487  61.3815268  94.4635511 117.1283682
  62.6843402  94.0179624 116.4990764  65.6203949  94.2032381 121.0617827
  66.3964339  94.6928834 121.3342443  64.8952083  94.6290435 121.5189696
  68.0576508  94.9160000 122.1191767  68.6520999  94.6755736 121.4085075
  68.1303092  94.1967131 122.7465303  50.2773664 108.7593611 122.4334932
  50.1428131 107.9994012 121.8672930  49.8605726 109.4834511 121.9663721
  61.4132627 103.9430535 111.4411507  62.1168477 104.1480537 112.0569163
  60.6895275 104.5107297 111.7060591  62.2430437  99.6940396 117.5613777
  62.1865638 100.1508948 116.7221410  62.7958779  98.9331081 117.3836620
  66.0535243  95.4830128 118.3863897  65.7972177  95.0826764 119.2172105
  65.4288111  96.1973922 118.2614036  70.3647581  98.2226201 120.8935188
  69.8047139  98.2919391 121.6666750  69.7591084  98.0467186 120.1734685
  53.4342789 109.6562928 122.6453375  53.3175174 110.6008361 122.5432065
  52.6135236 109.3536490 123.0339174  63.3219324 104.3813064 113.4909967
  64.1564928 103.9494263 113.3087442  63.1603667 104.2095078 114.4186862
  62.9765216 100.8845177 114.8566307  62.9214020 100.7189449 113.9154751
  62.3511271 101.5921210 115.0128496  47.7657731  96.1213242 128.6827729
  48.4116595  95.6112196 129.1714954  47.5574882  96.8581923 129.2571154
  60.2911123 103.1894089 134.1819869  61.1602283 103.3634742 133.8206504
  59.8117875 104.0088506 134.0595599  56.2861342  90.3853286 114.4351625
  56.2740011  91.3295126 114.5919896  57.1784763  90.2023432 114.1411086
  54.4597304 110.3091190 125.8609303  55.3624550 110.3414801 126.1775798
  54.2334674 109.3791641 125.8755639  56.2150906 109.0622177 122.5219382
  55.2646537 109.0624038 122.4083754  56.5183392 108.3154911 122.0055416
  60.1013461  86.9796063 118.6897562  59.3345857  86.4254550 118.8354244
  60.5124166  87.0517932 119.5511713  52.1055222  93.2680859 132.7802743
  52.9686684  92.9117664 132.9906068  51.5320633  92.9294754 133.4678147
  71.9503599 114.8982715 123.5865144  72.5882009 114.7789463 122.8828484
  71.8324442 115.8463559 123.6453096  68.7593305 114.8510143 123.5226669
  68.4211817 114.7351208 122.6347204  69.6283074 114.4501308 123.5027675
  64.6180121 116.7045620 119.5123560  64.0544986 116.6135557 118.7439847
  64.5032516 115.8845524 119.9926052  62.1644553 118.1996811 122.3507780
  62.9565845 117.8587636 121.9354079  62.4041203 118.3091786 123.2709933
  70.1979680 120.3716587 114.8238025  69.5467660 120.9570668 114.4372038
  70.9924043 120.9022782 114.8833062  64.1235307 117.4605725 115.2225159
  64.8966183 116.9134712 115.0838035  64.4760706 118.3249974 115.4339620
  66.8876556 116.1658955 125.0193418  67.4840129 115.9414978 124.3050381
  66.9451528 115.4243701 125.6218866  66.4601585 113.6198391 112.8543609
  66.7127105 113.0979912 112.0927072  65.5226144 113.4564536 112.9570292
  71.5044868 112.6234169 120.6618352  72.2907957 112.2053592 120.3108769
  71.7683572 113.5280261 120.8300000  71.6754945 118.0607019 115.3607009
  71.0400778 118.1341646 116.0727914  71.3452351 118.6500618 114.6826088
  76.9053295 112.5609402 121.5651331  77.6378467 111.9908619 121.7989160
  76.1492650 112.1731003 122.0057836  66.1797873 115.5226497 115.0567984
  66.0634132 114.8471400 115.7249068  66.2900133 115.0358871 114.2400137
  68.5229414 114.9836644 118.7614673  68.1587622 114.4567265 119.4727595
  69.3796530 114.5935113 118.5881158  74.4278715 106.2730976 126.0245939
  74.0962040 107.1426387 125.8007154  73.8324328 105.9567260 126.7039970
  68.1634901 110.0126543 113.7576022  68.3309304 110.8806780 114.1246493
  67.9732070 110.1753825 112.8337311  64.3722716 114.9257319 121.4578556
  63.4473212 114.7933533 121.6656248  64.6207129 115.7051538 121.9548499
  74.3207378 110.9926063 123.1039289  73.4124256 110.9241471 122.8098050
  74.2694974 111.4698007 123.9321115  68.1424122 112.4684201 114.7422688
  68.0223747 112.9141252 115.5808169  67.4476711 112.8169519 114.1836227
  61.7331527 114.5690593 122.2922345  61.8623908 114.8225072 123.2061757
  61.0528978 115.1618301 121.9727001  65.9031014 125.2387843 118.3912820
  65.8255044 126.1895668 118.4701300  65.2992658 124.8933715 119.0487746
  76.1869025 109.1942501 124.8817163  75.5443405 109.4875034 124.2356958
  75.6823953 109.0795421 125.6870360  73.8409188 112.9405674 115.5703022
  74.7527045 113.1733061 115.3950720  73.3318835 113.5242718 115.0078101
  68.4781026 112.3002909 126.5797872  69.3242221 112.7242322 126.7232521
  68.4179664 111.6436533 127.2736435  71.1845163 109.1163710 123.8192883
  70.3229642 109.4144964 124.1109621  71.2107598 109.3334109 122.8873916
  68.0006733 117.6605901 120.2266689  68.4645078 117.9393604 119.4371312
  67.7363531 116.7589345 120.0439780  64.8930814 117.2077382 123.1646452
  65.4632171 117.6364651 122.5263937  65.4838925 116.9259967 123.8630638
  66.9375619 113.7829053 117.0356254  67.6399662 114.2350097 117.5030181
  66.6056247 113.1412872 117.6636147  60.6800953 112.0412606 122.3373388
  59.8900007 112.2970134 121.8613498  61.1712200 112.8560944 122.4425428
  62.6315698 112.4057185 119.2956864  61.8346861 112.5175879 119.8140360
  62.4041290 112.7443837 118.4297755  58.9638656 112.2943096 124.7688379
  59.2146694 113.1790106 125.0345954  59.4998204 112.1147698 123.9963470
  68.1769383 120.5969996 117.1118359  68.0415058 121.4421531 117.5403207
  68.7179196 120.7989273 116.3484293  61.6298781 118.1145434 117.6846284
  62.1423301 118.9088684 117.8351849  62.2821493 117.4171724 117.6179886
  63.4393665 121.2311190 119.7669038  63.6160294 122.1529155 119.5790022
  64.2350499 120.9169609 120.1963417  62.7246022 113.2775822 129.6431201
  62.6099537 112.3761079 129.9438300  61.8690540 113.5239519 129.2916017
  71.5261847 104.1200558 125.6417253  71.1826116 105.0102199 125.5656363
  71.8940809 103.9302215 124.7786838  59.5947697 116.4434088 118.4605855
  60.4322919 116.8531096 118.2439563  59.7725965 115.5033530 118.4306049
  71.4912130 114.1109169 114.1489688  70.9758753 114.8813773 114.3878075
  71.2189438 113.4374305 114.7722749  69.0759241 108.9558869 119.2074926
  68.2200837 108.5665720 119.0280565  69.4886192 109.0350830 118.3474712
  70.6058387 106.4905213 123.6066486  70.1023183 106.4535348 122.7934291
  70.8988994 107.3997955 123.6663143  66.8501273 106.5743942 122.6132668
  67.7154270 106.3786751 122.2538557  66.9178782 106.3454294 123.5402025
  76.4646404 116.8641523 116.0842861  75.6875846 116.5252683 115.6398024
  77.1437885 116.8694146 115.4097826  71.2798433 111.9836261 115.9749469
  70.9748568 112.2982410 116.8259612  72.2328875 112.0617681 116.0176802
  69.7244865 118.1426484 117.6242423  69.1966226 117.4079244 117.3115661
  69.2232367 118.9201160 117.3782391  64.4563592 108.8046150 119.9849035
  65.0307344 108.5821332 119.2522228  65.0434575 108.8734845 120.7377636
  73.5143169 114.6919877 120.7913411  74.0275051 115.3249869 121.2935121
  74.1644393 114.0921073 120.4256771  64.7833179 110.8350611 114.0044920
  63.9470492 111.1725298 114.3254195  64.6437949 110.6999591 113.0672057
  66.7586260 105.6787399 118.7124104  66.1050672 105.3636416 118.0880719
  66.7166734 105.0563140 119.4383927  67.8697465 115.9606694 110.6277396
  66.9624526 115.7295948 110.8268545  68.3668497 115.1644314 110.8151378
  70.7765544 124.6704202 113.5474082  70.1027242 124.9735898 114.1559040
  71.1631366 125.4733282 113.1979539  69.9924000 112.1669333 123.0371752
  69.0746562 112.3884280 122.8793440  70.4084144 112.2415643 122.1783459
  70.7759048 113.5660748 118.1674432  71.5230867 114.0782146 117.8581554
  71.0450638 113.2444801 119.0278826  69.0485698 116.0619289 115.1501386
  68.1396917 115.7778322 115.2473856  69.0780782 116.4818368 114.2904693
  74.2804966 119.6725879 118.9192554  73.8267293 118.8316789 118.9757744
  73.6498932 120.3087277 119.2567334  73.2237885 110.6017865 120.1493221
  72.4860642 110.0895251 120.4803464  73.4764659 110.1618246 119.3376498
  72.7237905 121.5102375 119.8542372  73.0160879 122.0707433 119.1354738
  73.2336525 121.8030936 120.6095531  73.3249512 103.3794117 120.7434991
  73.6308389 102.5191480 120.4560906  74.0502117 103.9711737 120.5433984
  59.6173869 113.7824803 119.1316588  59.4198268 113.1894164 118.4067655
  59.0620533 113.4777014 119.8492527  67.5970592 113.6747910 121.2511182
  67.6519202 112.7221746 121.1753658  66.7861794 113.8307349 121.7352480
  68.7461786 117.6028033 112.4889465  68.3081216 116.8863892 112.0295102
  69.4872227 117.8304148 111.9274556  65.5362952 112.2924970 119.0101560
  64.7230818 112.5919140 119.4166753  66.0321946 111.8980658 119.7276043
  67.6871530 122.2882726 120.9435825  67.6447709 122.5143573 120.0144357
  68.6034229 122.0546101 121.0921626  76.8634901 115.8785230 118.5465783
  76.7252799 116.0686826 117.6186973  76.5071120 116.6404613 119.0033835
  65.0277027 109.8643325 124.6262795  65.6676406 109.7232084 123.9285759
  64.1954557 109.5777838 124.2501397  65.8037331 119.1645756 120.7397788
  66.5977929 118.6696076 120.5380363  65.0929023 118.6363619 120.3765493
  62.1120094 113.3088837 116.8157541  61.1817682 113.2473293 117.0327503
  62.2077566 112.7864790 116.0194182  62.0305643 109.8343650 119.4035782
  62.2912461 110.7488983 119.2944943  62.8522816 109.3668093 119.5532395
  63.5030569 111.2481407 126.5734607  64.1753622 111.0398769 125.9247256
  62.6760355 111.0503493 126.1339839  69.4056141 107.8743348 128.5900268
  68.7584056 108.5733298 128.4964744  70.1757156 108.3079492 128.9576516
  68.9756759 124.8383874 115.7621161  69.1508514 124.3671917 116.5766784
  68.2889547 125.4649640 115.9902422  69.9313822 119.1156380 121.8084463
  69.5963655 119.0757150 122.7042113  69.4317768 118.4501096 121.3354873
  63.9058066 114.5224010 127.3337044  63.7677864 113.7904249 127.9348583
  64.8162989 114.4332910 127.0521232  72.8673014 116.4612415 112.0821522
  72.2502184 115.7359243 111.9854575  72.3989502 117.2221775 111.7388597
  66.5340367 114.2343970 126.8220724  67.2439985 113.5937162 126.7807342
  66.4909675 114.4856864 127.7446904  65.2469301 111.2209187 128.6416363
  64.7106658 110.7699926 129.2937959  64.6586009 111.3555096 127.8986827
  64.6571560 110.6797839 111.2042827  63.7801026 110.5586640 110.8405073
  65.1329313 109.8883917 110.9521715  56.1773700 115.4674999 121.2984334
  56.8644739 115.1536729 120.7105349  56.0221828 116.3716363 121.0251585
  60.9808422 110.3565195 125.7269358  60.8966611 109.7490865 124.9919767
  60.1591128 110.8474213 125.7278854  67.8435486 123.0324129 118.4505347
  67.0603007 123.5745809 118.5443572  68.5428231 123.5498109 118.8499588
  71.1532136 108.8418759 121.0939553  71.6500835 108.0888721 120.7740623
  70.3819117 108.8783075 120.5282762  72.2361916 117.5990446 118.6677976
  71.3018195 117.7191908 118.4982680  72.4138585 116.6962913 118.4037986
  67.7367104 110.9836142 120.8211237  67.3664892 110.4307182 121.5092143
  68.2326197 110.3794275 120.2686237  75.6234468 113.4407765 119.2028010
  76.0894920 114.2735757 119.1288313  76.0741968 112.9752747 119.9073269
  73.6910699 119.7851586 116.2014162  73.9670543 119.6708181 117.1108036
  72.8215198 119.3869071 116.1626335  73.5951130 105.8088352 123.2418911
  72.6814210 106.0392579 123.4101118  74.0244232 105.8926796 124.0932944
  70.3264763 124.0337937 119.8446976  70.5087157 123.2159593 120.3074728
  71.1497749 124.2505630 119.4071866  70.6606928 122.9606122 117.1062024
  71.1894695 122.4498577 116.4932186  70.9235148 122.6448653 117.9707557
  61.1624021 120.9769992 124.8497358  61.7477458 120.2313680 124.9825262
  60.9648859 121.2873948 125.7334022  64.0162676 124.0121239 119.8659800
  63.3473052 124.4967367 119.3823840  63.8775546 124.2590460 120.7803179
  55.7541676 113.5475592 123.5701801  55.7925775 113.0139183 124.3638919
  55.2481969 113.0210797 122.9512778  63.1332438 108.3940132 127.0664343
  63.1973765 109.2554963 126.6541741  63.0699558 107.7814134 126.3336702
  62.6084711 110.4663265 130.7137378  63.2356749 110.0840342 131.3274902
  61.7512629 110.2477467 131.0793070  59.3850253 112.2739694 116.6455732
  59.6803694 111.3650372 116.5922786  58.4838289 112.2527434 116.3236735
  62.9144500 110.3495691 122.6283281  62.1931086 110.9631658 122.4890754
  63.7037756 110.8853455 122.5499927  65.7170814 107.6850117 128.9023933
  66.2405216 107.9312414 129.6650242  65.4983147 108.5170152 128.4827070
  61.1138095 109.9553792 116.7695057  60.7850801 109.0751171 116.5870163
  61.4677466 109.9001460 117.6571447  70.3617674 121.5908694 121.2790043
  70.2142636 120.6625402 121.4597613  71.1871167 121.6128785 120.7947118
  64.2279918 110.2426762 117.1370535  64.5675991 110.7712683 116.4149144
  64.6752039 110.5807168 117.9129102  66.9223359 108.6263812 126.5873603
  66.5820179 107.8271625 126.9894283  66.2162365 108.9265523 126.0150436
  67.5739831 105.7113125 125.0400926  68.3965900 105.2373603 124.9179817
  67.8177894 106.4903608 125.5399613  66.2148065 108.7401383 115.3363828
  66.9356428 109.1182636 114.8327545  65.5913369 109.4590260 115.4398806
  70.3579188 109.4446532 116.2722160  70.5742803 110.3271170 115.9710988
  69.8773255 109.0532746 115.5427802  65.0978410 112.4032245 122.8492905
  64.9522990 112.7172548 123.7417186  64.6203613 113.0217146 122.2963804
  66.9574792 109.3934793 122.8973794  66.9436361 108.4975887 122.5606092
  67.6747220 109.4005457 123.5312080  68.8100923 109.8272134 124.9426922
  68.5518701 110.7489204 124.9411252  68.2785963 109.4302568 125.6327386
  73.7547112 122.9322921 117.7217007  73.9283989 122.3669343 116.9690860
  74.2476003 123.7323816 117.5396497  59.5724072 114.9437590 125.7880566
  59.0277540 115.7197398 125.9200840  60.4503422 115.2908394 125.6299687
  66.3611688 108.2749174 118.1661365  66.4827600 107.3465820 118.3652252
  66.0713731 108.2887860 117.2539680  69.2302879 105.9604084 121.3028084
  69.2524576 106.0243417 120.3480064  69.6470938 105.1208593 121.4968591
  79.6086503 115.6959344 119.3407307  80.0517649 114.9466669 118.9426430
  78.7313013 115.6869480 118.9581039  74.7422284 122.2489685 114.8213906
  75.4373189 122.8696378 115.0401220  75.0845434 121.3985036 115.0966283
  60.3590094 114.0707486 128.6810723  59.6171830 114.2190121 129.2675353
  60.0382838 114.3315752 127.8177472  76.6413707 119.6989391 116.3501236
  77.1665032 120.0376663 115.6250556  76.5536060 118.7636406 116.1664371
  60.8046707 121.9572915 120.7121118  61.6304727 121.6576687 120.3319761
  60.4540759 121.1880537 121.1610906  65.7728240 121.3099383 122.7818791
  65.1508250 120.6470088 122.4821019  66.4433107 121.3360515 122.0992439
  59.0055312 119.8759241 121.6710051  58.1687221 119.4481416 121.4894052
  58.9778958 120.0691685 122.6080842  65.3341747 119.8603306 116.2577252
  65.4829868 120.5438771 115.6043924  66.1408191 119.8408396 116.7726707
  63.0894380 115.8868484 117.2638321  62.8440422 114.9830814 117.4618531
  63.2590295 115.8885634 116.3217799  70.7791090 106.7592160 126.6463076
  71.2973034 107.4953187 126.3209565  70.4246223 107.0656154 127.4809835
  62.3590028 111.6196841 114.7624482  61.6659273 111.6941196 114.1064518
  62.1141780 110.8557185 115.2845999  71.0303684 103.1792443 122.1663973
  71.3105438 102.5115632 122.7924399  71.8154291 103.3721538 121.6538637
  68.8337153 122.3551437 113.7288999  68.2611120 122.9741624 113.2759471
  69.4069946 122.9050798 114.2628921  72.9226922 108.6865660 126.0994949
  72.3276854 108.9670673 125.4041437  72.6376619 109.1759561 126.8711690
  72.0534413 122.6388587 114.8597581  72.9865086 122.5734149 115.0630457
  71.9657625 123.4744854 114.4012114  74.6822429 121.9554457 111.8201529
  74.6036061 121.6214321 112.7137287  75.5032096 122.4476225 111.8193001
  69.2183951 113.6912249 111.0705052  70.1643056 113.5618458 111.1393470
  68.8398196 112.9526911 111.5474480  75.1905836 105.3568256 121.0331943
  74.9930657 105.0483344 121.9175275  75.8005541 106.0829894 121.1629873
  67.4026868 111.6162226 111.0059937  66.4958324 111.3195339 111.0822650
  67.6802849 111.3192044 110.1394223  58.3204809 112.9368589 121.4558983
  58.0007593 112.0833897 121.1633357  57.7738237 113.1517167 122.2116951
  62.0984716 115.6531030 125.1728490  62.3170726 116.5848138 125.1916524
  62.5110490 115.2939005 125.9583294  69.0188934 106.1599116 117.1604178
  68.2089662 105.8146201 117.5359424  69.7073351 105.8506659 117.7491790
  70.9479482 105.2377162 118.7828475  71.5010521 105.6572616 119.4418498
  71.1849569 104.3112910 118.8251431  66.1725653 108.4749161 111.1471916
  67.0344817 108.8004059 111.4067733  66.3575997 107.6880657 110.6344982
  58.1893069 116.5571501 123.4252105  57.4956540 116.1425454 122.9122059
  58.9366060 116.5992037 122.8285524  74.3258290 107.3477688 118.2907139
  73.7456959 108.0062492 117.9085191  74.0594222 106.5255032 117.8794557
  72.7761856 106.7482745 120.4928459  73.2761634 106.8599280 119.6842778
  73.4197464 106.4443798 121.1329268  60.1029811 116.4889755 121.3018120
  60.0800499 116.5877442 120.3500003  60.4130448 117.3354905 121.6235286
  62.7617189 118.5465910 125.4164734  63.7160443 118.5149852 125.3494666
  62.5629713 118.0856533 126.2314960  73.1083168 109.5077778 117.3463487
  72.2209023 109.7927429 117.1283682  73.5237157 109.3471541 116.4990764
  76.4597704 109.5324299 121.0617827  77.2358094 110.0220751 121.3342443
  75.7345838 109.9582353 121.5189696  78.8970262 110.2451918 122.1191767
  79.4914753 110.0047654 121.4085075  78.9696846 109.5259049 122.7465303
  61.1167418 124.0885529 122.4334932  60.9821886 123.3285930 121.8672930
  60.6999480 124.8126429 121.9663721  72.2526381 119.2722453 111.4411507
  72.9562231 119.4772455 112.0569163  71.5289030 119.8399214 111.7060591
  73.0824191 115.0232314 117.5613777  73.0259393 115.4800865 116.7221410
  73.6352534 114.2622998 117.3836620  76.8928997 110.8122046 118.3863897
  76.6365931 110.4118681 119.2172105  76.2681865 111.5265840 118.2614036
  81.2041335 113.5518119 120.8935188  80.6440893 113.6211308 121.6666750
  80.5984838 113.3759104 120.1734685  74.1613078 119.7104982 113.4909967
  74.9958682 119.2786180 113.3087442  73.9997421 119.5386995 114.4186862
  73.8158971 116.2137095 114.8566307  73.7607774 116.0481367 113.9154751
  73.1905026 116.9213128 115.0128496  58.6051486 111.4505159 128.6827729
  59.2510349 110.9404113 129.1714954  58.3968637 112.1873841 129.2571154
  67.1255096 105.7145204 114.4351625  67.1133766 106.6587044 114.5919896
  68.0178518 105.5315350 114.1411086  70.9407216 102.3087981 118.6897562
  70.1739611 101.7546467 118.8354244  71.3517921 102.3809850 119.5511713
  79.0028656 125.3418461 113.7576022  79.1703058 126.2098698 114.1246493
  78.8125825 125.5045743 112.8337311  75.6226934 126.1642529 114.0044920
  74.7864246 126.5017216 114.3254195  75.4831703 126.0291509 113.0672057
  77.5980014 121.0079317 118.7124104  76.9444427 120.6928334 118.0880719
  77.5560489 120.3855057 119.4383927  72.9513849 128.6380755 116.8157541
  72.0211437 128.5765210 117.0327503  73.0471321 128.1156708 116.0194182
  70.2244008 127.6031612 116.6455732  70.5197449 126.6942290 116.5922786
  69.3232044 127.5819351 116.3236735  71.9531849 125.2845709 116.7695057
  71.6244556 124.4043088 116.5870163  72.3071220 125.2293378 117.6571447
  77.0541820 124.0693301 115.3363828  77.7750182 124.4474554 114.8327545
  76.4307124 124.7882178 115.4398806  77.2005443 123.6041091 118.1661365
  77.3221354 122.6757737 118.3652252  76.9107485 123.6179777 117.2539680
  73.1983782 126.9488759 114.7624482  72.5053027 127.0233114 114.1064518
  72.9535534 126.1849103 115.2845999  79.8582689 121.4891033 117.1604178
  79.0483417 121.1438118 117.5359424  80.5467106 121.1798577 117.7491790
  77.9648851 121.0437122 114.4351625  77.9527520 121.9878962 114.5919896
  78.8572272 120.8607267 114.1411086  81.7800970 117.6379898 118.6897562
  81.0133366 117.0838385 118.8354244  82.1911675 117.7101767 119.5511713
  16.0010909  20.7319122 101.5483331  15.3498888  21.3173202 101.1617345
  16.7955271  21.2625317 101.6078369  22.2677632  17.2244058 102.8088168
  21.4907075  16.8855217 102.3643330  22.9469113  17.2296681 102.1343133
  13.6728694  16.3209229  97.3522703  12.7655755  16.0898482  97.5513852
  14.1699726  15.5246848  97.5396684  16.5796772  25.0306736 100.2719389
  15.9058471  25.3338433 100.8804347  16.9662594  25.8335816  99.9224846
  14.5493015  17.9630567  99.2134771  14.1112445  17.2466426  98.7540409
  15.2903456  18.1906682  98.6519863  14.7787988  25.1986408 102.4866468
  14.9539743  24.7274451 103.3012091  14.0920776  25.8252174 102.7147729
  18.6704242  16.8214949  98.8066829  18.0533413  16.0961777  98.7099882
  18.2020731  17.5824309  98.4633903  19.4941928  20.1454121 102.9259469
  19.7701772  20.0310715 103.8353343  18.6246426  19.7471606 102.8871642
  16.4638157  23.3208657 103.8307331  16.9925924  22.8101111 103.2177493
  16.7266377  23.0051187 104.6952864  19.5578341  23.2925455 104.4462314
  19.7315218  22.7271877 103.6936166  20.0507232  24.0926350 104.2641804
  20.5453513  22.6092219 101.5459212  21.2404418  23.2298912 101.7646527
  20.8876663  21.7587570 101.8211590  22.4444936  20.0591925 103.0746543
  22.9696260  20.3979198 102.3495863  22.3567289  19.1238940 102.8909678
  14.6368382  22.7153971 100.4534306  14.0642349  23.3344158 100.0004778
  15.2101175  23.2653333 100.9874228  17.8565641  22.9991121 101.5842888
  18.7896315  22.9336683 101.7875764  17.7688854  23.8347388 101.1257421
  20.4853658  22.3156991  98.5446836  20.4067290  21.9816855  99.4382593
  21.3063325  22.8078759  98.5438308  15.0215180  14.0514784  97.7950358
  15.9674285  13.9220992  97.8638776  14.6429425  13.3129446  98.2719786
  18.0557610  19.6324987  98.1656814  18.7593460  19.8374989  98.7814470
  17.3320259  20.2001749  98.4305897  19.9644307  20.0707516 100.2155274
  20.7989911  19.6388714 100.0332749  19.8028650  19.8989530 101.1432168
  19.6190199  16.5739629 101.5811613  19.5639003  16.4083901 100.6400057
  18.9936255  17.2815662 101.7373803  28.5928582  30.5877167 110.3110451
  29.2306992  30.4683914 109.6073791  28.4749425  31.5358011 110.3698403
  25.4018289  30.5404595 110.2471975  25.0636800  30.4245660 109.3592510
  26.2708057  30.1395760 110.2272982  21.2605104  32.3940072 106.2368866
  20.6969969  32.3030009 105.4685154  21.1457499  31.5739976 106.7171359
  18.8069536  33.8891263 109.0753087  19.5990828  33.5482088 108.6599386
  19.0466186  33.9986238 109.9955240  26.8404663  36.0611039 101.5483331
  26.1892643  36.6465120 101.1617345  27.6349026  36.5917234 101.6078369
  20.7660290  33.1500176 101.9470466  21.5391166  32.6029164 101.8083341
  21.1185689  34.0144426 102.1584927  23.5301540  31.8553407 111.7438725
  24.1265112  31.6309430 111.0295687  23.5876511  31.1138153 112.3464172
  23.1026568  29.3092843  99.5788916  23.3552089  28.7874364  98.8172379
  22.1651127  29.1458988  99.6815599  28.1469851  28.3128621 107.3863659
  28.9332940  27.8948044 107.0354076  28.4108555  29.2174713 107.5545307
  28.3179928  33.7501471 102.0852316  27.6825761  33.8236098 102.7973220
  27.9877335  34.3395070 101.4071395  33.5478278  28.2503854 108.2896637
  34.2803450  27.6803071 108.5234467  32.7917634  27.8625455 108.7303143
  22.8222857  31.2120949 101.7813290  22.7059115  30.5365852 102.4494375
  22.9325117  30.7253322 100.9645444  25.1654398  30.6731096 105.4859980
  24.8012605  30.1461717 106.1972901  26.0221514  30.2829565 105.3126465
  24.8059885  25.7020995 100.4821328  24.9734287  26.5701232 100.8491799
  24.6157054  25.8648277  99.5582617  27.5635218  34.1637974 112.1487159
  27.2635941  35.0663013 112.0402966  27.2186277  33.8970157 113.0008311
  21.0147699  30.6151771 108.1823863  20.0898196  30.4827985 108.3901555
  21.2632113  31.3945990 108.6793805  30.9632362  26.6820514 109.8284596
  30.0549239  26.6135923 109.5343357  30.9119957  27.1592459 110.6566421
  24.7849106  28.1578653 101.4667995  24.6648731  28.6035704 102.3053475
  24.0901694  28.5063971 100.9081533  18.3756510  30.2585045 109.0167652
  18.5048892  30.5119524 109.9307064  17.6953962  30.8512753 108.6972307
  22.5455998  40.9282295 105.1158126  22.4680027  41.8790120 105.1946607
  21.9417641  40.5828167 105.7733053  32.8294008  24.8836953 111.6062470
  32.1868388  25.1769486 110.9602264  32.3248937  24.7689873 112.4115667
  30.4834172  28.6300126 102.2948329  31.3952028  28.8627513 102.1196027
  29.9743819  29.2137170 101.7323408  29.0903754  33.6125944 109.6861911
  28.4612616  33.7771659 108.9837978  28.7029416  34.0267554 110.4572875
  32.9692986  34.5480382 107.0406274  32.2844024  34.9279284 106.4903308
  33.0536835  35.1575709 107.7738222  30.2243918  32.1940341 113.6401618
  30.4360813  32.8372101 112.9635999  30.1773666  31.3602658 113.1723548
  24.6431716  33.3500353 106.9511996  25.1070061  33.6288056 106.1616618
  24.3788514  32.4483797 106.7685086  21.5355797  32.8971834 109.8891759
  22.1057154  33.3259102 109.2509243  22.1263909  32.6154419 110.5875945
  23.5800602  29.4723505 103.7601561  24.2824645  29.9244549 104.2275487
  23.2481230  28.8307324 104.3881454  31.3389745  35.0712297 111.8123975
  32.1607189  34.6692484 111.5306657  31.3352148  34.9680531 112.7640091
  19.2740681  28.0951637 106.0202171  18.4771845  28.2070331 106.5385667
  19.0466273  28.4338289 105.1543062  25.1046349  34.6196340 113.9684686
  25.1690781  35.0816747 114.8042858  24.3957273  33.9893705 114.0966996
  39.4295739  31.4151045 108.1608947  38.6759447  30.8458443 108.0052951
  39.5643280  31.3813710 109.1079581  24.8194367  36.2864448 103.8363666
  24.6840041  37.1315983 104.2648514  25.3604179  36.4883725 103.0729600
  18.2723764  33.8039886 104.4091591  18.7848285  34.5983136 104.5597156
  18.9246477  33.1066176 104.3425193  20.0818649  36.9205642 106.4914344
  20.2585277  37.8423607 106.3035328  20.8775482  36.6064061 106.9208724
  21.2049964  38.4383816 112.4924687  21.7557389  38.3100879 111.7201681
  20.3661440  38.7378705 112.1419579  28.5444081  37.1890814 115.9945409
  28.5262556  38.0099695 115.5025679  29.4664001  37.0644889 116.2195551
  16.2372681  32.1328540 105.1851162  17.0747903  32.5425548 104.9684869
  16.4150948  31.1927982 105.1551356  28.1337113  29.8003621 100.8734995
  27.6183736  30.5708225 101.1123382  27.8614421  29.1268757 101.4968056
  25.7184224  24.6453321 105.9320233  24.8625820  24.2560172 105.7525872
  26.1311176  24.7245282 105.0720018  33.1071387  32.5535975 102.8088168
  32.3300830  32.2147135 102.3643330  33.7862868  32.5588598 102.1343133
  27.9223416  27.6730713 102.6994776  27.6173552  27.9876862 103.5504919
  28.8753858  27.7512133 102.7422109  26.3669848  33.8320936 104.3487730
  25.8391209  33.0973696 104.0360967  25.8657351  34.6095612 104.1027698
  31.3462694  32.0269956 109.4654776  30.6886368  32.7169218 109.5534905
  32.1503093  32.4166388 109.8088762  21.0988575  24.4940602 106.7094341
  21.6732327  24.2715784 105.9767534  21.6859558  24.5629297 107.4622943
  30.1568153  30.3814329 107.5158718  30.6700034  31.0144321 108.0180428
  30.8069377  29.7815525 107.1502078  21.4258163  26.5245063 100.7290227
  20.5895475  26.8619750 101.0499501  21.2862932  26.3894043  99.7917364
  23.4011243  21.3681851 105.4369411  22.7475656  21.0530868 104.8126025
  23.3591717  20.7457592 106.1629234  24.5122448  31.6501146  97.3522703
  23.6049510  31.4190400  97.5513852  25.0093480  30.8538765  97.5396684
  27.4190527  40.3598653 100.2719389  26.7452226  40.6630350 100.8804347
  27.8056349  41.1627734  99.9224846  26.6348984  27.8563785 109.7617058
  25.7171545  28.0778732 109.6038746  27.0509127  27.9310095 108.9028766
  27.4184031  29.2555200 104.8919739  28.1655850  29.7676598 104.5826861
  27.6875621  28.9339253 105.7524132  25.6910681  31.7513741 101.8746693
  24.7821901  31.4672774 101.9719163  25.7205765  32.1712820 101.0150000
  30.9229949  35.3620331 105.6437860  30.4692276  34.5211240 105.7003051
  30.2923916  35.9981729 105.9812641  29.8662868  26.2912317 106.8738528
  29.1285625  25.7789703 107.2048770  30.1189642  25.8512698 106.0621805
  29.3662888  37.1996827 106.5787679  29.6585863  37.7601884 105.8600044
  29.8761509  37.4925388 107.3340838  29.9674496  19.0688569 107.4680297
  30.2733373  18.2085932 107.1806212  30.6927101  19.6606189 107.2679291
  16.2598852  29.4719255 105.8561895  16.0623252  28.8788616 105.1312962
  15.7045516  29.1671465 106.5737834  24.2395576  29.3642362 107.9756488
  24.2944185  28.4116198 107.8998965  23.4286778  29.5201801 108.4597787
  25.3886769  33.2922485  99.2134771  24.9506199  32.5758344  98.7540409
  26.1297210  33.5198600  98.6519863  22.1787935  27.9819421 105.7346867
  21.3655801  28.2813592 106.1412059  22.6746930  27.5875110 106.4521349
  24.3296513  37.9777178 107.6681132  24.2872692  38.2038025 106.7389664
  25.2459212  37.7440553 107.8166933  33.5059884  31.5679682 105.2711090
  33.3677783  31.7581278 104.3432279  33.1496103  32.3299065 105.7279141
  33.5329264  33.6356209 110.2822362  33.9665770  33.5431498 111.1305416
  34.2460844  33.6113709 109.6442378  22.4462314  34.8540207 107.4643095
  23.2402913  34.3590528 107.2625669  21.7354006  34.3258071 107.1010800
  27.2657159  37.2358303 111.8155462  27.3194181  37.8049239 112.5833178
  26.3971940  37.4060188 111.4509499  18.7545078  28.9983289 103.5402847
  17.8242666  28.9367745 103.7572809  18.8502550  28.4759242 102.7439488
  18.6730627  25.5238102 106.1281089  18.9337444  26.4383435 106.0190249
  19.4947799  25.0562545 106.2777702  34.3944813  33.6779909 112.8155247
  34.5880703  34.5825720 113.0614522  34.2945431  33.2187329 113.6493832
  26.2245258  31.4018565 113.3742394  27.1537318  31.5529725 113.2011361
  25.8036288  31.4902586 112.5191040  25.0233590  35.4269229 111.1440932
  24.8844676  35.0588014 112.0166870  24.2348186  35.9416869 110.9724889
  25.6181742  40.5278326 102.4866468  25.7933498  40.0566369 103.3012091
  24.9314530  41.1544092 102.7147729  26.5738805  34.8050832 108.5329769
  26.2388638  34.7651602 109.4287419  26.0742751  34.1395548 108.0600180
  29.5097997  32.1506866  98.8066829  28.8927168  31.4253695  98.7099882
  29.0414485  32.9116227  98.4633903  31.1652129  36.8605775 116.4672609
  31.1064675  36.1764995 115.8003192  31.5671647  37.6024765 116.0153235
  20.1842827  43.6767689 109.2606328  20.4239426  44.3086213 109.9385347
  19.3412024  43.3255729 109.5471688  21.2996543  26.3692291  97.9288133
  20.4226009  26.2481092  97.5650380  21.7754296  25.5778369  97.6767022
  31.1669536  34.8245359 114.6986589  30.2796315  34.4871280 114.8212988
  31.7368087  34.0928390 114.9355354  12.8198683  31.1569450 108.0229640
  13.5069723  30.8431180 107.4350656  12.6646812  32.0610815 107.7496892
  24.6970689  39.4846811 111.6647832  24.6240861  40.2901783 112.1767137
  24.2548082  39.6838777 110.8395854  24.4860469  38.7218581 105.1750654
  23.7027991  39.2640261 105.2688878  25.1853214  39.2392561 105.5744895
  27.7957119  24.5313211 107.8184859  28.2925818  23.7783173 107.4985929
  27.0244100  24.5677527 107.2528069  35.6486876  30.2353576 109.4603151
  35.6376753  31.1178292 109.0897084  34.7804256  29.8825127 109.2657688
  27.1569373  39.3833645 113.8205991  27.8697345  40.0181110 113.7481892
  26.6659401  39.4797511 113.0045993  28.8786900  33.2884898 105.3923283
  27.9443178  33.4086360 105.2227987  29.0563568  32.3857365 105.1283292
  24.3792088  26.6730594 107.5456544  24.0089875  26.1201634 108.2337449
  24.8751180  26.0688727 106.9931544  32.2659451  29.1302217 105.9273317
  32.7319903  29.9630209 105.8533619  32.7166952  28.6647199 106.6318575
  22.2081286  37.1328089 114.6411562  22.9090746  37.7664572 114.7940956
  21.7376401  37.4742820 113.8807201  30.3335682  35.4746038 102.9259469
  30.6095526  35.3602633 103.8353343  29.4640181  35.0763523 102.8871642
  30.0082572  29.6872696 112.4664112  29.3554022  29.9348603 111.8116565
  30.3862952  28.8736834 112.1326589  26.9689746  39.7232389 106.5692282
  27.1512141  38.9054045 107.0320035  27.7922732  39.9400081 106.1317172
  27.3031912  38.6500574 103.8307331  27.8319678  38.1393029 103.2177493
  27.5660131  38.3343105 104.6952864  17.8049004  36.6664444 111.5742664
  18.3902441  35.9208132 111.7070569  17.6073843  36.9768400 112.4579328
  20.6587660  39.7015691 106.5905107  19.9898035  40.1861819 106.1069147
  20.5200529  39.9484911 107.5048485  24.7992928  41.7359435 113.1887765
  25.3511236  41.8991056 113.9536850  25.1399122  42.3263872 112.5167790
  16.0275237  27.9634146 103.3701039  16.3228678  27.0544824 103.3168093
  15.1263272  27.9421885 103.0482041  27.9361315  39.6841410 110.1751447
  27.8112455  38.8831150 109.6662393  28.5940407  40.1787603 109.6865417
  29.9996224  37.4850430 111.8030997  29.0526559  37.3655781 111.7309324
  30.3478997  36.5972928 111.8857259  17.7563078  25.6448244 103.4940364
  17.4275784  24.7645623 103.3115470  18.1102449  25.5895912 104.3816753
  27.0042657  37.2803146 108.0035350  26.8567620  36.3519854 108.1842920
  27.8296151  37.3023237 107.5192425  20.8704901  25.9321213 103.8615842
  21.2100974  26.4607135 103.1394450  21.3177022  26.2701620 104.6374408
  30.6076779  38.1031705 109.0900222  31.5323326  37.8974566 108.9524674
  30.4392082  37.8548106 109.9989564  22.8573049  24.4295835 102.0609135
  23.5781411  24.8077088 101.5572851  22.2338353  25.1484712 102.1644113
  27.0004171  25.1340984 102.9967467  27.2167786  26.0165622 102.6956295
  26.5198239  24.7427197 102.2673109  30.3972095  38.6217373 104.4462314
  30.5708973  38.0563795 103.6936166  30.8900986  39.4218267 104.2641804
  23.0036672  23.9643625 104.8906671  23.1252583  23.0360272 105.0897559
  22.7138714  23.9782311 103.9784987  36.2511486  31.3853795 106.0652614
  36.6942632  30.6361121 105.6671737  35.3737997  31.3763932 105.6826346
  31.3847268  37.9384137 101.5459212  32.0798172  38.5590830 101.7646527
  31.7270418  37.0879488 101.8211590  33.2838691  35.3883842 103.0746543
  33.8090015  35.7271115 102.3495863  33.1961043  34.4530858 102.8909678
  24.9458739  39.3017916 115.2036420  25.2545866  39.0567063 116.0759119
  25.7434221  39.5064555 114.7155290  24.9679352  41.4555826 107.4341796
  24.5284342  40.9632204 108.1274653  25.7187468  40.9128793 107.1933871
  17.4471690  37.6467367 107.4366424  18.2729710  37.3471138 107.0565068
  17.0965742  36.8774989 107.8856213  22.4153224  36.9993835 109.5064098
  21.7933233  36.3364540 109.2066326  23.0858091  37.0254967 108.8237746
  15.6480296  35.5653693 108.3955358  14.8112204  35.1375867 108.2139359
  15.6203941  35.7586136 109.3326149  32.9732597  36.0216746 118.3797741
  32.1828141  36.0040885 117.8402240  32.7365951  36.5605040 119.1346777
  33.0930472  32.8709212 115.6930469  33.1428477  32.7059220 116.6345992
  32.9844395  32.0036471 115.3028350  21.9766731  35.5497758 102.9822558
  22.1254851  36.2333223 102.3289231  22.7833174  35.5302848 103.4972014
  34.5948669  35.2906154 115.9372491  34.3033477  35.6536135 116.7735952
  33.9820800  34.5773162 115.7585823  35.7944351  32.8559034 108.4575061
  36.6291242  33.2948838 108.6212622  35.9303480  32.3797687 107.6383307
  32.8435857  30.4138769 114.4052549  33.3189979  30.6066415 113.5971400
  31.9201422  30.4697954 114.1595933  19.7319364  31.5762936 103.9883627
  19.4865405  30.6725266 104.1863837  19.9015278  31.5780086 103.0463105
  19.0015011  27.3091293 101.4869789  18.3084256  27.3835648 100.8309825
  18.7566763  26.5451637 102.0091306  25.4762136  38.0445889 100.4534306
  24.9036103  38.6636076 100.0004778  26.0494930  38.5945250 100.9874228
  31.5437526  27.2904529 112.6380855  32.4954949  27.3902626 112.6593079
  31.3740976  26.4982797 113.1478939  28.6959396  38.3283039 101.5842888
  29.6290069  38.2628600 101.7875764  28.6082609  39.1639306 101.1257421
  31.3247413  37.6448909  98.5446836  31.2461044  37.3108773  99.4382593
  32.1457079  38.1370677  98.5438308  34.0225604  30.5110648 111.7523154
  33.9901924  29.5726649 111.9382838  34.6326227  30.5894685 111.0188979
  25.8608935  29.3806701  97.7950358  26.8068039  29.2512909  97.8638776
  25.4823180  28.6421363  98.2719786  34.1720092  27.3021692 111.7981437
  33.6559141  26.5180148 111.6111366  35.0560041  26.9740408 111.9627957
  31.8330819  21.0462707 107.7577250  31.6355640  20.7377796 108.6420582
  32.4430525  21.7724346 107.8875180  39.8402154  31.5726655 110.8929191
  40.5705542  31.3111943 111.4536894  39.2309099  30.8355377 110.9331259
  37.9217451  29.7134518 111.4903642  37.1950614  29.5790483 110.8820134
  37.5064738  30.0211346 112.2960360  24.0451852  27.3056678  97.7305243
  23.1383307  27.0089790  97.8067957  24.3227833  27.0086496  96.8639530
  25.6613917  21.8493567 103.8849485  24.8514646  21.5040652 104.2604731
  26.3498334  21.5401111 104.4737096  27.5904466  20.9271614 105.5073781
  28.1435504  21.3467068 106.1663805  27.8274552  20.0007362 105.5496737
  22.8150636  24.1643613  97.8717223  23.6769800  24.4898511  98.1313040
  23.0000981  23.3775109  97.3590288  30.9683273  23.0372139 105.0152446
  30.3881942  23.6956943 104.6330498  30.7019206  22.2149484 104.6039863
  29.4186839  22.4377197 107.2173766  29.9186618  22.5493732 106.4088085
  30.0622447  22.1338250 107.8574574  16.7454795  32.1784206 108.0263426
  16.7225483  32.2771894 107.0745309  17.0555431  33.0249357 108.3480592
  29.7508151  25.1972230 104.0708794  28.8634006  25.4821880 103.8528989
  30.1662140  25.0365993 103.2236071  33.1022687  25.2218751 107.7863133
  33.8783077  25.7115203 108.0587750  32.3770821  25.6476805 108.2435003
  35.5395246  25.9346370 108.8437074  36.1339736  25.6942106 108.1330382
  35.6121829  25.2153501 109.4710610  17.7592401  39.7779981 109.1580239
  17.6246869  39.0180382 108.5918237  17.3424464  40.5020881 108.6909027
  28.8951364  34.9616904  98.1656814  29.5987214  35.1666907  98.7814470
  28.1714013  35.5293666  98.4305897  29.7249175  30.7126766 104.2859084
  29.6684376  31.1695317 103.4466716  30.2777517  29.9517450 104.1081927
  33.5353981  26.5016498 105.1109204  33.2790915  26.1013133 105.9417411
  32.9106849  27.2160292 104.9859343  37.8466318  29.2412571 107.6180495
  37.2865876  29.3105760 108.3912057  37.2409822  29.0653555 106.8979991
  20.9161527  40.6749298 109.3698681  20.7993911  41.6194730 109.2677372
  20.0953973  40.3722860 109.7584480  30.8038062  35.3999434 100.2155274
  31.6383666  34.9680632 100.0332749  30.6422405  35.2281447 101.1432168
  30.4583954  31.9031547 101.5811613  30.4032758  31.7375818 100.6400057
  29.8330009  32.6107580 101.7373803  23.7680079  21.4039656 101.1596932
  23.7558749  22.3481496 101.3165203  24.6603501  21.2209801 100.8656393
  21.9416041  41.3277560 112.5854610  22.8443288  41.3601170 112.9021105
  21.7153411  40.3978011 112.6000945  23.6969643  40.0808546 109.2464688
  22.7465274  40.0810408 109.1329061  24.0002129  39.3341281 108.7300723
  27.5832199  17.9982433 105.4142868  26.8164595  17.4440919 105.5599551
  27.9942904  18.0704301 106.2757020  39.4322337  45.9169085 110.3110451
  40.0700747  45.7975832 109.6073791  39.3143180  46.8649929 110.3698403
  36.2412043  45.8696513 110.2471975  35.9030555  45.7537578 109.3592510
  37.1101811  45.4687678 110.2272982  32.0998859  47.7231989 106.2368866
  31.5363724  47.6321926 105.4685154  31.9851254  46.9031894 106.7171359
  36.7231826  47.0231365 116.2058181  36.7120467  46.6284163 115.3338685
  36.8852466  46.2897437 116.7991952  29.6463291  49.2183181 109.0753087
  30.4384583  48.8774006 108.6599386  29.8859941  49.3278156 109.9955240
  37.6798418  51.3902957 101.5483331  37.0286397  51.9757037 101.1617345
  38.4742780  51.9209152 101.6078369  31.6054045  48.4792094 101.9470466
  32.3784921  47.9321081 101.8083341  31.9579444  49.3436343 102.1584927
  33.4439087  49.8068476 115.1537365  33.1528953  50.7114107 115.0384031
  34.0796072  49.8485004 115.8681434  34.3695294  47.1845325 111.7438725
  34.9658866  46.9601347 111.0295687  34.4270266  46.4430070 112.3464172
  33.9420323  44.6384760  99.5788916  34.1945843  44.1166282  98.8172379
  33.0044882  44.4750906  99.6815599  38.9863605  43.6420539 107.3863659
  39.7726695  43.2239962 107.0354076  39.2502310  44.5466631 107.5545307
  39.1573683  49.0793389 102.0852316  38.5219516  49.1528015 102.7973220
  38.8271089  49.6686988 101.4071395  44.3872032  43.5795772 108.2896637
  45.1197204  43.0094989 108.5234467  43.6311388  43.1917372 108.7303143
  33.6616611  46.5412866 101.7813290  33.5452869  45.8657770 102.4494375
  33.7718871  46.0545240 100.9645444  36.0048152  46.0023013 105.4859980
  35.6406359  45.4753634 106.1972901  36.8615268  45.6121482 105.3126465
  41.9097453  37.2917346 112.7491246  41.5780778  38.1612757 112.5252461
  41.3143066  36.9753630 113.4285276  35.6453639  41.0312913 100.4821328
  35.8128042  41.8993149 100.8491799  35.4550808  41.1940195  99.5582617
  38.4028972  49.4929892 112.1487159  38.1029695  50.3954931 112.0402966
  38.0580032  49.2262075 113.0008311  31.8541454  45.9443689 108.1823863
  30.9291950  45.8119903 108.3901555  32.1025867  46.7237908 108.6793805
  41.8026116  42.0112432 109.8284596  40.8942993  41.9427841 109.5343357
  41.7513712  42.4884377 110.6566421  35.6242860  43.4870571 101.4667995
  35.5042485  43.9327621 102.3053475  34.9295448  43.8355888 100.9081533
  29.2150265  45.5876962 109.0167652  29.3442646  45.8411441 109.9307064
  28.5347716  46.1804670 108.6972307  33.3849752  56.2574212 105.1158126
  33.3073782  57.2082037 105.1946607  32.7811396  55.9120085 105.7733053
  35.8766982  43.4302078 117.7719493  35.1000316  43.9895998 117.7622358
  36.5157545  43.9158861 118.2934363  43.6687763  40.2128871 111.6062470
  43.0262143  40.5061404 110.9602264  43.1642691  40.0981791 112.4115667
  41.3227926  43.9592044 102.2948329  42.2345782  44.1919430 102.1196027
  40.8137573  44.5429088 101.7323408  34.1313354  46.2387531 117.3337460
  34.8728039  46.7772575 117.0572284  33.4250340  46.8653820 117.4909012
  39.6068694  48.3816672 115.9309622  40.0152050  47.9399082 115.1864254
  38.8845955  47.8069299 116.1843815  35.9599764  43.3189278 113.3043179
  36.8060959  43.7428692 113.4477828  35.8998402  42.6622903 113.9981742
  39.9297508  48.9417862 109.6861911  39.3006371  49.1063576 108.9837978
  39.5423171  49.3559472 110.4572875  43.8086740  49.8772300 107.0406274
  43.1237779  50.2571201 106.4903308  43.8930590  50.4867627 107.7738222
  39.1099209  40.9793647 114.9624352  38.8660141  41.7335707 114.4258628
  39.3859140  41.3578994 115.7971599  41.0637672  47.5232259 113.6401618
  41.2754567  48.1664019 112.9635999  41.0167420  46.6894576 113.1723548
  38.6663901  40.1350080 110.5438190  37.8048380  40.4331333 110.8354928
  38.6926336  40.3520479 109.6119223  35.4825470  48.6792270 106.9511996
  35.9463816  48.9579973 106.1616618  35.2182268  47.7775715 106.7685086
  32.3749551  48.2263752 109.8891759  32.9450909  48.6551020 109.2509243
  32.9657663  47.9446336 110.5875945  34.4194356  44.8015423 103.7601561
  35.1218400  45.2536466 104.2275487  34.0874985  44.1599241 104.3881454
  32.8674718  43.3927179 118.1352770  32.2373379  44.0743460 118.3688167
  32.7610806  43.2810261 117.1905908  28.1619690  43.0598975 109.0618694
  27.3718744  43.3156504 108.5858805  28.6530938  43.8747313 109.1670735
  42.1783500  50.4004214 111.8123975  43.0000944  49.9984402 111.5306657
  42.1745903  50.2972449 112.7640091  30.1134436  43.4243555 106.0202171
  29.3165599  43.5362249 106.5385667  29.8860028  43.7630207 105.1543062
  35.9440103  49.9488258 113.9684686  36.0084536  50.4108665 114.8042858
  35.2351027  49.3185623 114.0966996  26.4457393  43.3129466 111.4933685
  26.6965432  44.1976476 111.7591261  26.9816942  43.1334067 110.7208777
  50.2689493  46.7442963 108.1608947  49.5153201  46.1750361 108.0052951
  50.4037034  46.7105627 109.1079581  35.6588121  51.6156365 103.8363666
  35.5233796  52.4607901 104.2648514  36.1997934  51.8175643 103.0729600
  29.1117518  49.1331803 104.4091591  29.6242039  49.9275054 104.5597156
  29.7640231  48.4358094 104.3425193  30.9212403  52.2497560 106.4914344
  31.0979031  53.1715524 106.3035328  31.7169237  51.9355979 106.9208724
  35.0623422  39.1105824 118.0898278  35.8033135  39.7112977 118.0102740
  35.2941345  38.3683462 117.5316320  30.2064760  44.2962191 116.3676507
  30.0918275  43.3947449 116.6683606  29.3509277  44.5425888 116.0161324
  37.2856597  52.2379932 117.9664008  36.8420452  51.4516310 117.6484913
  37.9473811  52.4259082 117.3007899  32.0443719  53.7675733 112.4924687
  32.5951144  53.6392797 111.7201681  31.2055195  54.0670622 112.1419579
  39.3837835  52.5182732 115.9945409  39.3656311  53.3391613 115.5025679
  40.3057756  52.3936807 116.2195551  35.8410890  50.0326861 116.8368918
  36.3739226  49.2715149 116.6068226  35.3124971  49.7400513 117.5793072
  39.0080585  35.1386927 112.3662559  38.6644854  36.0288569 112.2901670
  39.3759547  34.9488585 111.5032144  27.0766435  47.4620458 105.1851162
  27.9141657  47.8717466 104.9684869  27.2544703  46.5219900 105.1551356
  38.9730867  45.1295538 100.8734995  38.4577491  45.9000143 101.1123382
  38.7008176  44.4560674 101.4968056  36.5577978  39.9745239 105.9320233
  35.7019575  39.5852089 105.7525872  36.9704930  40.0537200 105.0720018
  38.0877125  37.5091582 110.3311793  37.5841921  37.4721717 109.5179598
  38.3807732  38.4184325 110.3908449  34.3320011  37.5930312 109.3377974
  35.1973008  37.3973121 108.9783864  34.3997520  37.3640664 110.2647331
  43.9465141  47.8827893 102.8088168  43.1694584  47.5439052 102.3643330
  44.6256622  47.8880516 102.1343133  38.7617171  43.0022630 102.6994776
  38.4567306  43.3168780 103.5504919  39.7147613  43.0804050 102.7422109
  37.2063602  49.1612854 104.3487730  36.6784964  48.4265613 104.0360967
  36.7051105  49.9387530 104.1027698  42.1856448  47.3561874 109.4654776
  41.5280123  48.0461136 109.5534905  42.9896848  47.7458306 109.8088762
  31.9382330  39.8232520 106.7094341  32.5126082  39.6007701 105.9767534
  32.5253312  39.8921214 107.4622943  40.9961907  45.7106247 107.5158718
  41.5093789  46.3436239 108.0180428  41.6463131  45.1107442 107.1502078
  32.2651917  41.8536981 100.7290227  31.4289229  42.1911667 101.0499501
  32.1256687  41.7185961  99.7917364  34.2404998  36.6973769 105.4369411
  33.5869410  36.3822786 104.8126025  34.1985472  36.0749509 106.1629234
  35.3516203  46.9793064  97.3522703  34.4443264  46.7482317  97.5513852
  35.8487235  46.1830683  97.5396684  37.4742738  43.1855702 109.7617058
  36.5565299  43.4070649 109.6038746  37.8902882  43.2602013 108.9028766
  38.2577786  44.5847118 104.8919739  39.0049605  45.0968515 104.5826861
  38.5269375  44.2631171 105.7524132  36.5304436  47.0805659 101.8746693
  35.6215655  46.7964692 101.9719163  36.5599520  47.5004737 101.0150000
  41.7623703  50.6912248 105.6437860  41.3086030  49.8503158 105.7003051
  41.1317670  51.3273647 105.9812641  40.7056623  41.6204234 106.8738528
  39.9679380  41.1081621 107.2048770  40.9583396  41.1804616 106.0621805
  40.2056643  52.5288745 106.5787679  40.4979617  53.0893802 105.8600044
  40.7155263  52.8217306 107.3340838  40.8068250  34.3980486 107.4680297
  41.1127127  33.5377850 107.1806212  41.5320855  34.9898107 107.2679291
  27.0992606  44.8011173 105.8561895  26.9017006  44.2080534 105.1312962
  26.5439270  44.4963383 106.5737834  35.0789330  44.6934279 107.9756488
  35.1337940  43.7408116 107.8998965  34.2680532  44.8493718 108.4597787
  36.2280524  48.6214402  99.2134771  35.7899954  47.9050261  98.7540409
  36.9690965  48.8490517  98.6519863  33.0181690  43.3111339 105.7346867
  32.2049555  43.6105510 106.1412059  33.5140684  42.9167028 106.4521349
  35.1690268  53.3069096 107.6681132  35.1266447  53.5329942 106.7389664
  36.0852967  53.0732471 107.8166933  38.6155902  43.7753164 114.5661761
  38.9705289  44.0024637 115.4256227  39.2628033  44.1071540 113.9439016
  44.3453639  46.8971599 105.2711090  44.2071537  47.0873195 104.3432279
  43.9889857  47.6590982 105.7279141  32.5095765  40.8829695 111.3508102
  33.1495144  40.7418454 110.6531065  31.6773295  40.5964208 110.9746704
  44.3723018  48.9648126 110.2822362  44.8059525  48.8723416 111.1305416
  45.0854599  48.9405627 109.6442378  33.2856069  50.1832125 107.4643095
  34.0796667  49.6882445 107.2625669  32.5747761  49.6549988 107.1010800
  38.1050913  52.5650221 111.8155462  38.1587935  53.1341157 112.5833178
  37.2365694  52.7352106 111.4509499  29.5938832  44.3275207 103.5402847
  28.6636420  44.2659662 103.7572809  29.6896304  43.8051160 102.7439488
  29.5124381  40.8530020 106.1281089  29.7731198  41.7675353 106.0190249
  30.3341553  40.3854462 106.2777702  30.9849306  42.2667777 113.2979913
  31.6572360  42.0585139 112.6492562  30.1579093  42.0689863 112.8585146
  45.2338568  49.0071827 112.8155247  45.4274458  49.9117638 113.0614522
  45.1339186  48.5479246 113.6493832  36.8874878  38.8929718 115.3145574
  36.2402794  39.5919667 115.2210051  37.6575894  39.3265862 115.6821822
  40.2953676  49.1578570 118.3896128  40.1439183  48.9289122 117.4726211
  40.2858356  50.1149171 118.4027473  37.0639013  46.7310483 113.3742394
  37.9931073  46.8821642 113.2011361  36.6430043  46.8194503 112.5191040
  35.8627345  50.7561147 111.1440932  35.7238430  50.3879931 112.0166870
  35.0741941  51.2708786 110.9724889  37.4132560  50.1342750 108.5329769
  37.0782392  50.0943520 109.4287419  36.9136505  49.4687466 108.0600180
  31.3876804  45.5410380 114.0582351  31.2496602  44.8090619 114.6593890
  32.2981727  45.4519280 113.7766538  34.0159104  45.2530339 113.5466030
  34.7258723  44.6123531 113.5052649  33.9728413  45.5043234 114.4692211
  42.0045883  52.1897692 116.4672609  41.9458429  51.5056913 115.8003192
  42.4065401  52.9316682 116.0153235  32.7288038  42.2395557 115.3661670
  32.1925395  41.7886295 116.0183266  32.1404747  42.3741466 114.6232134
  31.0236582  59.0059606 109.2606328  31.2633180  59.6378130 109.9385347
  30.1805778  58.6547646 109.5471688  32.1390297  41.6984208  97.9288133
  31.2619764  41.5773009  97.5650380  32.6148050  40.9070287  97.6767022
  42.0063290  50.1537276 114.6986589  41.1190069  49.8163198 114.8212988
  42.5761841  49.4220308 114.9355354  23.6592437  46.4861368 108.0229640
  24.3463477  46.1723098 107.4350656  23.5040566  47.3902733 107.7496892
  28.4627160  41.3751565 112.4514664  28.3785348  40.7677234 111.7165074
  27.6409866  41.8660583 112.4524160  35.5364444  54.8138729 111.6647832
  35.4634615  55.6193700 112.1767137  35.0941837  55.0130695 110.8395854
  35.3254223  54.0510499 105.1750654  34.5421745  54.5932179 105.2688878
  36.0246969  54.5684478 105.5744895  38.6350873  39.8605128 107.8184859
  39.1319573  39.1075091 107.4985929  37.8637855  39.8969445 107.2528069
  46.4880631  45.5645494 109.4603151  46.4770507  46.4470209 109.0897084
  45.6198010  45.2117045 109.2657688  37.9963127  54.7125563 113.8205991
  38.7091099  55.3473028 113.7481892  37.5053156  54.8089429 113.0045993
  39.7180654  48.6176815 105.3923283  38.7836933  48.7378278 105.2227987
  39.8957323  47.7149282 105.1283292  35.2185842  42.0022511 107.5456544
  34.8483630  41.4493552 108.2337449  35.7144935  41.3980645 106.9931544
  43.1053205  44.4594135 105.9273317  43.5713658  45.2922126 105.8533619
  43.5560706  43.9939116 106.6318575  33.0475041  52.4620006 114.6411562
  33.7484500  53.0956489 114.7940956  32.5770156  52.8034738 113.8807201
  41.1729437  50.8037956 102.9259469  41.4489280  50.6894551 103.8353343
  40.3033935  50.4055441 102.8871642  41.0769868  36.8274722 109.9664218
  40.1632948  37.0578949 110.1346425  41.5062970  36.9113166 110.8178250
  40.8476327  45.0164614 112.4664112  40.1947777  45.2640521 111.8116565
  41.2256707  44.2028752 112.1326589  37.8083501  55.0524307 106.5692282
  37.9905895  54.2345963 107.0320035  38.6316487  55.2691999 106.1317172
  38.1425666  53.9792492 103.8307331  38.6713433  53.4684947 103.2177493
  38.4053886  53.6635022 104.6952864  36.8963900  45.7584425 118.9530149
  36.2204537  45.6578554 119.6232524  37.7191534  45.6023638 119.4166146
  28.6442759  51.9956361 111.5742664  29.2296196  51.2500049 111.7070569
  28.4467597  52.3060318 112.4579328  31.4981414  55.0307609 106.5905107
  30.8291789  55.5153736 106.1069147  31.3594284  55.2776829 107.5048485
  23.2360414  44.5661961 110.2947108  23.2744513  44.0325552 111.0884226
  22.7300706  44.0397167 109.6758085  35.6386683  57.0651352 113.1887765
  36.1904991  57.2282974 113.9536850  35.9792876  57.6555790 112.5167790
  30.6151176  39.4126502 113.7909650  30.6792502  40.2741333 113.3787048
  30.5518296  38.8000504 113.0582008  30.0903448  41.4849635 117.4382684
  30.7175487  41.1026712 118.0520208  29.2331367  41.2663836 117.8038377
  40.4897557  51.8912610 119.0436420  41.0337461  52.5042568 118.5491374
  39.9084402  52.4492188 119.5603433  26.8668991  43.2926064 103.3701039
  27.1622432  42.3836742 103.3168093  25.9657027  43.2713803 103.0482041
  38.7755070  55.0133328 110.1751447  38.6506209  54.2123068 109.6662393
  39.4334161  55.5079521 109.6865417  30.3963238  41.3682060 109.3528588
  29.6749824  41.9818028 109.2136061  31.1856494  41.9039825 109.2745234
  40.8389978  52.8142348 111.8030997  39.8920314  52.6947699 111.7309324
  41.1872751  51.9264846 111.8857259  33.1989552  38.7036487 115.6269239
  33.7223953  38.9498783 116.3895549  32.9801885  39.5356522 115.2072377
  28.5956833  40.9740161 103.4940364  28.2669539  40.0937540 103.3115470
  28.9496203  40.9187830 104.3816753  37.8436412  52.6095064 108.0035350
  37.6961374  51.6811771 108.1842920  38.6689905  52.6315155 107.5192425
  31.7098656  41.2613131 103.8615842  32.0494728  41.7899052 103.1394450
  32.1570776  41.5993537 104.6374408  41.4470533  53.4323623 109.0900222
  42.3717081  53.2266484 108.9524674  41.2785837  53.1840024 109.9989564
  34.4042097  39.6450182 113.3118910  34.0638917  38.8457995 113.7139590
  33.6981103  39.9451893 112.7395743  35.0558569  36.7299494 111.7646233
  35.8784638  36.2559972 111.6425123  35.2996632  37.5089978 112.2644919
  33.6966803  39.7587753 102.0609135  34.4175166  40.1369005 101.5572851
  33.0732107  40.4776630 102.1644113  37.8397926  40.4632902 102.9967467
  38.0561540  41.3457540 102.6956295  37.3591993  40.0719115 102.2673109
  32.5797147  43.4218615 109.5738211  32.4341728  43.7358918 110.4662493
  32.1022351  44.0403515 109.0209110  34.4393530  40.4121163 109.6219101
  34.4255099  39.5162256 109.2851399  35.1565958  40.4191827 110.2557387
  36.2919661  40.8458503 111.6672228  36.0337439  41.7675574 111.6656559
  35.7604701  40.4488938 112.3572693  41.2365850  53.9509290 104.4462314
  41.4102727  53.3855713 103.6936166  41.7294741  54.7510185 104.2641804
  27.0542809  45.9623959 112.5125873  26.5096278  46.7383767 112.6446147
  27.9322159  46.3094764 112.3544994  33.8430426  39.2935543 104.8906671
  33.9646337  38.3652189 105.0897559  33.5532468  39.3074229 103.9784987
  36.7121616  36.9790454 108.0273391  36.7343313  37.0429787 107.0725371
  37.1289676  36.1394962 108.2213897  47.0905241  46.7145713 106.0652614
  47.5336387  45.9653038 105.6671737  46.2131751  46.7055850 105.6826346
  27.8408831  45.0893856 115.4056030  27.0990567  45.2376491 115.9920660
  27.5201576  45.3502121 114.5422779  35.7852494  54.6309834 115.2036420
  36.0939620  54.3858981 116.0759119  36.5827976  54.8356472 114.7155290
  35.8073106  56.7847743 107.4341796  35.3678096  56.2924122 108.1274653
  36.5581223  56.2420711 107.1933871  28.2865445  52.9759284 107.4366424
  29.1123465  52.6763056 107.0565068  27.9359497  52.2066907 107.8856213
  33.2546978  52.3285752 109.5064098  32.6326987  51.6656458 109.2066326
  33.9251845  52.3546884 108.8237746  26.4874050  50.8945611 108.3955358
  25.6505958  50.4667785 108.2139359  26.4597695  51.0878054 109.3326149
  33.3271506  40.8067541 119.0996604  33.3759661  41.6829663 118.7174373
  33.8694020  40.2644934 118.5268247  43.8126351  51.3508664 118.3797741
  43.0221895  51.3332803 117.8402240  43.5759706  51.8896957 119.1346777
  43.9324226  48.2001130 115.6930469  43.9822231  48.0351138 116.6345992
  43.8238150  47.3328389 115.3028350  32.8160485  50.8789676 102.9822558
  32.9648605  51.5625140 102.3289231  33.6226929  50.8594766 103.4972014
  41.2227989  44.1832058 117.0089776  42.1237852  44.0438523 116.7173774
  41.2975963  44.3486513 117.9487954  35.5570794  41.5598913 115.8542962
  34.6874103  41.8532479 115.5825551  35.7930274  42.1439358 116.5750226
  45.4342423  50.6198072 115.9372491  45.1427232  50.9828052 116.7735952
  44.8214554  49.9065080 115.7585823  46.6338106  48.1850951 108.4575061
  47.4684997  48.6240756 108.6212622  46.7697234  47.7089605 107.6383307
  43.6829611  45.7430686 114.4052549  44.1583733  45.9358333 113.5971400
  42.7595177  45.7989872 114.1595933  30.5713118  46.9054853 103.9883627
  30.3259160  46.0017183 104.1863837  30.7409033  46.9072004 103.0463105
  38.2609828  37.7778530 113.3708383  38.7791772  38.5139557 113.0454871
  37.9064961  38.0842523 114.2055142  29.8408766  42.6383211 101.4869789
  29.1478011  42.7127566 100.8309825  29.5960517  41.8743555 102.0091306
  38.5122422  34.1978812 108.8909279  38.7924176  33.5302001 109.5169706
  39.2973029  34.3907908 108.3783943  42.3831280  42.6196446 112.6380855
  43.3348703  42.7194544 112.6593079  42.2134731  41.8274715 113.1478939
  40.4045660  39.7052030 112.8240255  39.8095592  39.9857042 112.1286744
  40.1195357  40.1945931 113.5956997  44.8619358  45.8402566 111.7523154
  44.8295678  44.9018567 111.9382838  45.4719982  45.9186603 111.0188979
  36.7002689  44.7098619  97.7950358  37.6461794  44.5804827  97.8638776
  36.3216934  43.9713281  98.2719786  45.0113847  42.6313609 111.7981437
  44.4952895  41.8472066 111.6111366  45.8953795  42.3032326 111.9627957
  42.6724574  36.3754625 107.7577250  42.4749395  36.0669713 108.6420582
  43.2824279  37.1016264 107.8875180  50.6795908  46.9018573 110.8929191
  51.4099297  46.6403861 111.4536894  50.0702854  46.1647295 110.9331259
  48.7611205  45.0426435 111.4903642  48.0344369  44.9082400 110.8820134
  48.3458492  45.3503264 112.2960360  36.5841382  48.7616365 119.2551015
  37.5044391  48.9394964 119.4491062  36.5490965  47.8172411 119.1030714
  34.8845606  42.6348595  97.7305243  33.9777062  42.3381708  97.8067957
  35.1621587  42.3378414  96.8639530  25.8023547  43.9554959 108.1804290
  25.4826331  43.1020267 107.8878664  25.2556975  44.1703537 108.9362257
  29.5803454  46.6717400 111.8973796  29.7989464  47.6034508 111.9161830
  29.9929228  46.3125374 112.6828600  36.5007672  37.1785485 103.8849485
  35.6908400  36.8332570 104.2604731  37.1892089  36.8693029 104.4737096
  38.4298220  36.2563532 105.5073781  38.9829259  36.6758985 106.1663805
  38.6668307  35.3299280 105.5496737  34.4531319  42.2450606 121.2876545
  34.3528046  43.1944963 121.2188636  34.2352862  41.9168844 120.4152615
  33.6544391  39.4935531  97.8717223  34.5163555  39.8190429  98.1313040
  33.8394735  38.7067027  97.3590288  25.6711807  47.5757870 110.1497411
  24.9775278  47.1611823 109.6367366  26.4184798  47.6178407 109.5530830
  41.8077027  38.3664057 105.0152446  41.2275696  39.0248861 104.6330498
  41.5412960  37.5441402 104.6039863  40.2580594  37.7669115 107.2173766
  40.7580372  37.8785649 106.4088085  40.9016202  37.4630168 107.8574574
  34.3162590  45.6747744 120.1041607  33.8329671  46.4748105 120.3105496
  34.4023529  45.6855689 119.1509051  27.5848549  47.5076124 108.0263426
  27.5619237  47.6063811 107.0745309  27.8949186  48.3541275 108.3480592
  30.2435927  49.5652279 112.1410041  31.1979181  49.5336221 112.0739972
  30.0448451  49.1042903 112.9560267  30.8335309  48.1353395 114.7080838
  31.6528198  48.6297474 114.7315676  31.1072117  47.2185363 114.6798406
  40.5901905  40.5264147 104.0708794  39.7027760  40.8113798 103.8528989
  41.0055894  40.3657911 103.2236071  43.9416442  40.5510668 107.7863133
  44.7176832  41.0407121 108.0587750  43.2164576  40.9768723 108.2435003
  46.3789000  41.2638288 108.8437074  46.9733491  41.0234024 108.1330382
  46.4515584  40.5445418 109.4710610  28.5986156  55.1071899 109.1580239
  28.4640624  54.3472300 108.5918237  28.1818218  55.8312798 108.6909027
  40.5642929  46.0418683 104.2859084  40.5078131  46.4987235 103.4466716
  41.1171272  45.2809368 104.1081927  44.3747735  41.8308415 105.1109204
  44.1184669  41.4305051 105.9417411  43.7500603  42.5452209 104.9859343
  48.6860073  44.5704489 107.6180495  48.1259631  44.6397678 108.3912057
  48.0803576  44.3945473 106.8979991  31.7555282  56.0041216 109.3698681
  31.6387666  56.9486648 109.2677372  30.9347728  55.7014777 109.7584480
  41.2977708  47.2323465 101.5811613  41.2426512  47.0667736 100.6400057
  40.6723764  47.9399498 101.7373803  26.0870223  42.4691529 115.4073035
  26.7329087  41.9590483 115.8960261  25.8787375  43.2060211 115.9816461
  38.6123616  49.5372377 120.9065176  39.4814775  49.7113029 120.5451811
  38.1330367  50.3566793 120.7840905  34.6073834  36.7331574 101.1596932
  34.5952504  37.6773414 101.3165203  35.4997256  36.5501719 100.8656393
  32.7809796  56.6569478 112.5854610  33.6837043  56.6893088 112.9021105
  32.5547166  55.7269928 112.6000945  34.5363398  55.4100464 109.2464688
  33.5859029  55.4102326 109.1329061  34.8395884  54.6633199 108.7300723
  38.4225953  33.3274350 105.4142868  37.6558349  32.7732837 105.5599551
  38.8336658  33.3996219 106.2757020  50.2716091  61.2461002 110.3110451
  50.9094501  61.1267750 109.6073791  50.1536934  62.1941846 110.3698403
  47.0805798  61.1988431 110.2471975  46.7424309  61.0829495 109.3592510
  47.9495566  60.7979596 110.2272982  42.9392613  63.0523907 106.2368866
  42.3757478  62.9613844 105.4685154  42.8245008  62.2323811 106.7171359
  47.5625581  62.3523282 116.2058181  47.5514221  61.9576081 115.3338685
  47.7246220  61.6189355 116.7991952  40.4857045  64.5475099 109.0753087
  41.2778337  64.2065923 108.6599386  40.7253695  64.6570074 109.9955240
  48.5192172  66.7194875 101.5483331  47.8680152  67.3048955 101.1617345
  49.3136535  67.2501070 101.6078369  42.4447799  63.8084012 101.9470466
  43.2178675  63.2612999 101.8083341  42.7973198  64.6728261 102.1584927
  44.2832842  65.1360394 115.1537365  43.9922708  66.0406025 115.0384031
  44.9189826  65.1776922 115.8681434  45.2089049  62.5137243 111.7438725
  45.8052621  62.2893265 111.0295687  45.2664020  61.7721988 112.3464172
  44.7814077  59.9676678  99.5788916  45.0339598  59.4458199  98.8172379
  43.8438636  59.8042823  99.6815599  49.8257360  58.9712456 107.3863659
  50.6120449  58.5531879 107.0354076  50.0896064  59.8758549 107.5545307
  49.9967437  64.4085307 102.0852316  49.3613270  64.4819933 102.7973220
  49.6664844  64.9978905 101.4071395  55.2265787  58.9087690 108.2896637
  55.9590959  58.3386906 108.5234467  54.4705143  58.5209290 108.7303143
  44.5010366  61.8704784 101.7813290  44.3846624  61.1949687 102.4494375
  44.6112626  61.3837158 100.9645444  46.8441907  61.3314931 105.4859980
  46.4800114  60.8045552 106.1972901  47.7009023  60.9413400 105.3126465
  52.7491207  52.6209264 112.7491246  52.4174532  53.4904675 112.5252461
  52.1536821  52.3045548 113.4285276  49.2422727  64.8221810 112.1487159
  48.9423450  65.7246848 112.0402966  48.8973786  64.5553993 113.0008311
  42.6935208  61.2735606 108.1823863  41.7685705  61.1411821 108.3901555
  42.9419622  62.0529826 108.6793805  52.6419871  57.3404350 109.8284596
  51.7336748  57.2719758 109.5343357  52.5907466  57.8176295 110.6566421
  46.4636615  58.8162488 101.4667995  46.3436240  59.2619539 102.3053475
  45.7689203  59.1647806 100.9081533  40.0544019  60.9168880 109.0167652
  40.1836401  61.1703359 109.9307064  39.3741471  61.5096588 108.6972307
  44.2243507  71.5866130 105.1158126  44.1467536  72.5373955 105.1946607
  43.6205150  71.2412002 105.7733053  46.7160736  58.7593995 117.7719493
  45.9394070  59.3187916 117.7622358  47.3551299  59.2450778 118.2934363
  54.5081517  55.5420788 111.6062470  53.8655897  55.8353321 110.9602264
  54.0036446  55.4273709 112.4115667  52.1621681  59.2883961 102.2948329
  53.0739537  59.5211348 102.1196027  51.6531328  59.8721006 101.7323408
  44.9707109  61.5679449 117.3337460  45.7121793  62.1064493 117.0572284
  44.2644094  62.1945738 117.4909012  50.4462448  63.7108589 115.9309622
  50.8545804  63.2691000 115.1864254  49.7239710  63.1361217 116.1843815
  46.7993518  58.6481196 113.3043179  47.6454714  59.0720610 113.4477828
  46.7392156  57.9914820 113.9981742  50.7691263  64.2709780 109.6861911
  50.1400125  64.4355494 108.9837978  50.3816925  64.6851389 110.4572875
  54.6480495  65.2064218 107.0406274  53.9631533  65.5863119 106.4903308
  54.7324344  65.8159544 107.7738222  49.9492964  56.3085564 114.9624352
  49.7053896  57.0627625 114.4258628  50.2252894  56.6870912 115.7971599
  51.9031426  62.8524177 113.6401618  52.1148322  63.4955937 112.9635999
  51.8561175  62.0186493 113.1723548  49.5057655  55.4641997 110.5438190
  48.6442134  55.7623251 110.8354928  49.5320090  55.6812396 109.6119223
  46.3219225  64.0084188 106.9511996  46.7857570  64.2871891 106.1616618
  46.0576023  63.1067633 106.7685086  43.2143306  63.5555669 109.8891759
  43.7844663  63.9842938 109.2509243  43.8051418  63.2738254 110.5875945
  45.2588111  60.1307340 103.7601561  45.9612154  60.5828384 104.2275487
  44.9268739  59.4891159 104.3881454  43.7068472  58.7219097 118.1352770
  43.0767133  59.4035378 118.3688167  43.6004560  58.6102179 117.1905908
  39.0013445  58.3890893 109.0618694  38.2112499  58.6448422 108.5858805
  39.4924692  59.2039231 109.1670735  53.0177254  65.7296132 111.8123975
  53.8394698  65.3276319 111.5306657  53.0139657  65.6264366 112.7640091
  40.9528190  58.7535472 106.0202171  40.1559354  58.8654166 106.5385667
  40.7253782  59.0922124 105.1543062  46.7833858  65.2780175 113.9684686
  46.8478290  65.7400583 114.8042858  46.0744782  64.6477540 114.0966996
  37.2851148  58.6421383 111.4933685  37.5359186  59.5268393 111.7591261
  37.8210696  58.4625985 110.7208777  61.1083247  62.0734881 108.1608947
  60.3546956  61.5042279 108.0052951  61.2430789  62.0397545 109.1079581
  46.4981876  66.9448283 103.8363666  46.3627550  67.7899819 104.2648514
  47.0391688  67.1467561 103.0729600  42.9849215  53.0239863 120.4978021
  42.5916161  52.4706061 121.1725665  43.8015355  53.3350441 120.8884539
  39.9511273  64.4623721 104.4091591  40.4635793  65.2566971 104.5597156
  40.6033986  63.7650011 104.3425193  41.7606158  67.5789477 106.4914344
  41.9372786  68.5007442 106.3035328  42.5562991  67.2647896 106.9208724
  45.9017176  54.4397742 118.0898278  46.6426890  55.0404895 118.0102740
  46.1335099  53.6975380 117.5316320  41.0458514  59.6254109 116.3676507
  40.9312029  58.7239366 116.6683606  40.1903032  59.8717806 116.0161324
  48.1250352  67.5671849 117.9664008  47.6814206  66.7808228 117.6484913
  48.7867565  67.7551000 117.3007899  42.8837473  69.0967651 112.4924687
  43.4344898  68.9684714 111.7201681  42.0448949  69.3962540 112.1419579
  50.2231590  67.8474649 115.9945409  50.2050065  68.6683530 115.5025679
  51.1451510  67.7228725 116.2195551  46.6804644  65.3618779 116.8368918
  47.2132981  64.6007067 116.6068226  46.1518725  65.0692431 117.5793072
  49.8474339  50.4678845 112.3662559  49.5038608  51.3580486 112.2901670
  50.2153302  50.2780502 111.5032144  37.9160190  62.7912375 105.1851162
  38.7535412  63.2009384 104.9684869  38.0938457  61.8511817 105.1551356
  49.8124622  60.4587456 100.8734995  49.2971245  61.2292061 101.1123382
  49.5401930  59.7852592 101.4968056  47.3971733  55.3037157 105.9320233
  46.5413329  54.9144007 105.7525872  47.8098685  55.3829117 105.0720018
  48.9270879  52.8383500 110.3311793  48.4235675  52.8013635 109.5179598
  49.2201486  53.7476243 110.3908449  45.1713765  52.9222230 109.3377974
  46.0366762  52.7265038 108.9783864  45.2391274  52.6932581 110.2647331
  54.7858896  63.2119811 102.8088168  54.0088339  62.8730970 102.3643330
  55.4650377  63.2172434 102.1343133  49.6010925  58.3314548 102.6994776
  49.2961061  58.6460697 103.5504919  50.5541367  58.4095968 102.7422109
  48.0457357  64.4904771 104.3487730  47.5178718  63.7557531 104.0360967
  47.5444860  65.2679448 104.1027698  53.0250203  62.6853792 109.4654776
  52.3673877  63.3753053 109.5534905  53.8290602  63.0750224 109.8088762
  42.7776084  55.1524438 106.7094341  43.3519836  54.9299619 105.9767534
  43.3647067  55.2213132 107.4622943  51.8355662  61.0398165 107.5158718
  52.3487543  61.6728156 108.0180428  52.4856886  60.4399360 107.1502078
  46.1909957  62.3084982  97.3522703  45.2837019  62.0774235  97.5513852
  46.6880989  61.5122601  97.5396684  49.0978036  71.0182489 100.2719389
  48.4239735  71.3214186 100.8804347  49.4843858  71.8211569  99.9224846
  48.3136493  58.5147620 109.7617058  47.3959054  58.7362567 109.6038746
  48.7296636  58.5893931 108.9028766  49.0971540  59.9139036 104.8919739
  49.8443359  60.4260433 104.5826861  49.3663130  59.5923088 105.7524132
  47.3698190  62.4097576 101.8746693  46.4609410  62.1256609 101.9719163
  47.3993274  62.8296655 101.0150000  52.6017458  66.0204166 105.6437860
  52.1479785  65.1795076 105.7003051  51.9711425  66.6565564 105.9812641
  51.5450377  56.9496152 106.8738528  50.8073134  56.4373538 107.2048770
  51.7977151  56.5096534 106.0621805  51.0450397  67.8580663 106.5787679
  51.3373371  68.4185720 105.8600044  51.5549018  68.1509224 107.3340838
  51.6462005  49.7272404 107.4680297  51.9520882  48.8669767 107.1806212
  52.3714610  50.3190024 107.2679291  37.9386361  60.1303091 105.8561895
  37.7410761  59.5372451 105.1312962  37.3833025  59.8255301 106.5737834
  45.9183085  60.0226197 107.9756488  45.9731694  59.0700033 107.8998965
  45.1074287  60.1785636 108.4597787  47.0674278  63.9506320  99.2134771
  46.6293708  63.2342179  98.7540409  47.8084719  64.1782435  98.6519863
  43.8575444  58.6403257 105.7346867  43.0443310  58.9397427 106.1412059
  44.3534439  58.2458946 106.4521349  46.0084022  68.6361014 107.6681132
  45.9660201  68.8621860 106.7389664  46.9246721  68.4024388 107.8166933
  49.4549656  59.1045081 114.5661761  49.8099044  59.3316554 115.4256227
  50.1021787  59.4363458 113.9439016  55.1847393  62.2263517 105.2711090
  55.0465292  62.4165113 104.3432279  54.8283612  62.9882900 105.7279141
  43.3489519  56.2121612 111.3508102  43.9888899  56.0710371 110.6531065
  42.5167050  55.9256126 110.9746704  55.2116773  64.2940044 110.2822362
  55.6453279  64.2015333 111.1305416  55.9248353  64.2697545 109.6442378
  44.1249823  65.5124043 107.4643095  44.9190422  65.0174363 107.2625669
  43.4141515  64.9841906 107.1010800  48.9444668  67.8942138 111.8155462
  48.9981690  68.4633075 112.5833178  48.0759449  68.0644023 111.4509499
  40.4332587  59.6567124 103.5402847  39.5030175  59.5951580 103.7572809
  40.5290059  59.1343077 102.7439488  40.3518136  56.1821937 106.1281089
  40.6124953  57.0967271 106.0190249  41.1735308  55.7146380 106.2777702
  41.8243061  57.5959694 113.2979913  42.4966114  57.3877057 112.6492562
  40.9972847  57.3981780 112.8585146  56.0732322  64.3363745 112.8155247
  56.2668212  65.2409555 113.0614522  55.9732940  63.8771164 113.6493832
  47.7268633  54.2221635 115.3145574  47.0796548  54.9211585 115.2210051
  48.4969648  54.6557779 115.6821822  51.1347431  64.4870488 118.3896128
  50.9832937  64.2581039 117.4726211  51.1252110  65.4441089 118.4027473
  47.9032767  62.0602400 113.3742394  48.8324827  62.2113560 113.2011361
  47.4823797  62.1486421 112.5191040  46.7021099  66.0853065 111.1440932
  46.5632185  65.7171849 112.0166870  45.9135695  66.6000704 110.9724889
  47.2969251  71.1862161 102.4866468  47.4721007  70.7150204 103.3012091
  46.6102039  71.8127927 102.7147729  48.2526314  65.4634667 108.5329769
  47.9176147  65.4235437 109.4287419  47.7530260  64.7979383 108.0600180
  42.2270558  60.8702297 114.0582351  42.0890356  60.1382536 114.6593890
  43.1375482  60.7811198 113.7766538  51.1885506  62.8090702  98.8066829
  50.5714677  62.0837530  98.7099882  50.7201994  63.5700062  98.4633903
  44.8552859  60.5822257 113.5466030  45.5652477  59.9415449 113.5052649
  44.8122167  60.8335152 114.4692211  52.8439638  67.5189610 116.4672609
  52.7852184  66.8348830 115.8003192  53.2459156  68.2608600 116.0153235
  43.5681793  57.5687475 115.3661670  43.0319150  57.1178213 116.0183266
  42.9798501  57.7033384 114.6232134  41.8630336  74.3351524 109.2606328
  42.1026935  74.9670048 109.9385347  41.0199533  73.9839564 109.5471688
  52.8457045  65.4829194 114.6986589  51.9583824  65.1455116 114.8212988
  53.4155596  64.7512225 114.9355354  34.4986192  61.8153286 108.0229640
  35.1857232  61.5015016 107.4350656  34.3434321  62.7194650 107.7496892
  39.3020914  56.7043482 112.4514664  39.2179103  56.0969152 111.7165074
  38.4803620  57.1952501 112.4524160  46.3758198  70.1430646 111.6647832
  46.3028370  70.9485618 112.1767137  45.9335591  70.3422612 110.8395854
  46.1647978  69.3802416 105.1750654  45.3815500  69.9224097 105.2688878
  46.8640723  69.8976396 105.5744895  49.4744628  55.1897046 107.8184859
  49.9713327  54.4367008 107.4985929  48.7031609  55.2261363 107.2528069
  57.3274385  60.8937411 109.4603151  57.3164262  61.7762127 109.0897084
  56.4591765  60.5408962 109.2657688  48.8356882  70.0417480 113.8205991
  49.5484854  70.6764945 113.7481892  48.3446910  70.1381346 113.0045993
  50.5574409  63.9468733 105.3923283  49.6230687  64.0670196 105.2227987
  50.7351077  63.0441200 105.1283292  46.0579597  57.3314429 107.5456544
  45.6877384  56.7785469 108.2337449  46.5538689  56.7272562 106.9931544
  53.9446960  59.7886052 105.9273317  54.4107412  60.6214044 105.8533619
  54.3954460  59.3231034 106.6318575  43.8868795  67.7911924 114.6411562
  44.5878255  68.4248407 114.7940956  43.4163910  68.1326655 113.8807201
  52.0123191  66.1329874 102.9259469  52.2883035  66.0186468 103.8353343
  51.1427690  65.7347359 102.8871642  51.9163623  52.1566639 109.9664218
  51.0026703  52.3870866 110.1346425  52.3456724  52.2405083 110.8178250
  51.6870081  60.3456531 112.4664112  51.0341531  60.5932439 111.8116565
  52.0650461  59.5320670 112.1326589  48.6477255  70.3816225 106.5692282
  48.8299650  69.5637880 107.0320035  49.4710241  70.5983917 106.1317172
  48.9819421  69.3084410 103.8307331  49.5107187  68.7976864 103.2177493
  49.2447640  68.9926940 104.6952864  47.7357654  61.0876342 118.9530149
  47.0598291  60.9870472 119.6232524  48.5585288  60.9315556 119.4166146
  39.4836513  67.3248279 111.5742664  40.0689950  66.5791967 111.7070569
  39.2861352  67.6352236 112.4579328  42.3375169  70.3599526 106.5905107
  41.6685544  70.8445654 106.1069147  42.1988038  70.6068747 107.5048485
  34.0754168  59.8953879 110.2947108  34.1138268  59.3617470 111.0884226
  33.5694461  59.3689085 109.6758085  46.4780437  72.3943270 113.1887765
  47.0298745  72.5574891 113.9536850  46.8186631  72.9847708 112.5167790
  41.4544930  54.7418420 113.7909650  41.5186257  55.6033251 113.3787048
  41.3912051  54.1292421 113.0582008  40.9297203  56.8141552 117.4382684
  41.5569242  56.4318630 118.0520208  40.0725122  56.5955754 117.8038377
  51.3291311  67.2204527 119.0436420  51.8731215  67.8334486 118.5491374
  50.7478156  67.7784106 119.5603433  37.7062746  58.6217981 103.3701039
  38.0016187  57.7128660 103.3168093  36.8050781  58.6005721 103.0482041
  49.6148824  70.3425245 110.1751447  49.4899964  69.5414985 109.6662393
  50.2727916  70.8371439 109.6865417  41.2356993  56.6973978 109.3528588
  40.5143578  57.3109946 109.2136061  42.0250248  57.2331743 109.2745234
  51.6783733  68.1434265 111.8030997  50.7314068  68.0239617 111.7309324
  52.0266506  67.2556764 111.8857259  44.0383306  54.0328404 115.6269239
  44.5617708  54.2790701 116.3895549  43.8195639  54.8648439 115.2072377
  48.6830166  67.9386982 108.0035350  48.5355129  67.0103689 108.1842920
  49.5083660  67.9607072 107.5192425  42.5492410  56.5905049 103.8615842
  42.8888483  57.1190970 103.1394450  42.9964531  56.9285455 104.6374408
  52.2864288  68.7615540 109.0900222  53.2110835  68.5558402 108.9524674
  52.1179591  68.5131942 109.9989564  45.2435851  54.9742100 113.3118910
  44.9032672  54.1749913 113.7139590  44.5374857  55.2743810 112.7395743
  45.8952323  52.0591412 111.7646233  46.7178392  51.5851890 111.6425123
  46.1390387  52.8381896 112.2644919  48.6791680  55.7924819 102.9967467
  48.8955295  56.6749457 102.6956295  48.1985748  55.4011033 102.2673109
  43.4190902  58.7510533 109.5738211  43.2735482  59.0650836 110.4662493
  42.9416105  59.3695433 109.0209110  45.2787285  55.7413081 109.6219101
  45.2648853  54.8454174 109.2851399  45.9959713  55.7483744 110.2557387
  47.1313415  56.1750421 111.6672228  46.8731193  57.0967491 111.6656559
  46.5998456  55.7780855 112.3572693  52.0759604  69.2801208 104.4462314
  52.2496482  68.7147630 103.6936166  52.5688495  70.0802103 104.2641804
  37.8936564  61.2915877 112.5125873  37.3490032  62.0675685 112.6446147
  38.7715914  61.6386681 112.3544994  47.5515371  52.3082371 108.0273391
  47.5737068  52.3721704 107.0725371  47.9683430  51.4686880 108.2213897
  57.9298995  62.0437631 106.0652614  58.3730141  61.2944956 105.6671737
  57.0525506  62.0347767 105.6826346  53.0634777  68.5967972 101.5459212
  53.7585681  69.2174665 101.7646527  53.4057927  67.7463324 101.8211590
  38.6802586  60.4185773 115.4056030  37.9384322  60.5668409 115.9920660
  38.3595330  60.6794039 114.5422779  54.9626200  66.0467678 103.0746543
  55.4877524  66.3854951 102.3495863  54.8748552  65.1114693 102.8909678
  46.6246248  69.9601751 115.2036420  46.9333375  69.7150898 116.0759119
  47.4221730  70.1648390 114.7155290  46.6466860  72.1139661 107.4341796
  46.2071851  71.6216040 108.1274653  47.3974977  71.5712629 107.1933871
  39.1259199  68.3051202 107.4366424  39.9517219  68.0054974 107.0565068
  38.7753251  67.5358824 107.8856213  44.0940733  67.6577670 109.5064098
  43.4720742  66.9948375 109.2066326  44.7645600  67.6838802 108.8237746
  37.3267805  66.2237528 108.3955358  36.4899713  65.7959703 108.2139359
  37.2991450  66.4169972 109.3326149  44.1665260  56.1359458 119.0996604
  44.2153416  57.0121581 118.7174373  44.7087774  55.5936851 118.5268247
  54.6520106  66.6800581 118.3797741  53.8615650  66.6624720 117.8402240
  54.4153460  67.2188875 119.1346777  54.7717981  63.5293048 115.6930469
  54.8215986  63.3643055 116.6345992  54.6631904  62.6620307 115.3028350
  43.6554240  66.2081594 102.9822558  43.8042360  66.8917058 102.3289231
  44.4620683  66.1886684 103.4972014  52.0621743  59.5123976 117.0089776
  52.9631606  59.3730441 116.7173774  52.1369718  59.6778431 117.9487954
  46.3964549  56.8890831 115.8542962  45.5267858  57.1824397 115.5825551
  46.6324029  57.4731276 116.5750226  56.2736178  65.9489989 115.9372491
  55.9820986  66.3119970 116.7735952  55.6608309  65.2356998 115.7585823
  57.4731860  63.5142869 108.4575061  58.3078751  63.9532673 108.6212622
  57.6090989  63.0381522 107.6383307  54.5223366  61.0722604 114.4052549
  54.9977488  61.2650250 113.5971400  53.5988931  61.1281790 114.1595933
  41.4106873  62.2346771 103.9883627  41.1652914  61.3309101 104.1863837
  41.5802787  62.2363922 103.0463105  49.1003582  53.1070448 113.3708383
  49.6185526  53.8431474 113.0454871  48.7458715  53.4134441 114.2055142
  49.3516177  49.5270730 108.8909279  49.6317930  48.8593919 109.5169706
  50.1366784  49.7199826 108.3783943  47.1549645  68.7029724 100.4534306
  46.5823612  69.3219911 100.0004778  47.7282439  69.2529086 100.9874228
  53.2225035  57.9488364 112.6380855  54.1742458  58.0486462 112.6593079
  53.0528485  57.1566633 113.1478939  51.2439414  55.0343947 112.8240255
  50.6489347  55.3148960 112.1286744  50.9589111  55.5237848 113.5956997
  50.3746905  68.9866874 101.5842888  51.3077578  68.9212436 101.7875764
  50.2870118  69.8223141 101.1257421  53.0034922  68.3032744  98.5446836
  52.9248553  67.9692608  99.4382593  53.8244588  68.7954512  98.5438308
  55.7013113  61.1694484 111.7523154  55.6689433  60.2310484 111.9382838
  56.3113736  61.2478520 111.0188979  55.8507601  57.9605527 111.7981437
  55.3346650  57.1763984 111.6111366  56.7347550  57.6324244 111.9627957
  53.5118328  51.7046543 107.7577250  53.3143149  51.3961631 108.6420582
  54.1218034  52.4308182 107.8875180  61.5189663  62.2310491 110.8929191
  62.2493051  61.9695779 111.4536894  60.9096608  61.4939213 110.9331259
  59.6004960  60.3718353 111.4903642  58.8738123  60.2374318 110.8820134
  59.1852247  60.6795182 112.2960360  47.4235136  64.0908283 119.2551015
  48.3438146  64.2686882 119.4491062  47.3884719  63.1464328 119.1030714
  36.6417301  59.2846877 108.1804290  36.3220085  58.4312185 107.8878664
  36.0950729  59.4995455 108.9362257  40.4197209  62.0009318 111.8973796
  40.6383218  62.9326425 111.9161830  40.8322982  61.6417292 112.6828600
  45.2925074  57.5742523 121.2876545  45.1921801  58.5236880 121.2188636
  45.0746616  57.2460762 120.4152615  36.5105561  62.9049788 110.1497411
  35.8169033  62.4903741 109.6367366  37.2578552  62.9470325 109.5530830
  52.6470782  53.6955975 105.0152446  52.0669451  54.3540779 104.6330498
  52.3806715  52.8733319 104.6039863  51.0974348  53.0961032 107.2173766
  51.5974127  53.2077567 106.4088085  51.7409956  52.7922085 107.8574574
  45.1556344  61.0039662 120.1041607  44.6723426  61.8040022 120.3105496
  45.2417283  61.0147607 119.1509051  38.4242304  62.8368042 108.0263426
  38.4012992  62.9355729 107.0745309  38.7342940  63.6833193 108.3480592
  41.0829682  64.8944197 112.1410041  42.0372935  64.8628139 112.0739972
  40.8842205  64.4334821 112.9560267  41.6729064  63.4645313 114.7080838
  42.4921953  63.9589392 114.7315676  41.9465871  62.5477281 114.6798406
  51.4295660  55.8556065 104.0708794  50.5421515  56.1405716 103.8528989
  51.8449649  55.6949829 103.2236071  54.7810196  55.8802586 107.7863133
  55.5570586  56.3699039 108.0587750  54.0558330  56.3060640 108.2435003
  57.2182755  56.5930205 108.8437074  57.8127245  56.3525941 108.1330382
  57.2909338  55.8737336 109.4710610  39.4379910  70.4363816 109.1580239
  39.3034378  69.6764217 108.5918237  39.0211973  71.1604716 108.6909027
  50.5738873  65.6200740  98.1656814  51.2774723  65.8250742  98.7814470
  49.8501522  66.1877502  98.4305897  51.4036684  61.3710601 104.2859084
  51.3471885  61.8279153 103.4466716  51.9565026  60.6101286 104.1081927
  55.2141490  57.1600333 105.1109204  54.9578424  56.7596969 105.9417411
  54.5894358  57.8744127 104.9859343  59.5253827  59.8996406 107.6180495
  58.9653385  59.9689596 108.3912057  58.9197331  59.7237391 106.8979991
  42.5949036  71.3333133 109.3698681  42.4781420  72.2778566 109.2677372
  41.7741482  71.0306695 109.7584480  52.4825571  66.0583269 100.2155274
  53.3171175  65.6264468 100.0332749  52.3209914  65.8865283 101.1432168
  52.1371463  62.5615382 101.5811613  52.0820267  62.3959654 100.6400057
  51.5117518  63.2691415 101.7373803  36.9263978  57.7983447 115.4073035
  37.5722841  57.2882401 115.8960261  36.7181129  58.5352128 115.9816461
  49.4517370  64.8664294 120.9065176  50.3208530  65.0404946 120.5451811
  48.9724122  65.6858711 120.7840905  43.6203550  71.9861395 112.5854610
  44.5230797  72.0185005 112.9021105  43.3940920  71.0561846 112.6000945
  45.3757152  70.7392382 109.2464688  44.4252783  70.7394243 109.1329061
  45.6789638  69.9925116 108.7300723  49.2619708  48.6566268 105.4142868
  48.4952104  48.1024755 105.5599551  49.6730413  48.7288137 106.2757020
  41.2661469  54.9451064 119.5048050  42.1292930  54.5887869 119.7151374
  40.6926880  54.6064959 120.1923454  61.1109846  76.5752920 110.3110451
  61.7488256  76.4559668 109.6073791  60.9930689  77.5233764 110.3698403
  57.9199552  76.5280348 110.2471975  57.5818064  76.4121413 109.3592510
  58.7889320  76.1271513 110.2272982  53.7786368  78.3815825 106.2368866
  53.2151233  78.2905762 105.4685154  53.6638763  77.5615729 106.7171359
  58.4019335  77.6815200 116.2058181  58.3907976  77.2867998 115.3338685
  58.5639975  76.9481273 116.7991952  51.3250800  79.8767016 109.0753087
  52.1172092  79.5357841 108.6599386  51.5647450  79.9861991 109.9955240
  59.3585927  82.0486792 101.5483331  58.7073906  82.6340873 101.1617345
  60.1530289  82.5792987 101.6078369  53.2841554  79.1375930 101.9470466
  54.0572430  78.5904917 101.8083341  53.6366953  80.0020179 102.1584927
  55.1226596  80.4652312 115.1537365  54.8316462  81.3697943 115.0384031
  55.7583581  80.5068839 115.8681434  56.0482803  77.8429160 111.7438725
  56.6446375  77.6185183 111.0295687  56.1057775  77.1013906 112.3464172
  55.6207831  75.2968596  99.5788916  55.8733352  74.7750117  98.8172379
  54.6832391  75.1334741  99.6815599  60.6651114  74.3004374 107.3863659
  61.4514204  73.8823797 107.0354076  60.9289819  75.2050466 107.5545307
  60.8361192  79.7377224 102.0852316  60.2007025  79.8111851 102.7973220
  60.5058598  80.3270823 101.4071395  66.0659541  74.2379607 108.2896637
  66.7984713  73.6678824 108.5234467  65.3098897  73.8501208 108.7303143
  55.3404120  77.1996702 101.7813290  55.2240378  76.5241605 102.4494375
  55.4506380  76.7129076 100.9645444  57.6835661  76.6606849 105.4859980
  57.3193868  76.1337470 106.1972901  58.5402777  76.2705318 105.3126465
  63.5884962  67.9501181 112.7491246  63.2568287  68.8196592 112.5252461
  62.9930575  67.6337465 113.4285276  57.3241148  71.6896748 100.4821328
  57.4915550  72.5576985 100.8491799  57.1338317  71.8524030  99.5582617
  60.0816481  80.1513727 112.1487159  59.7817204  81.0538766 112.0402966
  59.7367541  79.8845911 113.0008311  53.5328963  76.6027524 108.1823863
  52.6079459  76.4703738 108.3901555  53.7813376  77.3821743 108.6793805
  63.4813625  72.6696267 109.8284596  62.5730502  72.6011676 109.5343357
  63.4301221  73.1468212 110.6566421  57.3030369  74.1454406 101.4667995
  57.1829994  74.5911457 102.3053475  56.6082957  74.4939724 100.9081533
  50.8937774  76.2460798 109.0167652  51.0230155  76.4995277 109.9307064
  50.2135225  76.8388506 108.6972307  55.0637261  86.9158048 105.1158126
  54.9861291  87.8665873 105.1946607  54.4598905  86.5703920 105.7733053
  57.5554491  74.0885913 117.7719493  56.7787825  74.6479833 117.7622358
  58.1945054  74.5742696 118.2934363  65.3475272  70.8712706 111.6062470
  64.7049652  71.1645239 110.9602264  64.8430200  70.7565626 112.4115667
  63.0015435  74.6175879 102.2948329  63.9133291  74.8503266 102.1196027
  62.4925082  75.2012923 101.7323408  55.8100863  76.8971366 117.3337460
  56.5515548  77.4356410 117.0572284  55.1037849  77.5237655 117.4909012
  61.2856203  79.0400507 115.9309622  61.6939559  78.5982917 115.1864254
  60.5633464  78.4653134 116.1843815  57.6387273  73.9773114 113.3043179
  58.4848468  74.4012527 113.4477828  57.5785911  73.3206738 113.9981742
  61.6085017  79.6001698 109.6861911  60.9793880  79.7647412 108.9837978
  61.2210680  80.0143307 110.4572875  65.4874249  80.5356135 107.0406274
  64.8025288  80.9155037 106.4903308  65.5718099  81.1451462 107.7738222
  60.7886718  71.6377482 114.9624352  60.5447650  72.3919543 114.4258628
  61.0646649  72.0162830 115.7971599  62.7425181  78.1816094 113.6401618
  62.9542076  78.8247854 112.9635999  62.6954929  77.3478411 113.1723548
  60.3451410  70.7933915 110.5438190  59.4835889  71.0915169 110.8354928
  60.3713845  71.0104314 109.6119223  57.1612979  79.3376106 106.9511996
  57.6251325  79.6163809 106.1616618  56.8969777  78.4359550 106.7685086
  54.0537060  78.8847587 109.8891759  54.6238417  79.3134856 109.2509243
  54.6445172  78.6030172 110.5875945  56.0981865  75.4599258 103.7601561
  56.8005909  75.9120302 104.2275487  55.7662494  74.8183077 104.3881454
  54.5462227  74.0511015 118.1352770  53.9160888  74.7327295 118.3688167
  54.4398315  73.9394096 117.1905908  49.8407199  73.7182811 109.0618694
  49.0506253  73.9740339 108.5858805  50.3318447  74.5331149 109.1670735
  63.8571009  81.0588050 111.8123975  64.6788453  80.6568237 111.5306657
  63.8533412  80.9556284 112.7640091  51.7921945  74.0827390 106.0202171
  50.9953108  74.1946084 106.5385667  51.5647537  74.4214042 105.1543062
  57.6227612  80.6072093 113.9684686  57.6872045  81.0692500 114.8042858
  56.9138536  79.9769458 114.0966996  48.1244902  73.9713301 111.4933685
  48.3752941  74.8560311 111.7591261  48.6604451  73.7917903 110.7208777
  71.9477002  77.4026798 108.1608947  71.1940710  76.8334196 108.0052951
  72.0824543  77.3689463 109.1079581  57.3375630  82.2740201 103.8363666
  57.2021305  83.1191736 104.2648514  57.8785443  82.4759478 103.0729600
  53.8242970  68.3531780 120.4978021  53.4309915  67.7997979 121.1725665
  54.6409110  68.6642359 120.8884539  50.7905027  79.7915639 104.4091591
  51.3029548  80.5858889 104.5597156  51.4427740  79.0941929 104.3425193
  52.5999912  82.9081395 106.4914344  52.7766540  83.8299360 106.3035328
  53.3956746  82.5939814 106.9208724  56.7410931  69.7689660 118.0898278
  57.4820644  70.3696813 118.0102740  56.9728853  69.0267297 117.5316320
  51.8852269  74.9546027 116.3676507  51.7705784  74.0531284 116.6683606
  51.0296786  75.2009724 116.0161324  58.9644106  82.8963767 117.9664008
  58.5207961  82.1100146 117.6484913  59.6261320  83.0842918 117.3007899
  53.7231228  84.4259569 112.4924687  54.2738653  84.2976632 111.7201681
  52.8842703  84.7254458 112.1419579  61.0625344  83.1766567 115.9945409
  61.0443820  83.9975448 115.5025679  61.9845265  83.0520642 116.2195551
  57.5198399  80.6910697 116.8368918  58.0526735  79.9298985 116.6068226
  56.9912480  80.3984348 117.5793072  60.6868094  65.7970762 112.3662559
  60.3432363  66.6872404 112.2901670  61.0547056  65.6072420 111.5032144
  48.7553944  78.1204293 105.1851162  49.5929166  78.5301301 104.9684869
  48.9332212  77.1803735 105.1551356  60.6518376  75.7879374 100.8734995
  60.1365000  76.5583978 101.1123382  60.3795685  75.1144510 101.4968056
  58.2365487  70.6329074 105.9320233  57.3807084  70.2435925 105.7525872
  58.6492439  70.7121035 105.0720018  59.7664634  68.1675418 110.3311793
  59.2629430  68.1305553 109.5179598  60.0595241  69.0768160 110.3908449
  56.0107520  68.2514147 109.3377974  56.8760517  68.0556956 108.9783864
  56.0785029  68.0224499 110.2647331  65.6252650  78.5411728 102.8088168
  64.8482093  78.2022888 102.3643330  66.3044131  78.5464351 102.1343133
  60.4404679  73.6606466 102.6994776  60.1354815  73.9752615 103.5504919
  61.3935122  73.7387886 102.7422109  58.8851111  79.8196689 104.3487730
  58.3572473  79.0849449 104.0360967  58.3838614  80.5971365 104.1027698
  63.8643957  78.0145709 109.4654776  63.2067632  78.7044971 109.5534905
  64.6684357  78.4042141 109.8088762  53.6169839  70.4816355 106.7094341
  54.1913591  70.2591537 105.9767534  54.2040821  70.5505050 107.4622943
  62.6749416  76.3690082 107.5158718  63.1881298  77.0020074 108.0180428
  63.3250640  75.7691278 107.1502078  53.9439426  72.5120816 100.7290227
  53.1076738  72.8495503 101.0499501  53.8044196  72.3769796  99.7917364
  55.9192507  67.3557604 105.4369411  55.2656919  67.0406621 104.8126025
  55.8772981  66.7333345 106.1629234  57.0303712  77.6376899  97.3522703
  56.1230773  77.4066153  97.5513852  57.5274743  76.8414519  97.5396684
  59.9371790  86.3474406 100.2719389  59.2633489  86.6506103 100.8804347
  60.3237612  87.1503487  99.9224846  59.1530247  73.8439538 109.7617058
  58.2352808  74.0654485 109.6038746  59.5690391  73.9185848 108.9028766
  59.9365295  75.2430953 104.8919739  60.6837114  75.7552351 104.5826861
  60.2056884  74.9215006 105.7524132  58.2091945  77.7389494 101.8746693
  57.3003164  77.4548527 101.9719163  58.2387029  78.1588573 101.0150000
  63.4411212  81.3496084 105.6437860  62.9873539  80.5086994 105.7003051
  62.8105179  81.9857482 105.9812641  62.3844132  72.2788070 106.8738528
  61.6466889  71.7665456 107.2048770  62.6370905  71.8388451 106.0621805
  61.8844152  83.1872580 106.5787679  62.1767126  83.7477637 105.8600044
  62.3942772  83.4801141 107.3340838  62.4855759  65.0564322 107.4680297
  62.7914636  64.1961685 107.1806212  63.2108364  65.6481942 107.2679291
  48.7780115  75.4595008 105.8561895  48.5804515  74.8664369 105.1312962
  48.2226779  75.1547218 106.5737834  56.7576839  75.3518115 107.9756488
  56.8125449  74.3991951 107.8998965  55.9468041  75.5077554 108.4597787
  57.9068033  79.2798238  99.2134771  57.4687463  78.5634097  98.7540409
  58.6478474  79.5074353  98.6519863  54.6969199  73.9695174 105.7346867
  53.8837064  74.2689345 106.1412059  55.1928193  73.5750863 106.4521349
  56.8477777  83.9652931 107.6681132  56.8053956  84.1913778 106.7389664
  57.7640476  83.7316306 107.8166933  60.2943411  74.4336999 114.5661761
  60.6492798  74.6608472 115.4256227  60.9415542  74.7655376 113.9439016
  66.0241148  77.5555435 105.2711090  65.8859046  77.7457031 104.3432279
  65.6677366  78.3174818 105.7279141  54.1883274  71.5413530 111.3508102
  54.8282653  71.4002289 110.6531065  53.3560804  71.2548043 110.9746704
  66.0510527  79.6231962 110.2822362  66.4847034  79.5307251 111.1305416
  66.7642108  79.5989462 109.6442378  54.9643578  80.8415960 107.4643095
  55.7584176  80.3466281 107.2625669  54.2535270  80.3133824 107.1010800
  59.7838422  83.2234056 111.8155462  59.8375444  83.7924992 112.5833178
  58.9153203  83.3935941 111.4509499  51.2726341  74.9859042 103.5402847
  50.3423929  74.9243498 103.7572809  51.3683813  74.4634995 102.7439488
  51.1911890  71.5113855 106.1281089  51.4518707  72.4259188 106.0190249
  52.0129062  71.0438298 106.2777702  52.6636815  72.9251612 113.2979913
  53.3359869  72.7168974 112.6492562  51.8366602  72.7273698 112.8585146
  66.9126077  79.6655663 112.8155247  67.1061967  80.5701473 113.0614522
  66.8126695  79.2063082 113.6493832  58.5662387  69.5513553 115.3145574
  57.9190302  70.2503503 115.2210051  59.3363403  69.9849697 115.6821822
  61.9741185  79.8162405 118.3896128  61.8226692  79.5872957 117.4726211
  61.9645865  80.7733007 118.4027473  58.7426522  77.3894318 113.3742394
  59.6718582  77.5405478 113.2011361  58.3217552  77.4778339 112.5191040
  57.5414854  81.4144982 111.1440932  57.4025939  81.0463767 112.0166870
  56.7529450  81.9292622 110.9724889  58.1363006  86.5154079 102.4866468
  58.3114761  86.0442122 103.3012091  57.4495794  87.1419845 102.7147729
  59.0920069  80.7926585 108.5329769  58.7569901  80.7527355 109.4287419
  58.5924014  80.1271301 108.0600180  53.0664313  76.1994215 114.0582351
  52.9284111  75.4674454 114.6593890  53.9769236  76.1103115 113.7766538
  62.0279260  78.1382619  98.8066829  61.4108431  77.4129448  98.7099882
  61.5595749  78.8991980  98.4633903  55.6946613  75.9114174 113.5466030
  56.4046232  75.2707367 113.5052649  55.6515922  76.1627069 114.4692211
  63.6833392  82.8481528 116.4672609  63.6245938  82.1640748 115.8003192
  64.0852910  83.5900518 116.0153235  54.4075547  72.8979392 115.3661670
  53.8712904  72.4470131 116.0183266  53.8192256  73.0325301 114.6232134
  52.7024091  89.6643442 109.2606328  52.9420689  90.2961966 109.9385347
  51.8593287  89.3131482 109.5471688  53.8177806  72.3568044  97.9288133
  52.9407273  72.2356845  97.5650380  54.2935559  71.5654122  97.6767022
  63.6850799  80.8121112 114.6986589  62.7977578  80.4747034 114.8212988
  64.2549350  80.0804143 114.9355354  45.3379946  77.1445203 108.0229640
  46.0250986  76.8306934 107.4350656  45.1828075  78.0486568 107.7496892
  50.1414669  72.0335400 112.4514664  50.0572857  71.4261070 111.7165074
  49.3197375  72.5244418 112.4524160  57.2151953  85.4722564 111.6647832
  57.1422124  86.2777536 112.1767137  56.7729346  85.6714530 110.8395854
  57.0041732  84.7094334 105.1750654  56.2209254  85.2516014 105.2688878
  57.7034477  85.2268314 105.5744895  60.3138382  70.5188964 107.8184859
  60.8107082  69.7658926 107.4985929  59.5425364  70.5553280 107.2528069
  68.1668140  76.2229329 109.4603151  68.1558016  77.1054045 109.0897084
  67.2985519  75.8700880 109.2657688  59.6750636  85.3709398 113.8205991
  60.3878608  86.0056863 113.7481892  59.1840665  85.4673264 113.0045993
  61.3968163  79.2760651 105.3923283  60.4624442  79.3962113 105.2227987
  61.5744832  78.3733118 105.1283292  56.8973351  72.6606347 107.5456544
  56.5271139  72.1077387 108.2337449  57.3932444  72.0564480 106.9931544
  64.7840714  75.1177970 105.9273317  65.2501167  75.9505962 105.8533619
  65.2348215  74.6522952 106.6318575  54.7262550  83.1203842 114.6411562
  55.4272009  83.7540325 114.7940956  54.2557665  83.4618573 113.8807201
  62.8516946  81.4621791 102.9259469  63.1276789  81.3478386 103.8353343
  61.9821444  81.0639276 102.8871642  62.7557377  67.4858557 109.9664218
  61.8420457  67.7162784 110.1346425  63.1850479  67.5697001 110.8178250
  62.5263836  75.6748449 112.4664112  61.8735286  75.9224356 111.8116565
  62.9044216  74.8612587 112.1326589  59.4871010  85.7108142 106.5692282
  59.6693404  84.8929798 107.0320035  60.3103996  85.9275834 106.1317172
  59.8213175  84.6376327 103.8307331  60.3500942  84.1268782 103.2177493
  60.0841395  84.3218858 104.6952864  58.5751409  76.4168260 118.9530149
  57.8992046  76.3162389 119.6232524  59.3979043  76.2607474 119.4166146
  50.3230268  82.6540197 111.5742664  50.9083705  81.9083885 111.7070569
  50.1255106  82.9644153 112.4579328  53.1768923  85.6891444 106.5905107
  52.5079298  86.1737572 106.1069147  53.0381793  85.9360664 107.5048485
  44.9147923  75.2245797 110.2947108  44.9532022  74.6909388 111.0884226
  44.4088215  74.6981002 109.6758085  57.3174192  87.7235188 113.1887765
  57.8692500  87.8866809 113.9536850  57.6580385  88.3139625 112.5167790
  52.2938685  70.0710337 113.7909650  52.3580011  70.9325168 113.3787048
  52.2305805  69.4584339 113.0582008  51.7690957  72.1433470 117.4382684
  52.3962996  71.7610547 118.0520208  50.9118876  71.9247672 117.8038377
  62.1685066  82.5496445 119.0436420  62.7124970  83.1626403 118.5491374
  61.5871911  83.1076023 119.5603433  48.5456500  73.9509899 103.3701039
  48.8409941  73.0420577 103.3168093  47.6444536  73.9297638 103.0482041
  60.4542579  85.6717163 110.1751447  60.3293718  84.8706903 109.6662393
  61.1121670  86.1663356 109.6865417  52.0750747  72.0265896 109.3528588
  51.3537333  72.6401863 109.2136061  52.8644003  72.5623660 109.2745234
  62.5177487  83.4726183 111.8030997  61.5707823  83.3531534 111.7309324
  62.8660260  82.5848681 111.8857259  54.8777061  69.3620322 115.6269239
  55.4011462  69.6082619 116.3895549  54.6589394  70.1940357 115.2072377
  50.2744342  71.6323997 103.4940364  49.9457048  70.7521376 103.3115470
  50.6283712  71.5771665 104.3816753  59.5223921  83.2678899 108.0035350
  59.3748883  82.3395607 108.1842920  60.3477414  83.2898990 107.5192425
  53.3886165  71.9196966 103.8615842  53.7282237  72.4482888 103.1394450
  53.8358285  72.2577373 104.6374408  63.1258042  84.0907458 109.0900222
  64.0504590  83.8850319 108.9524674  62.9573346  83.8423859 109.9989564
  56.0829606  70.3034017 113.3118910  55.7426426  69.5041830 113.7139590
  55.3768612  70.6035728 112.7395743  56.7346078  67.3883330 111.7646233
  57.5572147  66.9143808 111.6425123  56.9784141  68.1673813 112.2644919
  55.3754312  70.4171588 102.0609135  56.0962675  70.7952841 101.5572851
  54.7519616  71.1360465 102.1644113  59.5185435  71.1216737 102.9967467
  59.7349049  72.0041375 102.6956295  59.0379502  70.7302950 102.2673109
  54.2584656  74.0802450 109.5738211  54.1129237  74.3942753 110.4662493
  53.7809860  74.6987351 109.0209110  56.1181039  71.0704998 109.6219101
  56.1042608  70.1746092 109.2851399  56.8353467  71.0775662 110.2557387
  57.9707170  71.5042338 111.6672228  57.7124948  72.4259409 111.6656559
  57.4392210  71.1072773 112.3572693  62.9153359  84.6093126 104.4462314
  63.0890236  84.0439548 103.6936166  63.4082250  85.4094020 104.2641804
  48.7330318  76.6207795 112.5125873  48.1883787  77.3967603 112.6446147
  49.6109668  76.9678599 112.3544994  55.5217935  69.9519379 104.8906671
  55.6433846  69.0236025 105.0897559  55.2319977  69.9658064 103.9784987
  58.3909125  67.6374289 108.0273391  58.4130822  67.7013622 107.0725371
  58.8077184  66.7978798 108.2213897  68.7692750  77.3729548 106.0652614
  69.2123896  76.6236874 105.6671737  67.8919260  77.3639685 105.6826346
  49.5196340  75.7477691 115.4056030  48.7778076  75.8960326 115.9920660
  49.1989085  76.0085957 114.5422779  65.8019954  81.3759595 103.0746543
  66.3271278  81.7146868 102.3495863  65.7142307  80.4406611 102.8909678
  57.4640003  85.2893669 115.2036420  57.7727129  85.0442816 116.0759119
  58.2615485  85.4940308 114.7155290  57.4860615  87.4431579 107.4341796
  57.0465605  86.9507957 108.1274653  58.2368732  86.9004546 107.1933871
  49.9652954  83.6343120 107.4366424  50.7910974  83.3346891 107.0565068
  49.6147006  82.8650742 107.8856213  54.9334487  82.9869588 109.5064098
  54.3114496  82.3240293 109.2066326  55.6039354  83.0130720 108.8237746
  48.1661559  81.5529446 108.3955358  47.3293467  81.1251620 108.2139359
  48.1385204  81.7461889 109.3326149  55.0059015  71.4651376 119.0996604
  55.0547170  72.3413499 118.7174373  55.5481529  70.9228769 118.5268247
  65.4913860  82.0092499 118.3797741  64.7009404  81.9916638 117.8402240
  65.2547215  82.5480793 119.1346777  65.6111735  78.8584965 115.6930469
  65.6609740  78.6934973 116.6345992  65.5025659  77.9912225 115.3028350
  54.4947994  81.5373511 102.9822558  54.6436114  82.2208976 102.3289231
  55.3014438  81.5178601 103.4972014  62.9015498  74.8415894 117.0089776
  63.8025360  74.7022358 116.7173774  62.9763472  75.0070348 117.9487954
  57.2358303  72.2182748 115.8542962  56.3661612  72.5116314 115.5825551
  57.4717783  72.8023193 116.5750226  67.1129932  81.2781907 115.9372491
  66.8214740  81.6411888 116.7735952  66.5002063  80.5648915 115.7585823
  68.3125614  78.8434787 108.4575061  69.1472506  79.2824591 108.6212622
  68.4484743  78.3673440 107.6383307  65.3617120  76.4014522 114.4052549
  65.8371242  76.5942168 113.5971400  64.4382686  76.4573707 114.1595933
  52.2500627  77.5638689 103.9883627  52.0046669  76.6601019 104.1863837
  52.4196542  77.5655839 103.0463105  59.9397337  68.4362365 113.3708383
  60.4579281  69.1723392 113.0454871  59.5852470  68.7426358 114.2055142
  51.5196275  73.2967046 101.4869789  50.8265519  73.3711401 100.8309825
  51.2748026  72.5327390 102.0091306  60.1909931  64.8562648 108.8909279
  60.4711685  64.1885837 109.5169706  60.9760538  65.0491743 108.3783943
  57.9943400  84.0321642 100.4534306  57.4217367  84.6511829 100.0004778
  58.5676193  84.5821003 100.9874228  64.0618789  73.2780282 112.6380855
  65.0136212  73.3778379 112.6593079  63.8922240  72.4858550 113.1478939
  62.0833169  70.3635865 112.8240255  61.4883101  70.6440878 112.1286744
  61.7982866  70.8529766 113.5956997  61.2140659  84.3158792 101.5842888
  62.1471333  84.2504353 101.7875764  61.1263872  85.1515059 101.1257421
  66.5406867  76.4986401 111.7523154  66.5083187  75.5602402 111.9382838
  67.1507491  76.5770438 111.0188979  58.3790198  75.3682454  97.7950358
  59.3249303  75.2388662  97.8638776  58.0004443  74.6297116  98.2719786
  66.6901356  73.2897445 111.7981437  66.1740404  72.5055901 111.6111366
  67.5741304  72.9616161 111.9627957  64.3512083  67.0338460 107.7577250
  64.1536904  66.7253549 108.6420582  64.9611788  67.7600099 107.8875180
  72.3583417  77.5602408 110.8929191  73.0886806  77.2987696 111.4536894
  71.7490363  76.8231130 110.9331259  70.4398714  75.7010271 111.4903642
  69.7131878  75.5666236 110.8820134  70.0246001  76.0087099 112.2960360
  58.2628891  79.4200201 119.2551015  59.1831900  79.5978800 119.4491062
  58.2278474  78.4756246 119.1030714  56.5633115  73.2932431  97.7305243
  55.6564571  72.9965543  97.8067957  56.8409096  72.9962249  96.8639530
  47.4811056  74.6138794 108.1804290  47.1613840  73.7604102 107.8878664
  46.9344484  74.8287372 108.9362257  51.2590963  77.3301235 111.8973796
  51.4776973  78.2618343 111.9161830  51.6716737  76.9709210 112.6828600
  58.1795181  67.8369320 103.8849485  57.3695909  67.4916405 104.2604731
  58.8679598  67.5276864 104.4737096  60.1085729  66.9147367 105.5073781
  60.6616768  67.3342821 106.1663805  60.3455816  65.9883115 105.5496737
  56.1318828  72.9034441 121.2876545  56.0315555  73.8528798 121.2188636
  55.9140371  72.5752680 120.4152615  55.3331900  70.1519366  97.8717223
  56.1951064  70.4774264  98.1313040  55.5182244  69.3650862  97.3590288
  47.3499316  78.2341706 110.1497411  46.6562787  77.8195658 109.6367366
  48.0972307  78.2762242 109.5530830  63.4864536  69.0247892 105.0152446
  62.9063205  69.6832696 104.6330498  63.2200469  68.2025237 104.6039863
  61.9368103  68.4252950 107.2173766  62.4367881  68.5369485 106.4088085
  62.5803711  68.1214003 107.8574574  55.9950099  76.3331580 120.1041607
  55.5117180  77.1331940 120.3105496  56.0811038  76.3439525 119.1509051
  49.2636058  78.1659959 108.0263426  49.2406746  78.2647647 107.0745309
  49.5736695  79.0125110 108.3480592  51.9223436  80.2236114 112.1410041
  52.8766690  80.1920057 112.0739972  51.7235960  79.7626738 112.9560267
  52.5122818  78.7937231 114.7080838  53.3315707  79.2881309 114.7315676
  52.7859626  77.8769199 114.6798406  62.2689414  71.1847983 104.0708794
  61.3815269  71.4697633 103.8528989  62.6843403  71.0241746 103.2236071
  65.6203950  71.2094504 107.7863133  66.3964341  71.6990956 108.0587750
  64.8952085  71.6352558 108.2435003  68.0576509  71.9222123 108.8437074
  68.6521000  71.6817859 108.1330382  68.1303093  71.2029254 109.4710610
  50.2773665  85.7655734 109.1580239  50.1428133  85.0056135 108.5918237
  49.8605727  86.4896634 108.6909027  61.4132628  80.9492658  98.1656814
  62.1168478  81.1542660  98.7814470  60.6895277  81.5169419  98.4305897
  62.2430438  76.7002519 104.2859084  62.1865639  77.1571070 103.4466716
  62.7958781  75.9393203 104.1081927  66.0535244  72.4892251 105.1109204
  65.7972178  72.0888886 105.9417411  65.4288112  73.2036045 104.9859343
  70.3647582  75.2288324 107.6180495  69.8047140  75.2981513 108.3912057
  69.7591085  75.0529309 106.8979991  53.4342791  86.6625051 109.3698681
  53.3175175  87.6070483 109.2677372  52.6135237  86.3598613 109.7584480
  63.3219325  81.3875187 100.2155274  64.1564929  80.9556385 100.0332749
  63.1603668  81.2157200 101.1432168  62.9765217  77.8907300 101.5811613
  62.9214021  77.7251571 100.6400057  62.3511273  78.5983333 101.7373803
  47.7657732  73.1275364 115.4073035  48.4116596  72.6174318 115.8960261
  47.5574883  73.8644046 115.9816461  60.2911125  80.1956212 120.9065176
  61.1602284  80.3696864 120.5451811  59.8117876  81.0150629 120.7840905
  56.2861343  67.3915409 101.1596932  56.2740013  68.3357249 101.3165203
  57.1784765  67.2085554 100.8656393  54.4597305  87.3153313 112.5854610
  55.3624552  87.3476923 112.9021105  54.2334675  86.3853764 112.6000945
  56.2150907  86.0684299 109.2464688  55.2646538  86.0686161 109.1329061
  56.5183393  85.3217034 108.7300723  60.1013462  63.9858186 105.4142868
  59.3345858  63.4316672 105.5599551  60.5124167  64.0580054 106.2757020
  52.1055223  70.2742981 119.5048050  52.9686685  69.9179786 119.7151374
  51.5320634  69.9356876 120.1923454  71.9503600  91.9044838 110.3110451
  72.5882010  91.7851585 109.6073791  71.8324443  92.8525682 110.3698403
  68.7593307  91.8572266 110.2471975  68.4211818  91.7413331 109.3592510
  69.6283075  91.4563431 110.2272982  64.6180122  93.7107742 106.2368866
  64.0544987  93.6197679 105.4685154  64.5032517  92.8907647 106.7171359
  69.2413090  93.0107118 116.2058181  69.2301730  92.6159916 115.3338685
  69.4033729  92.2773190 116.7991952  62.1644554  95.2058934 109.0753087
  62.9565846  94.8649759 108.6599386  62.4041204  95.3153909 109.9955240
  65.9620351  95.7944229 115.1537365  65.6710217  96.6989860 115.0384031
  66.5977335  95.8360757 115.8681434  66.8876558  93.1721078 111.7438725
  67.4840130  92.9477100 111.0295687  66.9451529  92.4305823 112.3464172
  71.5044869  89.6296292 107.3863659  72.2907958  89.2115715 107.0354076
  71.7683573  90.5342384 107.5545307  76.9053296  89.5671525 108.2896637
  77.6378468  88.9970742 108.5234467  76.1492652  89.1793125 108.7303143
  68.5229416  91.9898766 105.4859980  68.1587623  91.4629387 106.1972901
  69.3796532  91.5997235 105.3126465  74.4278716  83.2793099 112.7491246
  74.0962041  84.1488510 112.5252461  73.8324330  82.9629383 113.4285276
  70.9210236  95.4805645 112.1487159  70.6210959  96.3830684 112.0402966
  70.5761295  95.2137828 113.0008311  64.3722717  91.9319442 108.1823863
  63.4473214  91.7995656 108.3901555  64.6207130  92.7113661 108.6793805
  74.3207380  87.9988185 109.8284596  73.4124257  87.9303594 109.5343357
  74.2694975  88.4760130 110.6566421  61.7331528  91.5752715 109.0167652
  61.8623909  91.8287194 109.9307064  61.0528980  92.1680423 108.6972307
  65.9031016 102.2449965 105.1158126  65.8255045 103.1957790 105.1946607
  65.2992659 101.8995838 105.7733053  68.3948245  89.4177831 117.7719493
  67.6181579  89.9771751 117.7622358  69.0338808  89.9034614 118.2934363
  76.1869026  86.2004624 111.6062470  75.5443406  86.4937157 110.9602264
  75.6823955  86.0857544 112.4115667  66.6494618  92.2263284 117.3337460
  67.3909302  92.7648328 117.0572284  65.9431603  92.8529573 117.4909012
  72.1249957  94.3692425 115.9309622  72.5333313  93.9274835 115.1864254
  71.4027219  93.7945052 116.1843815  68.4781027  89.3065031 113.3043179
  69.3242223  89.7304445 113.4477828  68.4179665  88.6498656 113.9981742
  72.4478772  94.9293615 109.6861911  71.8187634  95.0939329 108.9837978
  72.0604434  95.3435225 110.4572875  71.6280473  86.9669400 114.9624352
  71.3841405  87.7211460 114.4258628  71.9040403  87.3454747 115.7971599
  73.5818935  93.5108012 113.6401618  73.7935831  94.1539772 112.9635999
  73.5348684  92.6770329 113.1723548  71.1845164  86.1225833 110.5438190
  70.3229643  86.4207086 110.8354928  71.2107599  86.3396232 109.6119223
  68.0006734  94.6668023 106.9511996  68.4645079  94.9455726 106.1616618
  67.7363532  93.7651468 106.7685086  64.8930815  94.2139505 109.8891759
  65.4632172  94.6426773 109.2509243  65.4838927  93.9322090 110.5875945
  65.3855981  89.3802932 118.1352770  64.7554642  90.0619213 118.3688167
  65.2792069  89.2686014 117.1905908  60.6800954  89.0474728 109.0618694
  59.8900008  89.3032257 108.5858805  61.1712201  89.8623066 109.1670735
  74.6964763  96.3879968 111.8123975  75.5182207  95.9860155 111.5306657
  74.6927166  96.2848202 112.7640091  62.6315699  89.4119308 106.0202171
  61.8346863  89.5238002 106.5385667  62.4041291  89.7505960 105.1543062
  68.4621367  95.9364011 113.9684686  68.5265799  96.3984418 114.8042858
  67.7532291  95.3061376 114.0966996  58.9638657  89.3005219 111.4933685
  59.2146695  90.1852229 111.7591261  59.4998205  89.1209820 110.7208777
  68.1769385  97.6032118 103.8363666  68.0415059  98.4483654 104.2648514
  68.7179197  97.8051396 103.0729600  64.6636724  83.6823698 120.4978021
  64.2703670  83.1289897 121.1725665  65.4802864  83.9934277 120.8884539
  61.6298782  95.1207556 104.4091591  62.1423302  95.9150807 104.5597156
  62.2821495  94.4233847 104.3425193  63.4393667  98.2373313 106.4914344
  63.6160295  99.1591277 106.3035328  64.2350500  97.9231732 106.9208724
  67.5804685  85.0981577 118.0898278  68.3214399  85.6988730 118.0102740
  67.8122608  84.3559215 117.5316320  62.7246023  90.2837944 116.3676507
  62.6099538  89.3823202 116.6683606  61.8690541  90.5301641 116.0161324
  69.8037861  98.2255685 117.9664008  69.3601715  97.4392063 117.6484913
  70.4655074  98.4134835 117.3007899  64.5624982  99.7551486 112.4924687
  65.1132407  99.6268550 111.7201681  63.7236458 100.0546375 112.1419579
  71.9019099  98.5058485 115.9945409  71.8837574  99.3267366 115.5025679
  72.8239019  98.3812560 116.2195551  68.3592153  96.0202614 116.8368918
  68.8920490  95.2590902 116.6068226  67.8306234  95.7276266 117.5793072
  71.5261848  81.1262680 112.3662559  71.1826117  82.0164322 112.2901670
  71.8940811  80.9364338 111.5032144  59.5947699  93.4496211 105.1851162
  60.4322921  93.8593219 104.9684869  59.7725966  92.5095653 105.1551356
  69.0759242  85.9620992 105.9320233  68.2200838  85.5727842 105.7525872
  69.4886194  86.0412953 105.0720018  70.6058388  83.4967335 110.3311793
  70.1023184  83.4597470 109.5179598  70.8988995  84.4060078 110.3908449
  66.8501274  83.5806065 109.3377974  67.7154271  83.3848874 108.9783864
  66.9178783  83.3516417 110.2647331  74.7037712  93.3437627 109.4654776
  74.0461386  94.0336889 109.5534905  75.5078111  93.7334059 109.8088762
  64.4563593  85.8108273 106.7094341  65.0307345  85.5883454 105.9767534
  65.0434576  85.8796967 107.4622943  73.5143171  91.6982000 107.5158718
  74.0275052  92.3311992 108.0180428  74.1644395  91.0983195 107.1502078
  66.7586261  82.6849522 105.4369411  66.1050673  82.3698539 104.8126025
  66.7166735  82.0625262 106.1629234  69.9924002  89.1731455 109.7617058
  69.0746563  89.3946402 109.6038746  70.4084145  89.2477766 108.9028766
  70.7759049  90.5722871 104.8919739  71.5230868  91.0844268 104.5826861
  71.0450639  90.2506924 105.7524132  73.2237886  87.6079987 106.8738528
  72.4860643  87.0957374 107.2048770  73.4764660  87.1680369 106.0621805
  73.3249514  80.3856239 107.4680297  73.6308391  79.5253603 107.1806212
  74.0502119  80.9773860 107.2679291  59.6173870  90.7886926 105.8561895
  59.4198270  90.1956287 105.1312962  59.0620534  90.4839136 106.5737834
  67.5970593  90.6810032 107.9756488  67.6519203  89.7283869 107.8998965
  66.7861796  90.8369472 108.4597787  65.5362953  89.2987092 105.7346867
  64.7230819  89.5981263 106.1412059  66.0321948  88.9042781 106.4521349
  67.6871531  99.2944849 107.6681132  67.6447710  99.5205695 106.7389664
  68.6034230  99.0608224 107.8166933  71.1337165  89.7628917 114.5661761
  71.4886553  89.9900390 115.4256227  71.7809296  90.0947293 113.9439016
  65.0277028  86.8705448 111.3508102  65.6676407  86.7294207 110.6531065
  64.1954559  86.5839961 110.9746704  76.8904282  94.9523880 110.2822362
  77.3240788  94.8599169 111.1305416  77.6035862  94.9281380 109.6442378
  65.8037332  96.1707878 107.4643095  66.5977931  95.6758198 107.2625669
  65.0929024  95.6425741 107.1010800  62.0305645  86.8405773 106.1281089
  62.2912462  87.7551106 106.0190249  62.8522817  86.3730215 106.2777702
  63.5030570  88.2543530 113.2979913  64.1753623  88.0460892 112.6492562
  62.6760356  88.0565616 112.8585146  77.7519831  94.9947580 112.8155247
  77.9455721  95.8993391 113.0614522  77.6520449  94.5354999 113.6493832
  69.4056142  84.8805471 115.3145574  68.7584057  85.5795420 115.2210051
  70.1757157  85.3141615 115.6821822  72.8134940  95.1454323 118.3896128
  72.6620446  94.9164875 117.4726211  72.8039619  96.1024924 118.4027473
  69.5820276  92.7186236 113.3742394  70.5112336  92.8697395 113.2011361
  69.1611306  92.8070256 112.5191040  68.3808608  96.7436900 111.1440932
  68.2419694  96.3755684 112.0166870  67.5923204  97.2584540 110.9724889
  63.9058067  91.5286133 114.0582351  63.7677865  90.7966372 114.6593890
  64.8162991  91.4395033 113.7766538  66.5340368  91.2406092 113.5466030
  67.2439986  90.5999284 113.5052649  66.4909676  91.4918987 114.4692211
  74.5227147  98.1773445 116.4672609  74.4639693  97.4932666 115.8003192
  74.9246665  98.9192435 116.0153235  65.2469302  88.2271310 115.3661670
  64.7106659  87.7762048 116.0183266  64.6586010  88.3617219 114.6232134
  63.5417845 104.9935359 109.2606328  63.7814444 105.6253883 109.9385347
  62.6987042 104.6423399 109.5471688  74.5244554  96.1413029 114.6986589
  73.6371333  95.8038951 114.8212988  75.0943105  95.4096061 114.9355354
  56.1773701  92.4737121 108.0229640  56.8644741  92.1598851 107.4350656
  56.0221830  93.3778486 107.7496892  60.9808423  87.3627318 112.4514664
  60.8966612  86.7552987 111.7165074  60.1591129  87.8536336 112.4524160
  68.0545707 100.8014482 111.6647832  67.9815879 101.6069453 112.1767137
  67.6123100 101.0006448 110.8395854  67.8435487 100.0386252 105.1750654
  67.0603009 100.5807932 105.2688878  68.5428232 100.5560231 105.5744895
  71.1532137  85.8480881 107.8184859  71.6500836  85.0950844 107.4985929
  70.3819118  85.8845198 107.2528069  79.0061894  91.5521247 109.4603151
  78.9951771  92.4345962 109.0897084  78.1379274  91.1992798 109.2657688
  70.5144391 100.7001316 113.8205991  71.2272363 101.3348781 113.7481892
  70.0234419 100.7965182 113.0045993  67.7367106  87.9898264 107.5456544
  67.3664893  87.4369305 108.2337449  68.2326198  87.3856398 106.9931544
  65.5656304  98.4495759 114.6411562  66.2665764  99.0832242 114.7940956
  65.0951419  98.7910491 113.8807201  73.5951132  82.8150475 109.9664218
  72.6814212  83.0454702 110.1346425  74.0244233  82.8988919 110.8178250
  73.3657590  91.0040367 112.4664112  72.7129040  91.2516274 111.8116565
  73.7437970  90.1904505 112.1326589  69.4145163  91.7460178 118.9530149
  68.7385800  91.6454307 119.6232524  70.2372797  91.5899392 119.4166146
  61.1624022  97.9832114 111.5742664  61.7477459  97.2375802 111.7070569
  60.9648861  98.2936071 112.4579328  64.0162678 101.0183362 106.5905107
  63.3473053 101.5029489 106.1069147  63.8775547 101.2652582 107.5048485
  55.7541677  90.5537715 110.2947108  55.7925777  90.0201305 111.0884226
  55.2481970  90.0272920 109.6758085  68.1567946 103.0527105 113.1887765
  68.7086254 103.2158727 113.9536850  68.4974140 103.6431543 112.5167790
  63.1332439  85.4002255 113.7909650  63.1973766  86.2617086 113.3787048
  63.0699560  84.7876257 113.0582008  62.6084712  87.4725388 117.4382684
  63.2356751  87.0902465 118.0520208  61.7512631  87.2539589 117.8038377
  73.0078820  97.8788363 119.0436420  73.5518724  98.4918321 118.5491374
  72.4265665  98.4367941 119.5603433  59.3850255  89.2801817 103.3701039
  59.6803696  88.3712495 103.3168093  58.4838290  89.2589556 103.0482041
  62.9144502  87.3557813 109.3528588  62.1931087  87.9693781 109.2136061
  63.7037757  87.8915578 109.2745234  65.7170815  84.6912240 115.6269239
  66.2405217  84.9374536 116.3895549  65.4983148  85.5232275 115.2072377
  61.1138096  86.9615914 103.4940364  60.7850802  86.0813293 103.3115470
  61.4677467  86.9063583 104.3816753  66.9223360  85.6325935 113.3118910
  66.5820181  84.8333748 113.7139590  66.2162366  85.9327646 112.7395743
  67.5739832  82.7175247 111.7646233  68.3965901  82.2435725 111.6425123
  67.8177896  83.4965731 112.2644919  70.3579189  86.4508655 102.9967467
  70.5742804  87.3333293 102.6956295  69.8773257  86.0594868 102.2673109
  65.0978411  89.4094368 109.5738211  64.9522991  89.7234671 110.4662493
  64.6203614  90.0279268 109.0209110  66.9574794  86.3996916 109.6219101
  66.9436362  85.5038009 109.2851399  67.6747222  86.4067580 110.2557387
  68.8100924  86.8334256 111.6672228  68.5518702  87.7551327 111.6656559
  68.2785965  86.4364691 112.3572693  59.5724073  91.9499712 112.5125873
  59.0277541  92.7259520 112.6446147  60.4503423  92.2970517 112.3544994
  66.3611690  85.2811296 104.8906671  66.4827601  84.3527942 105.0897559
  66.0713732  85.2949982 103.9784987  69.2302880  82.9666207 108.0273391
  69.2524577  83.0305540 107.0725371  69.6470939  82.1270715 108.2213897
  60.3590095  91.0769609 115.4056030  59.6171831  91.2252244 115.9920660
  60.0382839  91.3377874 114.5422779  68.3033757 100.6185587 115.2036420
  68.6120884 100.3734734 116.0759119  69.1009239 100.8232225 114.7155290
  68.3254369 102.7723496 107.4341796  67.8859360 102.2799875 108.1274653
  69.0762486 102.2296464 107.1933871  60.8046708  98.9635037 107.4366424
  61.6304728  98.6638809 107.0565068  60.4540760  98.1942660 107.8856213
  65.7728242  98.3161506 109.5064098  65.1508251  97.6532211 109.2066326
  66.4433109  98.3422637 108.8237746  59.0055314  96.8821364 108.3955358
  58.1687222  96.4543538 108.2139359  58.9778959  97.0753807 109.3326149
  65.8452769  86.7943294 119.0996604  65.8940925  87.6705416 118.7174373
  66.3875283  86.2520687 118.5268247  76.3307615  97.3384417 118.3797741
  75.5403158  97.3208556 117.8402240  76.0940969  97.8772710 119.1346777
  76.4505490  94.1876883 115.6930469  76.5003495  94.0226891 116.6345992
  76.3419413  93.3204142 115.3028350  65.3341749  96.8665429 102.9822558
  65.4829869  97.5500893 102.3289231  66.1408192  96.8470519 103.4972014
  73.7409252  90.1707811 117.0089776  74.6419115  90.0314276 116.7173774
  73.8157227  90.3362266 117.9487954  68.0752058  87.5474666 115.8542962
  67.2055367  87.8408232 115.5825551  68.3111538  88.1315111 116.5750226
  77.9523687  96.6073825 115.9372491  77.6608495  96.9703805 116.7735952
  77.3395818  95.8940833 115.7585823  76.2010875  91.7306439 114.4052549
  76.6764997  91.9234086 113.5971400  75.2776440  91.7865625 114.1595933
  70.7791091  83.7654283 113.3708383  71.2973035  84.5015310 113.0454871
  70.4246224  84.0718276 114.2055142  71.0303686  80.1854565 108.8909279
  71.3105439  79.5177754 109.5169706  71.8154292  80.3783661 108.3783943
  74.9012544  88.6072199 112.6380855  75.8529967  88.7070297 112.6593079
  74.7315994  87.8150468 113.1478939  72.9226923  85.6927783 112.8240255
  72.3276855  85.9732795 112.1286744  72.6376620  86.1821684 113.5956997
  77.3800622  91.8278319 111.7523154  77.3476942  90.8894320 111.9382838
  77.9901245  91.9062356 111.0188979  77.5295110  88.6189363 111.7981437
  77.0134159  87.8347819 111.6111366  78.4135059  88.2908079 111.9627957
  75.1905837  82.3630378 107.7577250  74.9930658  82.0545466 108.6420582
  75.8005543  83.0892017 107.8875180  81.2792469  91.0302189 111.4903642
  80.5525632  90.8958153 110.8820134  80.8639756  91.3379017 112.2960360
  69.1022645  94.7492118 119.2551015  70.0225655  94.9270717 119.4491062
  69.0672228  93.8048164 119.1030714  58.3204810  89.9430712 108.1804290
  58.0007594  89.0896020 107.8878664  57.7738238  90.1579290 108.9362257
  62.0984718  92.6593153 111.8973796  62.3170727  93.5910261 111.9161830
  62.5110491  92.3001127 112.6828600  69.0188935  83.1661238 103.8849485
  68.2089664  82.8208323 104.2604731  69.7073352  82.8568782 104.4737096
  70.9479484  82.2439285 105.5073781  71.5010522  82.6634738 106.1663805
  71.1849570  81.3175033 105.5496737  66.9712583  88.2326359 121.2876545
  66.8709310  89.1820716 121.2188636  66.7534125  87.9044598 120.4152615
  58.1893070  93.5633623 110.1497411  57.4956542  93.1487576 109.6367366
  58.9366061  93.6054160 109.5530830  74.3258291  84.3539810 105.0152446
  73.7456960  85.0124614 104.6330498  74.0594223  83.5317155 104.6039863
  72.7761857  83.7544868 107.2173766  73.2761636  83.8661402 106.4088085
  73.4197465  83.4505921 107.8574574  66.8343853  91.6623497 120.1041607
  66.3510935  92.4623858 120.3105496  66.9204792  91.6731442 119.1509051
  60.1029813  93.4951877 108.0263426  60.0800501  93.5939564 107.0745309
  60.4130449  94.3417028 108.3480592  62.7617191  95.5528032 112.1410041
  63.7160444  95.5211974 112.0739972  62.5629714  95.0918656 112.9560267
  63.3516573  94.1229148 114.7080838  64.1709462  94.6173227 114.7315676
  63.6253380  93.2061116 114.6798406  73.1083169  86.5139901 104.0708794
  72.2209024  86.7989551 103.8528989  73.5237158  86.3533664 103.2236071
  76.4597705  86.5386421 107.7863133  77.2358095  87.0282874 108.0587750
  75.7345839  86.9644476 108.2435003  78.8970264  87.2514041 108.8437074
  79.4914754  87.0109777 108.1330382  78.9696847  86.5321171 109.4710610
  61.1167419 101.0947652 109.1580239  60.9821887 100.3348053 108.5918237
  60.6999482 101.8188552 108.6909027  76.8928998  87.8184168 105.1109204
  76.6365933  87.4180804 105.9417411  76.2681867  88.5327962 104.9859343
  81.2041336  90.5580242 107.6180495  80.6440894  90.6273431 108.3912057
  80.5984840  90.3821226 106.8979991  64.2736545 101.9916969 109.3698681
  64.1568929 102.9362401 109.2677372  63.4528991 101.6890530 109.7584480
  58.6051487  88.4567282 115.4073035  59.2510350  87.9466236 115.8960261
  58.3968638  89.1935964 115.9816461  71.1304879  95.5248130 120.9065176
  71.9996039  95.6988782 120.5451811  70.6511631  96.3442546 120.7840905
  65.2991059 102.6445231 112.5854610  66.2018306 102.6768841 112.9021105
  65.0728429 101.7145682 112.6000945  67.0544661 101.3976217 109.2464688
  66.1040292 101.3978079 109.1329061  67.3577147 100.6508952 108.7300723
  70.9407217  79.3150103 105.4142868  70.1739613  78.7608590 105.5599551
  71.3517922  79.3871972 106.2757020  62.9448978  85.6034899 119.5048050
  63.8080439  85.2471704 119.7151374  62.3714389  85.2648794 120.1923454
  82.7897355 107.2336756 110.3110451  83.4275765 107.1143503 109.6073791
  82.6718198 108.1817599 110.3698403  79.5987061 107.1864184 110.2471975
  79.2605573 107.0705248 109.3592510  80.4676829 106.7855349 110.2272982
  80.0806844 108.3399035 116.2058181  80.0695485 107.9451834 115.3338685
  80.2427484 107.6065108 116.7991952  76.8014105 111.1236147 115.1537365
  76.5103971 112.0281778 115.0384031  77.4371090 111.1652675 115.8681434
  77.7270312 108.5012996 111.7438725  78.3233884 108.2769018 111.0295687
  77.7845284 107.7597741 112.3464172  87.7447050 104.8963443 108.2896637
  88.4772222 104.3262659 108.5234467  86.9886406 104.5085043 108.7303143
  85.2672471  98.6085017 112.7491246  84.9355796  99.4780428 112.5252461
  84.6718084  98.2921301 113.4285276  81.7603990 110.8097563 112.1487159
  81.4604713 111.7122601 112.0402966  81.4155050 110.5429746 113.0008311
  85.1601134 103.3280103 109.8284596  84.2518011 103.2595511 109.5343357
  85.1088730 103.8052048 110.6566421  79.2342000 104.7469748 117.7719493
  78.4575334 105.3063669 117.7622358  79.8732563 105.2326531 118.2934363
  87.0262780 101.5296541 111.6062470  86.3837161 101.8229074 110.9602264
  86.5217709 101.4149462 112.4115667  77.4888372 107.5555202 117.3337460
  78.2303057 108.0940246 117.0572284  76.7825358 108.1821491 117.4909012
  82.9643712 109.6984342 115.9309622  83.3727068 109.2566753 115.1864254
  82.2420973 109.1236970 116.1843815  79.3174782 104.6356949 113.3043179
  80.1635977 105.0596363 113.4477828  79.2573420 103.9790573 113.9981742
  83.2872526 110.2585533 109.6861911  82.6581389 110.4231247 108.9837978
  82.8998189 110.6727142 110.4572875  87.1661758 111.1939971 107.0406274
  86.4812797 111.5738872 106.4903308  87.2505608 111.8035297 107.7738222
  82.4674227 102.2961317 114.9624352  82.2235159 103.0503378 114.4258628
  82.7434158 102.6746665 115.7971599  84.4212690 108.8399930 113.6401618
  84.6329585 109.4831690 112.9635999  84.3742438 108.0062246 113.1723548
  76.2249736 104.7094850 118.1352770  75.5948396 105.3911131 118.3688167
  76.1185824 104.5977932 117.1905908  85.5358518 111.7171885 111.8123975
  86.3575962 111.3152072 111.5306657  85.5320921 111.6140119 112.7640091
  79.3015121 111.2655928 113.9684686  79.3659554 111.7276336 114.8042858
  78.5926045 110.6353293 114.0966996  69.8032411 104.6297136 111.4933685
  70.0540450 105.5144146 111.7591261  70.3391960 104.4501738 110.7208777
  93.6264511 108.0610634 108.1608947  92.8728219 107.4918032 108.0052951
  93.7612052 108.0273298 109.1079581  75.5030479  99.0115616 120.4978021
  75.1097424  98.4581814 121.1725665  76.3196619  99.3226194 120.8884539
  74.2787421 113.5665230 106.4914344  74.4554049 114.4883195 106.3035328
  75.0744255 113.2523649 106.9208724  78.4198440 100.4273495 118.0898278
  79.1608153 101.0280648 118.0102740  78.6516362  99.6851133 117.5316320
  73.5639778 105.6129862 116.3676507  73.4493293 104.7115119 116.6683606
  72.7084295 105.8593559 116.0161324  80.6431615 113.5547602 117.9664008
  80.1995470 112.7683981 117.6484913  81.3048829 113.7426753 117.3007899
  75.4018737 115.0843404 112.4924687  75.9526162 114.9560467 111.7201681
  74.5630212 115.3838293 112.1419579  82.7412853 113.8350402 115.9945409
  82.7231329 114.6559283 115.5025679  83.6632774 113.7104478 116.2195551
  79.1985908 111.3494532 116.8368918  79.7314244 110.5882820 116.6068226
  78.6699989 111.0568184 117.5793072  85.5431466 108.6729545 109.4654776
  84.8855141 109.3628806 109.5534905  86.3471866 109.0625977 109.8088762
  84.3536925 107.0273918 107.5158718  84.8668807 107.6603909 108.0180428
  85.0038149 106.4275113 107.1502078  80.8317756 104.5023373 109.7617058
  79.9140317 104.7238320 109.6038746  81.2477900 104.5769684 108.9028766
  85.1198721 112.0079919 105.6437860  84.6661048 111.1670829 105.7003051
  84.4892688 112.6441317 105.9812641  83.5631661 113.8456416 106.5787679
  83.8554635 114.4061473 105.8600044  84.0730281 114.1384977 107.3340838
  78.5265286 114.6236767 107.6681132  78.4841465 114.8497613 106.7389664
  79.4427985 114.3900141 107.8166933  81.9730920 105.0920834 114.5661761
  82.3280307 105.3192307 115.4256227  82.6203051 105.4239211 113.9439016
  75.8670783 102.1997365 111.3508102  76.5070162 102.0586124 110.6531065
  75.0348313 101.9131879 110.9746704  87.7298036 110.2815797 110.2822362
  88.1634543 110.1891086 111.1305416  88.4429617 110.2573298 109.6442378
  81.4625931 113.8817891 111.8155462  81.5162953 114.4508828 112.5833178
  80.5940712 114.0519776 111.4509499  74.3424324 103.5835448 113.2979913
  75.0147378 103.3752810 112.6492562  73.5154111 103.3857534 112.8585146
  88.5913586 110.3239498 112.8155247  88.7849476 111.2285308 113.0614522
  88.4914204 109.8646917 113.6493832  80.2449896 100.2097388 115.3145574
  79.5977811 100.9087338 115.2210051  81.0150912 100.6433532 115.6821822
  83.6528694 110.4746241 118.3896128  83.5014201 110.2456792 117.4726211
  83.6433374 111.4316842 118.4027473  80.4214031 108.0478153 113.3742394
  81.3506091 108.1989313 113.2011361  80.0005061 108.1362174 112.5191040
  79.2202363 112.0728818 111.1440932  79.0813448 111.7047602 112.0166870
  78.4316959 112.5876457 110.9724889  80.7707578 111.4510420 108.5329769
  80.4357410 111.4111190 109.4287419  80.2711523 110.7855136 108.0600180
  74.7451822 106.8578050 114.0582351  74.6071620 106.1258289 114.6593890
  75.6556745 106.7686951 113.7766538  77.3734122 106.5698010 113.5466030
  78.0833741 105.9291202 113.5052649  77.3303430 106.8210905 114.4692211
  85.3620901 113.5065363 116.4672609  85.3033447 112.8224583 115.8003192
  85.7640419 114.2484353 116.0153235  76.0863056 103.5563228 115.3661670
  75.5500413 103.1053966 116.0183266  75.4979765 103.6909137 114.6232134
  74.3811600 120.3227277 109.2606328  74.6208198 120.9545801 109.9385347
  73.5380796 119.9715317 109.5471688  85.3638308 111.4704947 114.6986589
  84.4765087 111.1330869 114.8212988  85.9336859 110.7387978 114.9355354
  67.0167455 107.8029039 108.0229640  67.7038495 107.4890769 107.4350656
  66.8615584 108.7070403 107.7496892  71.8202178 102.6919235 112.4514664
  71.7360366 102.0844905 111.7165074  70.9984884 103.1828254 112.4524160
  78.8939462 116.1306399 111.6647832  78.8209633 116.9361371 112.1767137
  78.4516855 116.3298365 110.8395854  78.6829241 115.3678169 105.1750654
  77.8996763 115.9099850 105.2688878  79.3821986 115.8852149 105.5744895
  89.8455649 106.8813164 109.4603151  89.8345525 107.7637880 109.0897084
  88.9773028 106.5284715 109.2657688  81.3538145 116.0293233 113.8205991
  82.0666117 116.6640698 113.7481892  80.8628174 116.1257099 113.0045993
  83.0755672 109.9344486 105.3923283  82.1411951 110.0545949 105.2227987
  83.2532341 109.0316953 105.1283292  86.4628223 105.7761805 105.9273317
  86.9288676 106.6089797 105.8533619  86.9135724 105.3106787 106.6318575
  76.4050059 113.7787677 114.6411562  77.1059518 114.4124160 114.7940956
  75.9345174 114.1202408 113.8807201  84.2051345 106.3332284 112.4664112
  83.5522795 106.5808192 111.8116565  84.5831725 105.5196423 112.1326589
  80.2538918 107.0752095 118.9530149  79.5779555 106.9746225 119.6232524
  81.0766552 106.9191309 119.4166146  72.0017777 113.3124032 111.5742664
  72.5871214 112.5667720 111.7070569  71.8042615 113.6227989 112.4579328
  66.5935432 105.8829632 110.2947108  66.6319531 105.3493223 111.0884226
  66.0875724 105.3564838 109.6758085  78.9961701 118.3819023 113.1887765
  79.5480009 118.5450644 113.9536850  79.3367894 118.9723461 112.5167790
  73.9726194 100.7294173 113.7909650  74.0367520 101.5909004 113.3787048
  73.9093314 100.1168174 113.0582008  73.4478466 102.8017305 117.4382684
  74.0750505 102.4194383 118.0520208  72.5906385 102.5831507 117.8038377
  83.8472575 113.2080280 119.0436420  84.3912479 113.8210239 118.5491374
  83.2659420 113.7659859 119.5603433  82.1330088 116.3300998 110.1751447
  82.0081227 115.5290738 109.6662393  82.7909179 116.8247192 109.6865417
  84.1964996 114.1310019 111.8030997  83.2495332 114.0115370 111.7309324
  84.5447769 113.2432517 111.8857259  76.5564570 100.0204157 115.6269239
  77.0798971 100.2666454 116.3895549  76.3376903 100.8524192 115.2072377
  81.2011430 113.9262735 108.0035350  81.0536392 112.9979442 108.1842920
  82.0264923 113.9482825 107.5192425  84.8045551 114.7491293 109.0900222
  85.7292099 114.5434155 108.9524674  84.6360855 114.5007695 109.9989564
  77.7617115 100.9617853 113.3118910  77.4213935 100.1625666 113.7139590
  77.0556121 101.2619563 112.7395743  77.7968548 101.7288834 109.6219101
  77.7830117 100.8329927 109.2851399  78.5140976 101.7359497 110.2557387
  79.6494679 102.1626174 111.6672228  79.3912457 103.0843244 111.6656559
  79.1179719 101.7656608 112.3572693  84.5940868 115.2676961 104.4462314
  84.7677745 114.7023383 103.6936166  85.0869759 116.0677856 104.2641804
  70.4117827 107.2791630 112.5125873  69.8671295 108.0551438 112.6446147
  71.2897177 107.6262434 112.3544994  71.1983849 106.4061526 115.4056030
  70.4565585 106.5544162 115.9920660  70.8776594 106.6669792 114.5422779
  79.1427512 115.9477504 115.2036420  79.4514638 115.7026651 116.0759119
  79.9402994 116.1524143 114.7155290  71.6440463 114.2926955 107.4366424
  72.4698483 113.9930727 107.0565068  71.2934515 113.5234577 107.8856213
  76.6121996 113.6453423 109.5064098  75.9902005 112.9824128 109.2066326
  77.2826863 113.6714555 108.8237746  69.8449068 112.2113281 108.3955358
  69.0080976 111.7835456 108.2139359  69.8172713 112.4045725 109.3326149
  76.6846524 102.1235211 119.0996604  76.7334679 102.9997334 118.7174373
  77.2269038 101.5812604 118.5268247  87.1701369 112.6676334 118.3797741
  86.3796913 112.6500473 117.8402240  86.9334724 113.2064628 119.1346777
  87.2899244 109.5168801 115.6930469  87.3397249 109.3518808 116.6345992
  87.1813168 108.6496060 115.3028350  84.5803007 105.4999729 117.0089776
  85.4812869 105.3606194 116.7173774  84.6550981 105.6654184 117.9487954
  78.9145812 102.8766584 115.8542962  78.0449121 103.1700150 115.5825551
  79.1505292 103.4607029 116.5750226  88.7917441 111.9365742 115.9372491
  88.5002249 112.2995723 116.7735952  88.1789572 111.2232751 115.7585823
  89.9913123 109.5018622 108.4575061  90.8260015 109.9408426 108.6212622
  90.1272252 109.0257275 107.6383307  87.0404629 107.0598357 114.4052549
  87.5158751 107.2526003 113.5971400  86.1170195 107.1157543 114.1595933
  85.7406298 103.9364117 112.6380855  86.6923721 104.0362215 112.6593079
  85.5709749 103.1442386 113.1478939  83.7620678 101.0219700 112.8240255
  83.1670610 101.3024713 112.1286744  83.4770375 101.5113601 113.5956997
  88.2194376 107.1570237 111.7523154  88.1870696 106.2186238 111.9382838
  88.8295000 107.2354273 111.0188979  88.3688865 103.9481280 111.7981437
  87.8527913 103.1639737 111.6111366  89.2528813 103.6199997 111.9627957
  94.0370926 108.2186244 110.8929191  94.7674315 107.9571532 111.4536894
  93.4277872 107.4814966 110.9331259  92.1186223 106.3594106 111.4903642
  91.3919387 106.2250071 110.8820134  91.7033510 106.6670935 112.2960360
  79.9416400 110.0784036 119.2551015  80.8619409 110.2562635 119.4491062
  79.9065983 109.1340081 119.1030714  69.1598565 105.2722630 108.1804290
  68.8401349 104.4187938 107.8878664  68.6131993 105.4871208 108.9362257
  72.9378472 107.9885071 111.8973796  73.1564482 108.9202178 111.9161830
  73.3504246 107.6293045 112.6828600  77.8106337 103.5618276 121.2876545
  77.7103064 104.5112633 121.2188636  77.5927879 103.2336515 120.4152615
  69.0286825 108.8925541 110.1497411  68.3350296 108.4779494 109.6367366
  69.7759816 108.9346078 109.5530830  77.6737608 106.9915415 120.1041607
  77.1904689 107.7915775 120.3105496  77.7598547 107.0023360 119.1509051
  73.6010945 110.8819950 112.1410041  74.5554199 110.8503892 112.0739972
  73.4023469 110.4210574 112.9560267  74.1910327 109.4521066 114.7080838
  75.0103216 109.9465145 114.7315676  74.4647135 108.5353034 114.6798406
  87.2991459 101.8678339 107.7863133  88.0751850 102.3574792 108.0587750
  86.5739594 102.2936393 108.2435003  71.9561174 116.4239569 109.1580239
  71.8215642 115.6639970 108.5918237  71.5393236 117.1480469 108.6909027
  83.9217947 107.3586354 104.2859084  83.8653148 107.8154906 103.4466716
  84.4746290 106.5977039 104.1081927  75.1130300 117.3208886 109.3698681
  74.9962684 118.2654319 109.2677372  74.2922746 117.0182448 109.7584480
  69.4445241 103.7859200 115.4073035  70.0904105 103.2758154 115.8960261
  69.2362392 104.5227881 115.9816461  81.9698634 110.8540047 120.9065176
  82.8389793 111.0280700 120.5451811  81.4905385 111.6734464 120.7840905
  76.1384814 117.9737148 112.5854610  77.0412060 118.0060759 112.9021105
  75.9122184 117.0437599 112.6000945  77.8938416 116.7268135 109.2464688
  76.9434047 116.7269996 109.1329061  78.1970902 115.9800869 108.7300723
  73.7842732 100.9326817 119.5048050  74.6474194 100.5763622 119.7151374
  73.2108143 100.5940712 120.1923454  93.6291109 122.5628673 110.3110451
  94.2669519 122.4435421 109.6073791  93.5111952 123.5109517 110.3698403
  90.4380816 122.5156101 110.2471975  90.0999327 122.3997166 109.3592510
  91.3070584 122.1147266 110.2272982  91.8767190 128.0362545 101.5483331
  91.2255170 128.6216626 101.1617345  92.6711553 128.5668740 101.6078369
  85.8022817 125.1251683 101.9470466  86.5753693 124.5780670 101.8083341
  86.1548216 125.9895932 102.1584927  88.5664067 123.8304913 111.7438725
  89.1627639 123.6060936 111.0295687  88.6239038 123.0889659 112.3464172
  88.1389095 121.2844349  99.5788916  88.3914616 120.7625870  98.8172379
  87.2013654 121.1210494  99.6815599  93.1832378 120.2880127 107.3863659
  93.9695467 119.8699550 107.0354076  93.4471082 121.1926219 107.5545307
  93.3542455 125.7252977 102.0852316  92.7188288 125.7987604 102.7973220
  93.0239862 126.3146576 101.4071395  98.5840805 120.2255360 108.2896637
  99.3165977 119.6554577 108.5234467  97.8280161 119.8376961 108.7303143
  87.8585384 123.1872455 101.7813290  87.7421642 122.5117358 102.4494375
  87.9687644 122.7004829 100.9645444  90.2016925 122.6482602 105.4859980
  89.8375132 122.1213223 106.1972901  91.0584041 122.2581071 105.3126465
  96.1066225 113.9376934 112.7491246  95.7749550 114.8072345 112.5252461
  95.5111839 113.6213218 113.4285276  95.9994889 118.6572021 109.8284596
  95.0911766 118.5887429 109.5343357  95.9482484 119.1343965 110.6566421
  89.8211632 120.1330159 101.4667995  89.7011258 120.5787210 102.3053475
  89.1264221 120.4815477 100.9081533  87.5818525 132.9033801 105.1158126
  87.5042554 133.8541626 105.1946607  86.9780168 132.5579673 105.7733053
  97.8656535 116.8588459 111.6062470  97.2230915 117.1520992 110.9602264
  97.3611463 116.7441379 112.4115667  95.5196699 120.6051632 102.2948329
  96.4314555 120.8379019 102.1196027  95.0106346 121.1888676 101.7323408
  90.1568536 119.9648867 113.3043179  91.0029732 120.3888280 113.4477828
  90.0967174 119.3082491 113.9981742  92.8632673 116.7809668 110.5438190
  92.0017152 117.0790922 110.8354928  92.8895108 116.9980067 109.6119223
  89.6794243 125.3251859 106.9511996  90.1432588 125.6039562 106.1616618
  89.4151041 124.4235303 106.7685086  88.6163129 121.4475011 103.7601561
  89.3187172 121.8996055 104.2275487  88.2843757 120.8058830 104.3881454
  89.8556893 128.2615954 103.8363666  89.7202568 129.1067489 104.2648514
  90.3966706 128.4635231 103.0729600  85.1181176 128.8957148 106.4914344
  85.2947804 129.8175113 106.3035328  85.9138009 128.5815567 106.9208724
  84.4033532 120.9421780 116.3676507  84.2887047 120.0407037 116.6683606
  83.5478050 121.1885477 116.0161324  93.2049357 111.7846516 112.3662559
  92.8613626 112.6748157 112.2901670  93.5728320 111.5948173 111.5032144
  93.1699640 121.7755127 100.8734995  92.6546263 122.5459731 101.1123382
  92.8976948 121.1020263 101.4968056  90.7546751 116.6204827 105.9320233
  89.8988347 116.2311678 105.7525872  91.1673703 116.6996788 105.0720018
  92.2845897 114.1551171 110.3311793  91.7810693 114.1181306 109.5179598
  92.5776504 115.0643913 110.3908449  88.5288783 114.2389900 109.3377974
  89.3941780 114.0432709 108.9783864  88.5966292 114.0100252 110.2647331
  98.1433914 124.5287481 102.8088168  97.3663357 124.1898641 102.3643330
  98.8225395 124.5340104 102.1343133  92.9585943 119.6482219 102.6994776
  92.6536079 119.9628368 103.5504919  93.9116385 119.7263639 102.7422109
  91.4032375 125.8072442 104.3487730  90.8753736 125.0725202 104.0360967
  90.9019878 126.5847118 104.1027698  86.1351102 116.4692108 106.7094341
  86.7094854 116.2467290 105.9767534  86.7222085 116.5380803 107.4622943
  95.1930680 122.3565835 107.5158718  95.7062561 122.9895827 108.0180428
  95.8431904 121.7567031 107.1502078  88.4373770 113.3433357 105.4369411
  87.7838182 113.0282374 104.8126025  88.3954244 112.7209098 106.1629234
  89.5484975 123.6252652  97.3522703  88.6412037 123.3941906  97.5513852
  90.0456007 122.8290272  97.5396684  92.4553054 132.3350159 100.2719389
  91.7814753 132.6381856 100.8804347  92.8418876 133.1379240  99.9224846
  91.6711510 119.8315291 109.7617058  90.7534072 120.0530238 109.6038746
  92.0871654 119.9061601 108.9028766  92.4546558 121.2306706 104.8919739
  93.2018377 121.7428104 104.5826861  92.7238148 120.9090759 105.7524132
  90.7273208 123.7265247 101.8746693  89.8184428 123.4424280 101.9719163
  90.7568292 124.1464326 101.0150000  95.9592476 127.3371837 105.6437860
  95.5054803 126.4962747 105.7003051  95.3286443 127.9733235 105.9812641
  94.9025395 118.2663823 106.8738528  94.1648152 117.7541209 107.2048770
  95.1552169 117.8264204 106.0621805  94.4025415 129.1748333 106.5787679
  94.6948389 129.7353390 105.8600044  94.9124036 129.4676894 107.3340838
  95.0037023 111.0440075 107.4680297  95.3095900 110.1837438 107.1806212
  95.7289628 111.6357695 107.2679291  89.2758102 121.3393868 107.9756488
  89.3306712 120.3867704 107.8998965  88.4649304 121.4953307 108.4597787
  90.4249296 125.2673991  99.2134771  89.9868726 124.5509850  98.7540409
  91.1659737 125.4950106  98.6519863  87.2150462 119.9570928 105.7346867
  86.4018328 120.2565098 106.1412059  87.7109457 119.5626616 106.4521349
  89.3659040 129.9528684 107.6681132  89.3235219 130.1789531 106.7389664
  90.2821739 129.7192059 107.8166933  98.5422411 123.5431188 105.2711090
  98.4040310 123.7332784 104.3432279  98.1858630 124.3050571 105.7279141
  86.7064537 117.5289283 111.3508102  87.3463916 117.3878042 110.6531065
  85.8742068 117.2423796 110.9746704  87.4824841 126.8291713 107.4643095
  88.2765440 126.3342034 107.2625669  86.7716533 126.3009577 107.1010800
  85.1818079 118.9127365 113.2979913  85.8541132 118.7044727 112.6492562
  84.3547865 118.7149451 112.8585146  91.0843651 115.5389306 115.3145574
  90.4371566 116.2379256 115.2210051  91.8544666 115.9725450 115.6821822
  90.6544269 132.5029832 102.4866468  90.8296025 132.0317875 103.3012091
  89.9677057 133.1295598 102.7147729  91.6101332 126.7802338 108.5329769
  91.2751165 126.7403108 109.4287419  91.1105278 126.1147054 108.0600180
  85.5845576 122.1869968 114.0582351  85.4465374 121.4550207 114.6593890
  86.4950500 122.0978868 113.7766538  94.5460524 124.1258372  98.8066829
  93.9289694 123.4005201  98.7099882  94.0777012 124.8867733  98.4633903
  88.2127877 121.8989927 113.5466030  88.9227495 121.2583120 113.5052649
  88.1697185 122.1502822 114.4692211  86.9256811 118.8855145 115.3661670
  86.3894168 118.4345884 116.0183266  86.3373519 119.0201054 114.6232134
  82.6595932 118.0211153 112.4514664  82.5754121 117.4136823 111.7165074
  81.8378638 118.5120171 112.4524160  89.5222996 130.6970087 105.1750654
  88.7390518 131.2391767 105.2688878  90.2215741 131.2144067 105.5744895
  92.8319646 116.5064717 107.8184859  93.3288345 115.7534679 107.4985929
  92.0606627 116.5429033 107.2528069  93.9149427 125.2636404 105.3923283
  92.9805705 125.3837866 105.2227987  94.0926095 124.3608871 105.1283292
  89.4154615 118.6482100 107.5456544  89.0452402 118.0953140 108.2337449
  89.9113707 118.0440233 106.9931544  97.3021978 121.1053723 105.9273317
  97.7682430 121.9381715 105.8533619  97.7529478 120.6398705 106.6318575
  95.3698209 127.4497544 102.9259469  95.6458053 127.3354139 103.8353343
  94.5002708 127.0515029 102.8871642  95.2738641 113.4734310 109.9664218
  94.3601720 113.7038537 110.1346425  95.7031742 113.5572754 110.8178250
  92.0052273 131.6983895 106.5692282  92.1874668 130.8805551 107.0320035
  92.8285259 131.9151587 106.1317172  92.3394439 130.6252080 103.8307331
  92.8682205 130.1144535 103.2177493  92.6022658 130.3094611 104.6952864
  82.8411531 128.6415950 111.5742664  83.4264968 127.8959638 111.7070569
  82.6436370 128.9519906 112.4579328  85.6950186 131.6767197 106.5905107
  85.0260562 132.1613325 106.1069147  85.5563056 131.9236417 107.5048485
  77.4329186 121.2121550 110.2947108  77.4713286 120.6785141 111.0884226
  76.9269479 120.6856755 109.6758085  84.8119948 116.0586090 113.7909650
  84.8761275 116.9200921 113.3787048  84.7487069 115.4460092 113.0582008
  84.2872221 118.1309223 117.4382684  84.9144260 117.7486300 118.0520208
  83.4300140 117.9123425 117.8038377  84.5932011 118.0141649 109.3528588
  83.8718596 118.6277616 109.2136061  85.3825266 118.5499413 109.2745234
  87.3958324 115.3496075 115.6269239  87.9192726 115.5958372 116.3895549
  87.1770657 116.1816110 115.2072377  92.0405184 129.2554652 108.0035350
  91.8930146 128.3271360 108.1842920  92.8658678 129.2774743 107.5192425
  85.9067428 117.9072719 103.8615842  86.2463501 118.4358641 103.1394450
  86.3539549 118.2453126 104.6374408  88.6010869 116.2909770 113.3118910
  88.2607690 115.4917583 113.7139590  87.8949875 116.5911481 112.7395743
  89.2527341 113.3759083 111.7646233  90.0753410 112.9019561 111.6425123
  89.4965405 114.1549566 112.2644919  92.0366698 117.1092490 102.9967467
  92.2530313 117.9917128 102.6956295  91.5560766 116.7178703 102.2673109
  88.6362303 117.0580751 109.6219101  88.6223871 116.1621845 109.2851399
  89.3534731 117.0651415 110.2557387  90.4888433 117.4918091 111.6672228
  90.2306211 118.4135162 111.6656559  89.9573474 117.0948526 112.3572693
  95.4334622 130.5968879 104.4462314  95.6071500 130.0315301 103.6936166
  95.9263513 131.3969773 104.2641804  88.0399199 115.9395132 104.8906671
  88.1615110 115.0111778 105.0897559  87.7501241 115.9533818 103.9784987
  90.9090389 113.6250042 108.0273391  90.9312086 113.6889375 107.0725371
  91.3258448 112.7854551 108.2213897 101.2874013 123.3605302 106.0652614
 101.7305159 122.6112627 105.6671737 100.4100524 123.3515438 105.6826346
  96.4209795 129.9135643 101.5459212  97.1160699 130.5342336 101.7646527
  96.7632945 129.0630994 101.8211590  82.0377604 121.7353444 115.4056030
  81.2959340 121.8836079 115.9920660  81.7170348 121.9961710 114.5422779
  98.3201218 127.3635349 103.0746543  98.8452542 127.7022621 102.3495863
  98.2323570 126.4282364 102.8909678  87.4515751 128.9745341 109.5064098
  86.8295760 128.3116046 109.2066326  88.1220618 129.0006473 108.8237746
  87.0129258 127.5249264 102.9822558  87.1617378 128.2084729 102.3289231
  87.8195701 127.5054354 103.4972014  92.4578600 114.4238118 113.3708383
  92.9760544 115.1599145 113.0454871  92.1033733 114.7302112 114.2055142
  92.7091195 110.8438401 108.8909279  92.9892948 110.1761590 109.5169706
  93.4941801 111.0367496 108.3783943  90.5124663 130.0197395 100.4534306
  89.9398630 130.6387582 100.0004778  91.0857457 130.5696756 100.9874228
  94.6014432 116.3511618 112.8240255  94.0064364 116.6316631 112.1286744
  94.3164129 116.8405519 113.5956997  93.7321923 130.3034545 101.5842888
  94.6652596 130.2380106 101.7875764  93.6445136 131.1390812 101.1257421
  96.3609939 129.6200415  98.5446836  96.2823571 129.2860279  99.4382593
  97.1819606 130.1122183  98.5438308  90.8971462 121.3558207  97.7950358
  91.8430566 121.2264416  97.8638776  90.5185706 120.6172869  98.2719786
  96.8693346 113.0214213 107.7577250  96.6718167 112.7129302 108.6420582
  97.4793052 113.7475852 107.8875180  90.6976444 113.8245074 103.8849485
  89.8877173 113.4792158 104.2604731  91.3860861 113.5152617 104.4737096
  92.6266993 112.9023120 105.5073781  93.1798031 113.3218574 106.1663805
  92.8637079 111.9758868 105.5496737  96.0045800 115.0123645 105.0152446
  95.4244469 115.6708450 104.6330498  95.7381732 114.1900990 104.6039863
  94.4549366 114.4128703 107.2173766  94.9549145 114.5245238 106.4088085
  95.0984974 114.1089756 107.8574574  84.4404699 126.2111868 112.1410041
  85.3947953 126.1795810 112.0739972  84.2417223 125.7502491 112.9560267
  94.7870678 117.1723736 104.0708794  93.8996533 117.4573386 103.8528989
  95.2024667 117.0117499 103.2236071  98.1385214 117.1970257 107.7863133
  98.9145604 117.6866709 108.0587750  97.4133348 117.6228311 108.2435003
 100.5757773 117.9097876 108.8437074 101.1702263 117.6693612 108.1330382
 100.6484356 117.1905007 109.4710610  82.7954928 131.7531487 109.1580239
  82.6609396 130.9931888 108.5918237  82.3786991 132.4772387 108.6909027
  93.9313891 126.9368411  98.1656814  94.6349741 127.1418413  98.7814470
  93.2076540 127.5045172  98.4305897  94.7611702 122.6878272 104.2859084
  94.7046903 123.1446823 103.4466716  95.3140044 121.9268956 104.1081927
  98.5716507 118.4768004 105.1109204  98.3153442 118.0764639 105.9417411
  97.9469376 119.1911798 104.9859343 102.8828845 121.2164077 107.6180495
 102.3228403 121.2857266 108.3912057 102.2772349 121.0405062 106.8979991
  95.8400589 127.3750940 100.2155274  96.6746193 126.9432138 100.0332749
  95.6784932 127.2032953 101.1432168  95.4946481 123.8783053 101.5811613
  95.4395285 123.7127324 100.6400057  94.8692536 124.5859086 101.7373803
  80.2838996 119.1151117 115.4073035  80.9297859 118.6050071 115.8960261
  80.0756147 119.8519799 115.9816461  92.6194726 109.9733939 105.4142868
  91.8527122 109.4192425 105.5599551  93.0305431 110.0455807 106.2757020
  98.9782849 136.6136266  99.5788916  99.2308370 136.0917788  98.8172379
  98.0407409 136.4502412  99.6815599 100.6816166 133.0064419 100.4821328
 100.8490568 133.8744656 100.8491799 100.4913335 133.1691701  99.5582617
  97.3014444 133.8288487 100.7290227  96.4651756 134.1663174 101.0499501
  97.1619214 133.6937467  99.7917364  99.2767525 128.6725275 105.4369411
  98.6231937 128.3574292 104.8126025  99.2347999 128.0501015 106.1629234
 100.3878729 138.9544570  97.3522703  99.4805791 138.7233823  97.5513852
 100.8849761 138.1582189  97.5396684  94.6301359 136.3026713 103.5402847
  93.6998947 136.2411168 103.7572809  94.7258831 135.7802666 102.7439488
  97.1752824 133.6735714  97.9288133  96.2982291 133.5524515  97.5650380
  97.6510577 132.8821793  97.6767022  91.9031518 135.2677570 103.3701039
  92.1984959 134.3588248 103.3168093  91.0019554 135.2465309 103.0482041
  93.6319360 132.9491667 103.4940364  93.3032066 132.0689046 103.3115470
  93.9858730 132.8939336 104.3816753  98.7329330 131.7339259 102.0609135
  99.4537692 132.1120512 101.5572851  98.1094634 132.4528136 102.1644113
  98.8792953 131.2687049 104.8906671  99.0008864 130.3403695 105.0897559
  98.5894995 131.2825735 103.9784987  94.8771293 134.6134717 101.4869789
  94.1840537 134.6879072 100.8309825  94.6323044 133.8495061 102.0091306
 101.7365216 136.6850125  97.7950358 102.6824321 136.5556333  97.8638776
 101.3579461 135.9464787  98.2719786  99.9208133 134.6100101  97.7305243
  99.0139589 134.3133214  97.8067957 100.1984114 134.3129920  96.8639530
 101.5370199 129.1536991 103.8849485 100.7270927 128.8084076 104.2604731
 102.2254616 128.8444535 104.4737096  98.6906918 131.4687037  97.8717223
  99.5526082 131.7941935  98.1313040  98.8757262 130.6818533  97.3590288
  99.6436361 128.7083080 101.1596932  99.6315031 129.6524920 101.3165203
 100.5359783 128.5253225 100.8656393 103.4588480 125.3025856 105.4142868
 102.6920876 124.7484343 105.5599551 103.8699185 125.3747725 106.2757020
  28.5928584   7.5939290  97.0355757  29.2306994   7.4746037  96.3319097
  28.4749426   8.5420134  97.0943709  25.4018290   7.5466718  96.9717282
  25.0636801   7.4307783  96.0837817  26.2708058   7.1457883  96.9518288
  21.2605106   9.4002194  92.9614173  20.6969971   9.3092131  92.1930461
  21.1457501   8.5802099  93.4416666  18.8069538  10.8953386  95.7998393
  19.5990829  10.5544210  95.3844693  19.0466188  11.0048361  96.7200547
  26.8404664  13.0673162  88.2728638  26.1892644  13.6527242  87.8862652
  27.6349027  13.5979357  88.3323675  20.7660291  10.1562299  88.6715772
  21.5391167   9.6091286  88.5328648  21.1185690  11.0206548  88.8830234
  23.5301541   8.8615530  98.4684031  24.1265113   8.6371552  97.7540994
  23.5876512   8.1200275  99.0709479  23.1026569   6.3154965  86.3034222
  23.3552090   5.7936486  85.5417685  22.1651128   6.1521111  86.4060906
  28.1469852   5.3190744  94.1108965  28.9332941   4.9010167  93.7599382
  28.4108556   6.2236836  94.2790614  28.3179929  10.7563594  88.8097622
  27.6825762  10.8298220  89.5218527  27.9877336  11.3457193  88.1316701
  33.5478279   5.2565977  95.0141944  34.2803451   4.6865194  95.2479773
  32.7917635   4.8687577  95.4548449  22.8222858   8.2183071  88.5058597
  22.7059116   7.5427975  89.1739681  22.9325118   7.7315445  87.6890750
  25.1654399   7.6793218  92.2105286  24.8012606   7.1523839  92.9218208
  26.0221515   7.2891687  92.0371772  27.5635219  11.1700097  98.8732465
  27.2635942  12.0725136  98.7648272  27.2186279  10.9032280  99.7253618
  21.0147701   7.6213894  94.9069170  20.0898197   7.4890108  95.1146861
  21.2632114   8.4008113  95.4039112  30.9632363   3.6882637  96.5529903
  30.0549240   3.6198045  96.2588664  30.9119959   4.1654582  97.3811728
  24.7849107   5.1640775  88.1913302  24.6648732   5.6097826  89.0298782
  24.0901695   5.5126093  87.6326840  22.5455999  17.9344417  91.8403433
  22.4680029  18.8852242  91.9191913  21.9417642  17.5890290  92.4978359
  32.8294009   1.8899075  98.3307776  32.1868390   2.1831609  97.6847571
  32.3248938   1.7751996  99.1360973  30.4834173   5.6362249  89.0193636
  31.3952029   5.8689635  88.8441333  29.9743820   6.2199293  88.4568714
  29.0903755  10.6188067  96.4107217  28.4612618  10.7833781  95.7083285
  28.7029417  11.0329677  97.1818181  32.9692987  11.5542505  93.7651581
  32.2844025  11.9341406  93.2148614  33.0536836  12.1637832  94.4983529
  30.2243919   9.2002464 100.3646924  30.4360814   9.8434224  99.6881306
  30.1773667   8.3664781  99.8968855  24.6431717  10.3562475  93.6757302
  25.1070063  10.6350178  92.8861925  24.3788515   9.4545920  93.4930393
  21.5355798   9.9033957  96.6137066  22.1057155  10.3321225  95.9754550
  22.1263910   9.6216541  97.3121251  23.5800603   6.4785628  90.4846867
  24.2824647   6.9306671  90.9520794  23.2481232   5.8369446  91.1126761
  31.3389747  12.0774419  98.5369282  32.1607190  11.6754607  98.2551963
  31.3352150  11.9742654  99.4885398  25.1046350  11.6258463 100.6929992
  25.1690783  12.0878870 101.5288164  24.3957274  10.9955828 100.8212302
  39.4295740   8.4213168  94.8854253  38.6759448   7.8520566  94.7298258
  39.5643281   8.3875832  95.8324888  24.8194368  13.2926570  90.5608973
  24.6840043  14.1378106  90.9893820  25.3604180  13.4945848  89.7974906
  18.2723765  10.8102008  91.1336898  18.7848286  11.6045258  91.2842462
  18.9246478  10.1128299  91.0670499  20.0818650  13.9267764  93.2159651
  20.2585278  14.8485729  93.0280635  20.8775483  13.6126184  93.6454031
  21.2049965  15.4445938  99.2169993  21.7557390  15.3163002  98.4446987
  20.3661441  15.7440827  98.8664886  28.5444082  14.1952937 102.7190716
  28.5262558  15.0161818 102.2270985  29.4664002  14.0707012 102.9440857
  28.1337114   6.8065743  87.5980301  27.6183738   7.5770348  87.8368689
  27.8614423   6.1330879  88.2213363  33.1071388   9.5598098  89.5333475
  32.3300831   9.2209257  89.0888637  33.7862869   9.5650721  88.8588440
  27.9223417   4.6792835  89.4240082  27.6173553   4.9938984  90.2750226
  28.8753859   4.7574255  89.4667415  26.3669849  10.8383059  91.0733036
  25.8391211  10.1035818  90.7606274  25.8657352  11.6157735  90.8273005
  31.3462695   9.0332079  96.1900083  30.6886370   9.7231340  96.2780211
  32.1503094   9.4228511  96.5334069  30.1568154   7.3876452  94.2404024
  30.6700036   8.0206444  94.7425734  30.8069378   6.7877647  93.8747384
  24.5122449   8.6563269  84.0768009  23.6049511   8.4252522  84.2759158
  25.0093481   7.8600888  84.2641991  27.4190528  17.3660776  86.9964696
  26.7452227  17.6692473  87.6049653  27.8056350  18.1689856  86.6470153
  26.6348985   4.8625907  96.4862365  25.7171546   5.0840854  96.3284053
  27.0509128   4.9372218  95.6274072  27.4184033   6.2617323  91.6165045
  28.1655852   6.7738720  91.3072167  27.6875622   5.9401376  92.4769439
  25.6910683   8.7575864  88.5992000  24.7821902   8.4734897  88.6964469
  25.7205767   9.1774942  87.7395306  30.9229950  12.3682453  92.3683167
  30.4692277  11.5273363  92.4248358  30.2923917  13.0043852  92.7057947
  29.8662870   3.2974439  93.5983835  29.1285627   2.7851825  93.9294077
  30.1189643   2.8574821  92.7867111  29.3662889  14.2058950  93.3032985
  29.6585864  14.7664007  92.5845351  29.8761510  14.4987511  94.0586144
  24.2395577   6.3704484  94.7001795  24.2944187   5.4178321  94.6244271
  23.4286779   6.5263923  95.1843093  25.3886771  10.2984607  85.9380078
  24.9506200   9.5820466  85.4785715  26.1297211  10.5260722  85.3765169
  24.3296515  14.9839301  94.3926438  24.2872693  15.2100147  93.4634970
  25.2459213  14.7502676  94.5412240  33.5059885   8.5741804  91.9956397
  33.3677784   8.7643400  91.0677586  33.1496104   9.3361187  92.4524448
  33.5329265  10.6418331  97.0067668  33.9665772  10.5493621  97.8550722
  34.2460846  10.6175832  96.3687684  22.4462315  11.8602330  94.1888401
  23.2402914  11.3652650  93.9870976  21.7354008  11.3320193  93.8256107
  27.2657160  14.2420426  98.5400769  27.3194182  14.8111362  99.3078485
  26.3971941  14.4122311  98.1754806  34.3944815  10.6842032  99.5400554
  34.5880705  11.5887843  99.7859828  34.2945433  10.2249451 100.3739139
  26.2245260   8.4080688 100.0987701  27.1537320   8.5591847  99.9256668
  25.8036290   8.4964708  99.2436347  25.0233591  12.4331352  97.8686238
  24.8844677  12.0650136  98.7412176  24.2348188  12.9478991  97.6970196
  25.6181743  17.5340448  89.2111775  25.7933499  17.0628492  90.0257397
  24.9314531  18.1606215  89.4393035  26.5738807  11.8112955  95.2575076
  26.2388639  11.7713725  96.1532726  26.0742752  11.1457671  94.7845486
  29.5097998   9.1568989  85.5312136  28.8927169   8.4315817  85.4345188
  29.0414487   9.9178349  85.1879210  31.1652130  13.8667897 103.1917916
  31.1064676  13.1827118 102.5248499  31.5671648  14.6086887 102.7398542
  20.1842829  20.6829811  95.9851635  20.4239427  21.3148335  96.6630653
  19.3412025  20.3317851  96.2716994  31.1669537  11.8307481 101.4231896
  30.2796316  11.4933403 101.5458295  31.7368088  11.0990513 101.6600661
  24.6970690  16.4908934  98.3893139  24.6240862  17.2963905  98.9012443
  24.2548084  16.6900899  97.5641160  24.4860470  15.7280704  91.8995960
  23.7027992  16.2702384  91.9934185  25.1853215  16.2454683  92.2990202
  35.6486878   7.2415699  96.1848457  35.6376754   8.1240414  95.8142390
  34.7804257   6.8887250  95.9902994  27.1569374  16.3895768 100.5451298
  27.8697346  17.0243233 100.4727199  26.6659403  16.4859634  99.7291299
  28.8786901  10.2947020  92.1168589  27.9443180  10.4148483  91.9473294
  29.0563569   9.3919487  91.8528599  32.2659452   6.1364340  92.6518623
  32.7319904   6.9692331  92.5778926  32.7166953   5.6709321  93.3563882
  22.2081288  14.1390211 101.3656868  22.9090747  14.7726694 101.5186263
  21.7376403  14.4804943 100.6052508  30.3335683  12.4808161  89.6504775
  30.6095527  12.3664756  90.5598649  29.4640182  12.0825646  89.6116949
  30.0082574   6.6934819  99.1909419  29.3554024   6.9410726  98.5361872
  30.3862953   5.8798957  98.8571896  26.9689747  16.7294512  93.2937589
  27.1512142  15.9116168  93.7565341  27.7922733  16.9462204  92.8562479
  27.3031913  15.6562697  90.5552638  27.8319679  15.1455151  89.9422800
  27.5660132  15.3405227  91.4198171  17.8049006  13.6726566  98.2987971
  18.3902442  12.9270254  98.4315875  17.6073844  13.9830523  99.1824635
  20.6587661  16.7077814  93.3150413  19.9898036  17.1923941  92.8314454
  20.5200531  16.9547034  94.2293792  24.7992929  18.7421557  99.9133072
  25.3511237  18.9053179 100.6782157  25.1399123  19.3325995  99.2413097
  27.9361317  16.6903533  96.8996754  27.8112456  15.8893272  96.3907699
  28.5940408  17.1849726  96.4110724  29.9996225  14.4912553  98.5276304
  29.0526561  14.3717904  98.4554631  30.3478998  13.6035051  98.6102566
  27.0042658  14.2865269  94.7280656  26.8567621  13.3581976  94.9088226
  27.8296152  14.3085360  94.2437732  30.6076780  15.1093828  95.8145529
  31.5323328  14.9036689  95.6769980  30.4392084  14.8610229  96.7234871
  30.3972096  15.6279495  91.1707621  30.5708974  15.0625918  90.4181473
  30.8900988  16.4280390  90.9887110  36.2511488   8.3915918  92.7897920
  36.6942634   7.6423243  92.3917044  35.3737998   8.3826054  92.4071652
  31.3847269  14.9446260  88.2704519  32.0798174  15.5652952  88.4891833
  31.7270419  14.0941611  88.5456897  33.2838692  12.3945965  89.7991850
  33.8090016  12.7333238  89.0741170  33.1961045  11.4592980  89.6154984
  24.9458741  16.3080039 101.9281726  25.2545867  16.0629185 102.8004426
  25.7434223  16.5126677 101.4400596  24.9679353  18.4617948  94.1587103
  24.5284343  17.9694327  94.8519959  25.7187470  17.9190916  93.9179178
  17.4471692  14.6529489  94.1611731  18.2729712  14.3533261  93.7810374
  17.0965744  13.8837112  94.6101519  22.4153225  14.0055957  96.2309404
  21.7933234  13.3426662  95.9311632  23.0858092  14.0317089  95.5483052
  15.6480297  12.5715816  95.1200664  14.8112205  12.1437990  94.9384666
  15.6203942  12.7648259  96.0571456  32.9732598  13.0278869 105.1043048
  32.1828142  13.0103008 104.5647547  32.7365953  13.5667162 105.8592084
  33.0930473   9.8771335 102.4175776  33.1428478   9.7121343 103.3591299
  32.9844396   9.0098594 102.0273657  21.9766732  12.5559881  89.7067865
  22.1254852  13.2395345  89.0534538  22.7833175  12.5364971  90.2217321
  34.5948670  12.2968277 102.6617798  34.3033478  12.6598257 103.4981259
  33.9820801  11.5835285 102.4831130  35.7944352   9.8621156  95.1820368
  36.6291244  10.3010960  95.3457928  35.9303481   9.3859810  94.3628614
  32.8435858   7.4200891 101.1297856  33.3189980   7.6128538 100.3216707
  31.9201424   7.4760077 100.8841239  19.7319365   8.5825058  90.7128934
  19.4865407   7.6787388  90.9109144  19.9015279   8.5842209  89.7708412
  25.4762137  15.0508011  87.1779612  24.9036104  15.6698198  86.7250084
  26.0494931  15.6007373  87.7119534  31.5437527   4.2966651  99.3626161
  32.4954950   4.3964749  99.3838385  31.3740978   3.5044920  99.8724246
  28.6959397  15.3345161  88.3088195  29.6290070  15.2690723  88.5121070
  28.6082610  16.1701428  87.8502727  31.3247414  14.6511032  85.2692142
  31.2461045  14.3170895  86.1627900  32.1457081  15.1432800  85.2683615
  34.0225605   7.5172771  98.4768461  33.9901925   6.5788772  98.6628145
  34.6326229   7.5956808  97.7434286  25.8608936   6.3868824  84.5195665
  26.8068041   6.2575032  84.5884083  25.4823181   5.6483486  84.9965093
  34.1720093   4.3083814  98.5226744  33.6559142   3.5242271  98.3356673
  35.0560042   3.9802531  98.6873263  39.8402155   8.5788778  97.6174498
  40.5705543   8.3174066  98.1782201  39.2309100   7.8417500  97.6576566
  37.9217452   6.7196640  98.2148949  37.1950616   6.5852605  97.6065440
  37.5064739   7.0273469  99.0205667  30.9683274   0.0434262  91.7397752
  30.3881943   0.7019066  91.3575805  30.7019207  -0.7788393  91.3285170
  16.7454796   9.1846329  94.7508733  16.7225484   9.2834016  93.7990616
  17.0555432  10.0311480  95.0725899  29.7508152   2.2034352  90.7954101
  28.8634007   2.4884003  90.5774295  30.1662141   2.0428116  89.9481377
  33.1022688   2.2280873  94.5108440  33.8783078   2.7177326  94.7833057
  32.3770822   2.6538928  94.9680309  35.5395247   2.9408493  95.5682380
  36.1339738   2.7004229  94.8575689  35.6121831   2.2215623  96.1955917
  17.7592403  16.7842104  95.8825545  17.6246871  16.0242504  95.3163543
  17.3424465  17.5083003  95.4154334  28.8951366  11.9679027  84.8902121
  29.5987216  12.1729030  85.5059776  28.1714014  12.5355789  85.1551204
  29.7249176   7.7188888  91.0104391  29.6684377   8.1757440  90.1712023
  30.2777518   6.9579573  90.8327233  33.5353982   3.5078620  91.8354510
  33.2790916   3.1075256  92.6662718  32.9106850   4.2222414  91.7104649
  37.8466320   6.2474693  94.3425802  37.2865878   6.3167883  95.1157364
  37.2409823   6.0715678  93.6225298  20.9161528  17.6811421  96.0943988
  20.7993913  18.6256853  95.9922678  20.0953975  17.3784982  96.4829787
  30.8038063  12.4061556  86.9400581  31.6383667  11.9742755  86.7578055
  30.6422406  12.2343570  87.8677475  30.4583955   8.9093670  88.3056920
  30.4032759   8.7437941  87.3645364  29.8330010   9.6169702  88.4619110
  21.9416043  18.3339682  99.3099916  22.8443289  18.3663293  99.6266411
  21.7153413  17.4040133  99.3246252  23.6969645  17.0870669  95.9709995
  22.7465276  17.0872531  95.8574367  24.0002131  16.3403404  95.4546030
  39.4322338  22.9231207  97.0355757  40.0700748  22.8037955  96.3319097
  39.3143181  23.8712051  97.0943709  36.2412044  22.8758636  96.9717282
  35.9030556  22.7599700  96.0837817  37.1101813  22.4749801  96.9518288
  32.0998860  24.7294112  92.9614173  31.5363725  24.6384049  92.1930461
  31.9851255  23.9094016  93.4416666  36.7231827  24.0293487 102.9303488
  36.7120468  23.6346285 102.0583991  36.8852467  23.2959560 103.5237259
  29.6463292  26.2245304  95.7998393  30.4384584  25.8836128  95.3844693
  29.8859942  26.3340279  96.7200547  37.6798419  28.3965080  88.2728638
  37.0286399  28.9819160  87.8862652  38.4742782  28.9271275  88.3323675
  31.6054046  25.4854217  88.6715772  32.3784922  24.9383204  88.5328648
  31.9579445  26.3498466  88.8830234  33.4439089  26.8130599 101.8782672
  33.1528954  27.7176230 101.7629338  34.0796073  26.8547127 102.5926741
  34.3695295  24.1907448  98.4684031  34.9658868  23.9663470  97.7540994
  34.4270267  23.4492193  99.0709479  33.9420324  21.6446883  86.3034222
  34.1945844  21.1228404  85.5417685  33.0044883  21.4813028  86.4060906
  38.9863607  20.6482661  94.1108965  39.7726696  20.2302084  93.7599382
  39.2502311  21.5528753  94.2790614  39.1573684  26.0855512  88.8097622
  38.5219517  26.1590138  89.5218527  38.8271090  26.6749110  88.1316701
  44.3872034  20.5857894  95.0141944  45.1197206  20.0157111  95.2479773
  43.6311389  20.1979495  95.4548449  33.6616613  23.5474989  88.5058597
  33.5452871  22.8719892  89.1739681  33.7718872  23.0607363  87.6890750
  36.0048153  23.0085136  92.2105286  35.6406361  22.4815757  92.9218208
  36.8615269  22.6183605  92.0371772  41.9097454  14.2979469  99.4736552
  41.5780779  15.1674880  99.2497767  41.3143067  13.9815753 100.1530583
  35.6453640  18.0375036  87.2066635  35.8128043  18.9055272  87.5737106
  35.4550809  18.2002317  86.2827924  38.4028974  26.4992015  98.8732465
  38.1029697  27.4017053  98.7648272  38.0580033  26.2324198  99.7253618
  31.8541455  22.9505811  94.9069170  30.9291952  22.8182025  95.1146861
  32.1025868  23.7300031  95.4039112  41.8026117  19.0174555  96.5529903
  40.8942995  18.9489963  96.2588664  41.7513713  19.4946500  97.3811728
  35.6242861  20.4932693  88.1913302  35.5042486  20.9389744  89.0298782
  34.9295450  20.8418011  87.6326840  29.2150266  22.5939085  95.7412959
  29.3442647  22.8473564  96.6552370  28.5347717  23.1866793  95.4217614
  33.3849753  33.2636335  91.8403433  33.3073783  34.2144160  91.9191913
  32.7811397  32.9182207  92.4978359  35.8766983  20.4364200 104.4964800
  35.1000317  20.9958120 104.4867664  36.5157546  20.9220983 105.0179670
  43.6687764  17.2190993  98.3307776  43.0262144  17.5123526  97.6847571
  43.1642692  17.1043913  99.1360973  41.3227927  20.9654166  89.0193636
  42.2345784  21.1981553  88.8441333  40.8137575  21.5491211  88.4568714
  34.1313355  23.2449654 104.0582767  34.8728040  23.7834698 103.7817590
  33.4250341  23.8715942 104.2154319  39.6068695  25.3878794 102.6554928
  40.0152051  24.9461205 101.9109561  38.8845957  24.8131422 102.9089121
  35.9599765  20.3251401 100.0288485  36.8060960  20.7490814 100.1723134
  35.8998403  19.6685025 100.7227048  39.9297510  25.9479985  96.4107217
  39.3006372  26.1125699  95.7083285  39.5423172  26.3621594  97.1818181
  43.8086742  26.8834423  93.7651581  43.1237780  27.2633324  93.2148614
  43.8930591  27.4929749  94.4983529  39.1099210  17.9855769 101.6869659
  38.8660142  18.7397830 101.1503935  39.3859141  18.3641117 102.5216906
  41.0637673  24.5294382 100.3646924  41.2754568  25.1726142  99.6881306
  41.0167422  23.6956698  99.8968855  38.6663902  17.1412202  97.2683497
  37.8048381  17.4393456  97.5600234  38.6926337  17.3582601  96.3364529
  35.4825472  25.6854393  93.6757302  35.9463817  25.9642096  92.8861925
  35.2182270  24.7837837  93.4930393  32.3749553  25.2325874  96.6137066
  32.9450910  25.6613143  95.9754550  32.9657665  24.9508459  97.3121251
  34.4194358  21.8077545  90.4846867  35.1218401  22.2598589  90.9520794
  34.0874986  21.1661364  91.1126761  32.8674719  20.3989302 104.8598077
  32.2373380  21.0805583 105.0933474  32.7610807  20.2872383 103.9151215
  28.1619692  20.0661098  95.7864001  27.3718746  20.3218626  95.3104112
  28.6530939  20.8809436  95.8916042  42.1783501  27.4066337  98.5369282
  43.0000945  27.0046524  98.2551963  42.1745904  27.3034571  99.4885398
  30.1134437  20.4305677  92.7447478  29.3165600  20.5424371  93.2630973
  29.8860029  20.7692329  91.8788368  35.9440105  26.9550380 100.6929992
  36.0084537  27.4170788 101.5288164  35.2351029  26.3247745 100.8212302
  26.4457395  20.3191588  98.2178992  26.6965433  21.2038598  98.4836568
  26.9816943  20.1396190  97.4454084  50.2689494  23.7505086  94.8854253
  49.5153203  23.1812484  94.7298258  50.4037035  23.7167750  95.8324888
  35.6588122  28.6218488  90.5608973  35.5233797  29.4670024  90.9893820
  36.1997935  28.8237765  89.7974906  29.1117520  26.1393926  91.1336898
  29.6242040  26.9337176  91.2842462  29.7640233  25.4420216  91.0670499
  30.9212404  29.2559682  93.2159651  31.0979033  30.1777647  93.0280635
  31.7169238  28.9418101  93.6454031  35.0623423  16.1167947 104.8143584
  35.8033136  16.7175100 104.7348047  35.2941346  15.3745585 104.2561627
  30.2064761  21.3024314 103.0921814  30.0918276  20.4009571 103.3928913
  29.3509279  21.5488011 102.7406631  37.2856599  29.2442054 104.6909315
  36.8420453  28.4578433 104.3730219  37.9473812  29.4321205 104.0253206
  32.0443720  30.7737856  99.2169993  32.5951145  30.6454919  98.4446987
  31.2055196  31.0732745  98.8664886  39.3837837  29.5244854 102.7190716
  39.3656312  30.3453735 102.2270985  40.3057757  29.3998930 102.9440857
  35.8410891  27.0388984 103.5614224  36.3739228  26.2777272 103.3313532
  35.3124972  26.7462636 104.3038379  39.0080586  12.1449050  99.0907866
  38.6644855  13.0350691  99.0146977  39.3759548  11.9550707  98.2277451
  27.0766436  24.4682580  91.9096468  27.9141658  24.8779589  91.6930176
  27.2544704  23.5282022  91.8796662  38.9730869  22.1357661  87.5980301
  38.4577492  22.9062265  87.8368689  38.7008177  21.4622797  88.2213363
  36.5577980  16.9807362  92.6565540  35.7019576  16.5914212  92.4771178
  36.9704931  17.0599322  91.7965325  38.0877126  14.5153705  97.0557099
  37.5841922  14.4783840  96.2424905  38.3807733  15.4246448  97.1153756
  34.3320012  14.5992435  96.0623281  35.1973009  14.4035243  95.7029171
  34.3997521  14.3702786  96.9892638  43.9465143  24.8890015  89.5333475
  43.1694585  24.5501175  89.0888637  44.6256624  24.8942639  88.8588440
  38.7617172  20.0084753  89.4240082  38.4567307  20.3230902  90.2750226
  39.7147614  20.0866173  89.4667415  37.2063604  26.1674976  91.0733036
  36.6784965  25.4327736  90.7606274  36.7051106  26.9449653  90.8273005
  42.1856450  24.3623997  96.1900083  41.5280124  25.0523258  96.2780211
  42.9896849  24.7520429  96.5334069  31.9382331  16.8294643  93.4339648
  32.5126083  16.6069824  92.7012841  32.5253314  16.8983337  94.1868249
  40.9961908  22.7168369  94.2404024  41.5093790  23.3498361  94.7425734
  41.6463132  22.1169565  93.8747384  32.2651918  18.8599104  87.4535533
  31.4289231  19.1973790  87.7744808  32.1256688  18.7248083  86.5162670
  34.2404999  13.7035891  92.1614717  33.5869411  13.3884909  91.5371332
  34.1985473  13.0811632  92.8874540  35.3516204  23.9855187  84.0768009
  34.4443266  23.7544440  84.2759158  35.8487236  23.1892806  84.2641991
  38.2584283  32.6952694  86.9964696  37.5845981  32.9984390  87.6049653
  38.6450105  33.4981774  86.6470153  37.4742739  20.1917825  96.4862365
  36.5565301  20.4132772  96.3284053  37.8902883  20.2664135  95.6274072
  38.2577787  21.5909241  91.6165045  39.0049606  22.1030638  91.3072167
  38.5269377  21.2693293  92.4769439  36.5304437  24.0867781  88.5992000
  35.6215656  23.8026814  88.6964469  36.5599521  24.5066860  87.7395306
  41.7623705  27.6974371  92.3683167  41.3086032  26.8565281  92.4248358
  41.1317671  28.3335769  92.7057947  40.7056624  18.6266357  93.5983835
  39.9679381  18.1143743  93.9294077  40.9583398  18.1866739  92.7867111
  40.2056644  29.5350868  93.3032985  40.4979618  30.0955925  92.5845351
  40.7155264  29.8279429  94.0586144  40.8068252  11.4042609  94.1925604
  41.1127128  10.5439972  93.9051519  41.5320856  11.9960229  93.9924598
  27.0992608  21.8073296  92.5807202  26.9017007  21.2142656  91.8558268
  26.5439272  21.5025506  93.2983141  35.0789331  21.6996402  94.7001795
  35.1337941  20.7470238  94.6244271  34.2680533  21.8555841  95.1843093
  36.2280525  25.6276525  85.9380078  35.7899955  24.9112384  85.4785715
  36.9690966  25.8552640  85.3765169  33.0181691  20.3173462  92.4592174
  32.2049557  20.6167632  92.8657366  33.5140685  19.9229150  93.1766656
  35.1690269  30.3131219  94.3926438  35.1266448  30.5392065  93.4634970
  36.0852968  30.0794593  94.5412240  38.6155903  20.7815286 101.2907068
  38.9705291  21.0086759 102.1501533  39.2628034  21.1133663 100.6684323
  44.3453640  23.9033722  91.9956397  44.2071538  24.0935318  91.0677586
  43.9889859  24.6653105  92.4524448  32.5095766  17.8891817  98.0753409
  33.1495145  17.7480576  97.3776372  31.6773297  17.6026331  97.6992011
  44.3723019  25.9710249  97.0067668  44.8059526  25.8785538  97.8550722
  45.0854600  25.9467750  96.3687684  33.2856070  27.1894248  94.1888401
  34.0796668  26.6944568  93.9870976  32.5747762  26.6612111  93.8256107
  38.1050914  29.5712343  98.5400769  38.1587937  30.1403280  99.3078485
  37.2365696  29.7414228  98.1754806  29.5938833  21.3337329  90.2648154
  28.6636421  21.2721785  90.4818116  29.6896305  20.8113282  89.4684795
  29.5124382  17.8592142  92.8526395  29.7731200  18.7737475  92.7435556
  30.3341555  17.3916585  93.0023008  30.9849308  19.2729899 100.0225220
  31.6572361  19.0647262  99.3737869  30.1579094  19.0751985  99.5830452
  45.2338569  26.0133950  99.5400554  45.4274459  26.9179760  99.7859828
  45.1339187  25.5541369 100.3739139  36.8874880  15.8991840 102.0390881
  36.2402795  16.5981790 101.9455357  37.6575895  16.3327984 102.4067129
  40.2953678  26.1640692 105.1141434  40.1439184  25.9351244 104.1971518
  40.2858357  27.1211294 105.1272779  37.0639014  23.7372605 100.0987701
  37.9931074  23.8883765  99.9256668  36.6430044  23.8256626  99.2436347
  35.8627346  27.7623270  97.8686238  35.7238432  27.3942054  98.7412176
  35.0741942  28.2770909  97.6970196  36.4575498  32.8632366  89.2111775
  36.6327254  32.3920409  90.0257397  35.7708286  33.4898132  89.4393035
  37.4132561  27.1404872  95.2575076  37.0782394  27.1005642  96.1532726
  36.9136507  26.4749588  94.7845486  31.3876805  22.5472502 100.7827657
  31.2496603  21.8152741 101.3839196  32.2981728  22.4581402 100.5011845
  40.3491753  24.4860907  85.5312136  39.7320923  23.7607735  85.4345188
  39.8808241  25.2470267  85.1879210  34.0159106  22.2592462 100.2711337
  34.7258724  21.6185654 100.2297955  33.9728414  22.5105357 101.1937518
  42.0045884  29.1959815 103.1917916  41.9458430  28.5119035 102.5248499
  42.4065403  29.9378805 102.7398542  32.7288040  19.2457680 102.0906976
  32.1925397  18.7948418 102.7428573  32.1404748  19.3803588 101.3477441
  31.0236583  36.0121729  95.9851635  31.2633181  36.6440253  96.6630653
  30.1805780  35.6609769  96.2716994  32.1390299  18.7046331  84.6533440
  31.2619765  18.5835132  84.2895687  32.6148052  17.9132409  84.4012329
  42.0063292  27.1599399 101.4231896  41.1190070  26.8225321 101.5458295
  42.5761843  26.4282430 101.6600661  23.6592439  23.4923491  94.7474947
  24.3463479  23.1785221  94.1595962  23.5040567  24.3964855  94.4742199
  28.4627161  18.3813687  99.1759971  28.3785350  17.7739357  98.4410381
  27.6409867  18.8722706  99.1769467  35.5364445  31.8200851  98.3893139
  35.4634616  32.6255823  98.9012443  35.0941838  32.0192817  97.5641160
  35.3254225  31.0572621  91.8995960  34.5421746  31.5994302  91.9934185
  36.0246970  31.5746601  92.2990202  38.6350875  16.8667251  94.5430166
  39.1319574  16.1137213  94.2231236  37.8637856  16.9031567  93.9773375
  46.4880632  22.5707616  96.1848457  46.4770508  23.4532332  95.8142390
  45.6198012  22.2179167  95.9902994  37.9963128  31.7187685 100.5451298
  38.7091101  32.3535150 100.4727199  37.5053157  31.8151551  99.7291299
  39.7180655  25.6238938  92.1168589  38.7836934  25.7440401  91.9473294
  39.8957324  24.7211405  91.8528599  35.2185843  19.0084634  94.2701850
  34.8483631  18.4555674  94.9582756  35.7144936  18.4042767  93.7176850
  43.1053207  21.4656257  92.6518623  43.5713659  22.2984249  92.5778926
  43.5560707  21.0001239  93.3563882  33.0475042  29.4682129 101.3656868
  33.7484502  30.1018612 101.5186263  32.5770157  29.8096860 100.6052508
  41.1729438  27.8100079  89.6504775  41.4489282  27.6956673  90.5598649
  40.3033937  27.4117563  89.6116949  41.0769869  13.8336844  96.6909525
  40.1632949  14.0641071  96.8591732  41.5062971  13.9175288  97.5423557
  40.8476328  22.0226736  99.1909419  40.1947778  22.2702644  98.5361872
  41.2256708  21.2090874  98.8571896  37.8083502  32.0586429  93.2937589
  37.9905896  31.2408085  93.7565341  38.6316488  32.2754122  92.8562479
  38.1425667  30.9854615  90.5552638  38.6713434  30.4747069  89.9422800
  38.4053887  30.6697145  91.4198171  36.8963901  22.7646547 105.6775456
  36.2204538  22.6640677 106.3477831  37.7191535  22.6085761 106.1411453
  28.6442760  29.0018484  98.2987971  29.2296197  28.2562172  98.4315875
  28.4467599  29.3122441  99.1824635  31.4981415  32.0369731  93.3150413
  30.8291791  32.5215859  92.8314454  31.3594285  32.2838952  94.2293792
  23.2360415  21.5724084  97.0192414  23.2744514  21.0387675  97.8129532
  22.7300708  21.0459290  96.4003391  35.6386684  34.0713475  99.9133072
  36.1904992  34.2345096 100.6782157  35.9792877  34.6617913  99.2413097
  30.6151177  16.4188625 100.5154957  30.6792504  17.2803455 100.1032354
  30.5518297  15.8062626  99.7827315  30.0903450  18.4911757 104.1627991
  30.7175488  18.1088834 104.7765515  29.2331369  18.2725959 104.5283683
  40.4897558  28.8974732 105.7681726  41.0337462  29.5104691 105.2736681
  39.9084403  29.4554311 106.2848739  26.8668992  20.2988186  90.0946346
  27.1622433  19.3898865  90.0413399  25.9657028  20.2775926  89.7727348
  38.7755071  32.0195450  96.8996754  38.6506211  31.2185190  96.3907699
  39.4334162  32.5141644  96.4110724  30.3963239  18.3744183  96.0773894
  29.6749825  18.9880151  95.9381368  31.1856495  18.9101948  95.9990540
  40.8389980  29.8204470  98.5276304  39.8920315  29.7009822  98.4554631
  41.1872753  28.9326968  98.6102566  33.1989553  15.7098609 102.3514546
  33.7223955  15.9560906 103.1140855  32.9801886  16.5418644 101.9317683
  28.5956834  17.9802284  90.2185671  28.2669540  17.0999663  90.0360777
  28.9496205  17.9249953  91.1062060  37.8436413  29.6157187  94.7280656
  37.6961375  28.6873894  94.9088226  38.6689906  29.6377277  94.2437732
  31.7098657  18.2675254  90.5861148  32.0494730  18.7961175  89.8639757
  32.1570778  18.6055660  91.3619715  41.4470535  30.4385745  95.8145529
  42.3717082  30.2328607  95.6769980  41.2785838  30.1902147  96.7234871
  34.4042098  16.6512304 100.0364217  34.0638918  15.8520117 100.4384896
  33.6981104  16.9514015  99.4641050  35.0558570  13.7361617  98.4891540
  35.8784639  13.2622095  98.3670430  35.2996633  14.5152101  98.9890226
  33.6966804  16.7649875  88.7854441  34.4175167  17.1431128  88.2818158
  33.0732108  17.4838752  88.8889419  37.8397927  17.4695024  89.7212774
  38.0561542  18.3519662  89.4201602  37.3591994  17.0781238  88.9918416
  32.5797149  20.4280737  96.2983518  32.4341729  20.7421041  97.1907800
  32.1022352  21.0465638  95.7454417  34.4393531  17.4183285  96.3464408
  34.4255100  16.5224379  96.0096706  35.1565960  17.4253949  96.9802694
  36.2919662  17.8520626  98.3917535  36.0337440  18.7737696  98.3901866
  35.7604703  17.4551060  99.0817999  41.2365851  30.9571413  91.1707621
  41.4102728  30.3917835  90.4181473  41.7294742  31.7572308  90.9887110
  27.0542811  22.9686082  99.2371179  26.5096279  23.7445890  99.3691454
  27.9322161  23.3156886  99.0790301  33.8430427  16.2997666  91.6151978
  33.9646339  15.3714312  91.8142865  33.5532470  16.3136352  90.7030293
  36.7121618  13.9852576  94.7518698  36.7343315  14.0491909  93.7970677
  37.1289677  13.1457085  94.9459204  47.0905242  23.7207836  92.7897920
  47.5336388  22.9715161  92.3917044  46.2131752  23.7117972  92.4071652
  42.2241023  30.2738177  88.2704519  42.9191928  30.8944870  88.4891833
  42.5664174  29.4233528  88.5456897  27.8408833  22.0955978 102.1301336
  27.0990569  22.2438614 102.7165967  27.5201577  22.3564244 101.2668086
  44.1232447  27.7237883  89.7991850  44.6483771  28.0625155  89.0741170
  44.0354799  26.7884898  89.6154984  35.7852495  31.6371956 101.9281726
  36.0939622  31.3921103 102.8004426  36.5827977  31.8418595 101.4400596
  35.8073107  33.7909866  94.1587103  35.3678098  33.2986245  94.8519959
  36.5581224  33.2482834  93.9179178  28.2865446  29.9821407  94.1611731
  29.1123466  29.6825179  93.7810374  27.9359498  29.2129029  94.6101519
  33.2546979  29.3347875  96.2309404  32.6326989  28.6718580  95.9311632
  33.9251846  29.3609007  95.5483052  26.4874051  27.9007733  95.1200664
  25.6505960  27.4729908  94.9384666  26.4597697  28.0940177  96.0571456
  33.3271507  17.8129663 105.8241910  33.3759662  18.6891786 105.4419680
  33.8694021  17.2707056 105.2513554  43.8126353  28.3570786 105.1043048
  43.0221896  28.3394925 104.5647547  43.5759707  28.8959080 105.8592084
  43.9324228  25.2063253 102.4175776  43.9822233  25.0413260 103.3591299
  43.8238151  24.3390512 102.0273657  32.8160486  27.8851798  89.7067865
  32.9648607  28.5687263  89.0534538  33.6226930  27.8656888  90.2217321
  41.2227990  21.1894181 103.7335083  42.1237853  21.0500646 103.4419081
  41.2975965  21.3548636 104.6733260  35.5570795  18.5661036 102.5788269
  34.6874105  18.8594602 102.3070858  35.7930276  19.1501481 103.2995533
  45.4342424  27.6260194 102.6617798  45.1427233  27.9890175 103.4981259
  44.8214556  26.9127203 102.4831130  46.6338107  25.1913074  95.1820368
  47.4684998  25.6302878  95.3457928  46.7697236  24.7151727  94.3628614
  43.6829613  22.7492809 101.1297856  44.1583734  22.9420455 100.3216707
  42.7595178  22.8051995 100.8841239  30.5713119  23.9116976  90.7128934
  30.3259161  23.0079306  90.9109144  30.7409034  23.9134127  89.7708412
  38.2609829  14.7840652 100.0953689  38.7791773  15.5201679  99.7700178
  37.9064962  15.0904646 100.9300449  29.8408767  19.6445334  88.2115095
  29.1478012  19.7189689  87.5555131  29.5960519  18.8805677  88.7336612
  38.5122423  11.2040935  95.6154586  38.7924177  10.5364124  96.2415013
  39.2973030  11.3970031  95.1029250  36.3155892  30.3799929  87.1779612
  35.7429859  30.9990116  86.7250084  36.8888686  30.9299291  87.7119534
  42.3831282  19.6258569  99.3626161  43.3348705  19.7256667  99.3838385
  42.2134732  18.8336838  99.8724246  40.4045661  16.7114152  99.5485562
  39.8095593  16.9919165  98.8532051  40.1195358  17.2008053 100.3202303
  39.5353152  30.6637079  88.3088195  40.4683825  30.5982641  88.5121070
  39.4476364  31.4993346  87.8502727  42.1641168  29.9802949  85.2692142
  42.0854800  29.6462813  86.1627900  42.9850835  30.4724717  85.2683615
  44.8619359  22.8464689  98.4768461  44.8295680  21.9080689  98.6628145
  45.4719983  22.9248725  97.7434286  36.7002690  21.7160742  84.5195665
  37.6461795  21.5866950  84.5884083  36.3216935  20.9775404  84.9965093
  45.0113848  19.6375732  98.5226744  44.4952897  18.8534189  98.3356673
  45.8953796  19.3094449  98.6873263  42.6724575  13.3816748  94.4822557
  42.4749396  13.0731836  95.3665889  43.2824280  14.1078387  94.6120487
  50.6795909  23.9080696  97.6174498  51.4099298  23.6465984  98.1782201
  50.0702855  23.1709417  97.6576566  48.7611206  22.0488558  98.2148949
  48.0344370  21.9144523  97.6065440  48.3458493  22.3565387  99.0205667
  36.5841383  25.7678488 105.9796322  37.5044392  25.9457087 106.1736368
  36.5490966  24.8234533 105.8276021  34.8845608  19.6410718  84.4550550
  33.9777063  19.3443831  84.5313264  35.1621589  19.3440536  83.5884836
  25.8023548  20.9617081  94.9049596  25.4826332  20.1082390  94.6123970
  25.2556976  21.1765660  95.6607564  29.5803455  23.6779522  98.6219103
  29.7989465  24.6096630  98.6407137  29.9929229  23.3187497  99.4073907
  36.5007673  14.1847608  90.6094791  35.6908402  13.8394693  90.9850037
  37.1892090  13.8755151  91.1982403  38.4298222  13.2625655  92.2319088
  38.9829260  13.6821108  92.8909111  38.6668308  12.3361403  92.2742044
  34.4531321  19.2512728 108.0121852  34.3528048  20.2007085 107.9433943
  34.2352863  18.9230967 107.1397922  33.6544392  16.4997653  84.5962529
  34.5163556  16.8252552  84.8558347  33.8394736  15.7129149  84.0835595
  25.6711808  24.5819993  96.8742718  24.9775279  24.1673946  96.3612672
  26.4184799  24.6240529  96.2776137  41.8077029  15.3726180  91.7397752
  41.2275698  16.0310984  91.3575805  41.5412961  14.5503524  91.3285170
  40.2580595  14.7731237  93.9419073  40.7580373  14.8847772  93.1333391
  40.9016203  14.4692290  94.5819881  34.3162591  22.6809867 106.8286914
  33.8329673  23.4810227 107.0350803  34.4023530  22.6917812 105.8754358
  27.5848550  24.5138247  94.7508733  27.5619239  24.6125934  93.7990616
  27.8949187  25.3603398  95.0725899  30.2435928  26.5714402  98.8655347
  31.1979182  26.5398344  98.7985279  30.0448452  26.1105025  99.6805573
  30.8335310  25.1415518 101.4326145  31.6528199  25.6359596 101.4560982
  31.1072118  24.2247486 101.4043713  40.5901907  17.5326270  90.7954101
  39.7027762  17.8175921  90.5774295  41.0055896  17.3720033  89.9481377
  43.9416443  17.5572791  94.5108440  44.7176833  18.0469244  94.7833057
  43.2164577  17.9830845  94.9680309  46.3789001  18.2700410  95.5682380
  46.9733492  18.0296146  94.8575689  46.4515585  17.5507541  96.1955917
  28.5986157  32.1134021  95.8825545  28.4640625  31.3534422  95.3163543
  28.1818219  32.8374921  95.4154334  39.7345120  27.2970945  84.8902121
  40.4380970  27.5020947  85.5059776  39.0107769  27.8647707  85.1551204
  40.5642930  23.0480806  91.0104391  40.5078132  23.5049357  90.1712023
  41.1171273  22.2871491  90.8327233  44.3747736  18.8370538  91.8354510
  44.1184671  18.4367174  92.6662718  43.7500604  19.5514332  91.7104649
  48.6860074  21.5766611  94.3425802  48.1259632  21.6459800  95.1157364
  48.0803578  21.4007596  93.6225298  31.7555283  33.0103338  96.0943988
  31.6387667  33.9548771  95.9922678  30.9347729  32.7076900  96.4829787
  41.6431817  27.7353474  86.9400581  42.4777421  27.3034672  86.7578055
  41.4816160  27.5635488  87.8677475  41.2977710  24.2385587  88.3056920
  41.2426513  24.0729859  87.3645364  40.6723765  24.9461620  88.4619110
  26.0870225  19.4753652 102.1318342  26.7329088  18.9652606 102.6205567
  25.8787376  20.2122333 102.7061767  38.6123617  26.5434499 107.6310483
  39.4814776  26.7175151 107.2697118  38.1330368  27.3628916 107.5086212
  34.6073835  13.7393696  87.8842238  34.5952505  14.6835536  88.0410509
  35.4997257  13.5563842  87.5901699  32.7809797  33.6631600  99.3099916
  33.6837044  33.6955210  99.6266411  32.5547167  32.7332051  99.3246252
  34.5363399  32.4162587  95.9709995  33.5859030  32.4164448  95.8574367
  34.8395885  31.6695321  95.4546030  38.4225955  10.3336473  92.1388175
  37.6558350   9.7794960  92.2844857  38.8336660  10.4058342  93.0002327
  47.5625582  39.3585405 102.9303488  47.5514223  38.9638203 102.0583991
  47.7246221  38.6251478 103.5237259  40.4857046  41.5537221  95.7998393
  41.2778338  41.2128046  95.3844693  40.7253697  41.6632196  96.7200547
  42.4447800  40.8146134  88.6715772  43.2178676  40.2675122  88.5328648
  42.7973199  41.6790384  88.8830234  44.2832843  42.1422517 101.8782672
  43.9922709  43.0468148 101.7629338  44.9189827  42.1839044 102.5926741
  49.8257361  35.9774579  94.1108965  50.6120450  35.5594002  93.7599382
  50.0896065  36.8820671  94.2790614  55.2265788  35.9149812  95.0141944
  55.9590960  35.3449029  95.2479773  54.4705144  35.5271413  95.4548449
  52.7491209  29.6271386  99.4736552  52.4174533  30.4966797  99.2497767
  52.1536822  29.3107670 100.1530583  46.4847395  33.3666953  87.2066635
  46.6521797  34.2347190  87.5737106  46.2944564  33.5294235  86.2827924
  42.6935210  38.2797729  94.9069170  41.7685706  38.1473943  95.1146861
  42.9419623  39.0591948  95.4039112  52.6419872  34.3466472  96.5529903
  51.7336749  34.2781881  96.2588664  52.5907468  34.8238417  97.3811728
  46.4636616  35.8224611  88.1913302  46.3436241  36.2681662  89.0298782
  45.7689204  36.1709928  87.6326840  40.0544021  37.9231003  95.7412959
  40.1836402  38.1765482  96.6552370  39.3741472  38.5158711  95.4217614
  46.7160738  35.7656118 104.4964800  45.9394072  36.3250038 104.4867664
  47.3551301  36.2512901 105.0179670  54.5081518  32.5482911  98.3307776
  53.8655899  32.8415444  97.6847571  54.0036447  32.4335831  99.1360973
  44.9707110  38.5741571 104.0582767  45.7121794  39.1126615 103.7817590
  44.2644095  39.2007860 104.2154319  50.4462450  40.7170712 102.6554928
  50.8545806  40.2753122 101.9109561  49.7239711  40.1423339 102.9089121
  46.7993520  35.6543319 100.0288485  47.6454715  36.0782732 100.1723134
  46.7392157  34.9976943 100.7227048  49.9492965  33.3147687 101.6869659
  49.7053897  34.0689747 101.1503935  50.2252895  33.6933035 102.5216906
  51.9031428  39.8586299 100.3646924  52.1148323  40.5018059  99.6881306
  51.8561176  39.0248616  99.8968855  49.5057657  32.4704120  97.2683497
  48.6442136  32.7685374  97.5600234  49.5320091  32.6874519  96.3364529
  43.7068474  35.7281220 104.8598077  43.0767134  36.4097500 105.0933474
  43.6004562  35.6164301 103.9151215  39.0013446  35.3953016  95.7864001
  38.2112500  35.6510544  95.3104112  39.4924694  36.2101353  95.8916042
  40.9528192  35.7597595  92.7447478  40.1559355  35.8716289  93.2630973
  40.7253784  36.0984247  91.8788368  37.2851149  35.6483506  98.2178992
  37.5359188  36.5330516  98.4836568  37.8210698  35.4688108  97.4454084
  42.9849216  30.0301985 107.2223328  42.5916162  29.4768184 107.8970972
  43.8015357  30.3412564 107.6129845  39.9511274  41.4685844  91.1336898
  40.4635795  42.2629094  91.2842462  40.6033987  40.7712134  91.0670499
  45.9017177  31.4459864 104.8143584  46.6426891  32.0467018 104.7348047
  46.1335100  30.7037502 104.2561627  41.0458515  36.6316232 103.0921814
  40.9312031  35.7301489 103.3928913  40.1903033  36.8779928 102.7406631
  48.1250353  44.5733972 104.6909315  47.6814207  43.7870351 104.3730219
  48.7867567  44.7613123 104.0253206  42.8837474  46.1029774  99.2169993
  43.4344899  45.9746837  98.4446987  42.0448950  46.4024663  98.8664886
  46.6804645  42.3680901 103.5614224  47.2132982  41.6069190 103.3313532
  46.1518726  42.0754553 104.3038379  49.8474340  27.4740967  99.0907866
  49.5038610  28.3642609  99.0146977  50.2153303  27.2842625  98.2277451
  37.9160191  39.7974498  91.9096468  38.7535413  40.2071506  91.6930176
  38.0938459  38.8573940  91.8796662  47.3971734  32.3099279  92.6565540
  46.5413330  31.9206130  92.4771178  47.8098686  32.3891240  91.7965325
  48.9270881  29.8445623  97.0557099  48.4235676  29.8075758  96.2424905
  49.2201488  30.7538365  97.1153756  45.1713767  29.9284352  96.0623281
  46.0366763  29.7327161  95.7029171  45.2391276  29.6994704  96.9892638
  53.0250204  39.6915914  96.1900083  52.3673879  40.3815176  96.2780211
  53.8290603  40.0812346  96.5334069  42.7776086  32.1586560  93.4339648
  43.3519838  31.9361742  92.7012841  43.3647068  32.2275255  94.1868249
  43.1045673  34.1891021  87.4535533  42.2682985  34.5265708  87.7744808
  42.9650442  34.0540001  86.5162670  45.0798753  29.0327809  92.1614717
  44.4263166  28.7176826  91.5371332  45.0379228  28.4103550  92.8874540
  48.3136494  35.5209743  96.4862365  47.3959055  35.7424690  96.3284053
  48.7296637  35.5956053  95.6274072  51.5450379  33.9558275  93.5983835
  50.8073135  33.4435661  93.9294077  51.7977152  33.5158656  92.7867111
  51.6462006  26.7334527  94.1925604  51.9520883  25.8731890  93.9051519
  52.3714611  27.3252147  93.9924598  37.9386362  37.1365213  92.5807202
  37.7410762  36.5434574  91.8558268  37.3833026  36.8317423  93.2983141
  47.0674280  40.9568443  85.9380078  46.6293709  40.2404302  85.4785715
  47.8084720  41.1844558  85.3765169  43.8575446  35.6465379  92.4592174
  43.0443311  35.9459550  92.8657366  44.3534440  35.2521068  93.1766656
  49.4549657  36.1107204 101.2907068  49.8099045  36.3378677 102.1501533
  50.1021789  36.4425581 100.6684323  43.3489520  33.2183735  98.0753409
  43.9888900  33.0772494  97.3776372  42.5167051  32.9318248  97.6992011
  40.4332588  36.6629247  90.2648154  39.5030176  36.6013703  90.4818116
  40.5290060  36.1405200  89.4684795  40.3518137  33.1884060  92.8526395
  40.6124954  34.1029393  92.7435556  41.1735309  32.7208502  93.0023008
  41.8243062  34.6021817 100.0225220  42.4966116  34.3939179  99.3737869
  40.9972849  34.4043903  99.5830452  56.0732323  41.3425867  99.5400554
  56.2668214  42.2471678  99.7859828  55.9732942  40.8833286 100.3739139
  47.7268634  31.2283758 102.0390881  47.0796549  31.9273708 101.9455357
  48.4969650  31.6619902 102.4067129  51.1347432  41.4932610 105.1141434
  50.9832939  41.2643162 104.1971518  51.1252112  42.4503212 105.1272779
  42.2270559  37.8764420 100.7827657  42.0890357  37.1444659 101.3839196
  43.1375483  37.7873320 100.5011845  44.8552860  37.5884379 100.2711337
  45.5652479  36.9477572 100.2297955  44.8122168  37.8397274 101.1937518
  52.8439639  44.5251733 103.1917916  52.7852185  43.8410953 102.5248499
  53.2459157  45.2670723 102.7398542  43.5681794  34.5749597 102.0906976
  43.0319151  34.1240336 102.7428573  42.9798503  34.7095506 101.3477441
  42.9784053  34.0338249  84.6533440  42.1013519  33.9127049  84.2895687
  43.4541806  33.2424327  84.4012329  52.8457046  42.4891317 101.4231896
  51.9583825  42.1517238 101.5458295  53.4155597  41.7574348 101.6600661
  34.4986193  38.8215408  94.7474947  35.1857233  38.5077138  94.1595962
  34.3434322  39.7256773  94.4742199  39.3020915  33.7105605  99.1759971
  39.2179104  33.1031275  98.4410381  38.4803622  34.2014623  99.1769467
  49.4744629  32.1959168  94.5430166  49.9713329  31.4429131  94.2231236
  48.7031611  32.2323485  93.9773375  46.0579598  34.3376551  94.2701850
  45.6877385  33.7847592  94.9582756  46.5538690  33.7334685  93.7176850
  43.8868797  44.7974047 101.3656868  44.5878256  45.4310529 101.5186263
  43.4163912  45.1388778 100.6052508  51.9163624  29.1628762  96.6909525
  51.0026704  29.3932989  96.8591732  52.3456725  29.2467206  97.5423557
  51.6870082  37.3518654  99.1909419  51.0341533  37.5994561  98.5361872
  52.0650462  36.5382792  98.8571896  47.7357656  38.0938465 105.6775456
  47.0598293  37.9932594 106.3477831  48.5585289  37.9377679 106.1411453
  39.4836515  44.3310402  98.2987971  40.0689951  43.5854089  98.4315875
  39.2861353  44.6414358  99.1824635  34.0754169  36.9016002  97.0192414
  34.1138269  36.3679592  97.8129532  33.5694462  36.3751207  96.4003391
  41.4544932  31.7480542 100.5154957  41.5186258  32.6095373 100.1032354
  41.3912052  31.1354544  99.7827315  40.9297204  33.8203675 104.1627991
  41.5569243  33.4380752 104.7765515  40.0725123  33.6017877 104.5283683
  51.3291313  44.2266650 105.7681726  51.8731217  44.8396608 105.2736681
  50.7478158  44.7846228 106.2848739  37.7062747  35.6280104  90.0946346
  38.0016188  34.7190782  90.0413399  36.8050783  35.6067843  89.7727348
  41.2356994  33.7036100  96.0773894  40.5143580  34.3172068  95.9381368
  42.0250250  34.2393865  95.9990540  44.0383307  31.0390527 102.3514546
  44.5617709  31.2852824 103.1140855  43.8195641  31.8710562 101.9317683
  39.4350588  33.3094202  90.2185671  39.1063295  32.4291580  90.0360777
  39.7889959  33.2541870  91.1062060  42.5492412  33.5967171  90.5861148
  42.8888484  34.1253093  89.8639757  42.9964532  33.9347577  91.3619715
  45.2435852  31.9804222 100.0364217  44.9032673  31.1812035 100.4384896
  44.5374859  32.2805933  99.4641050  45.8952324  29.0653535  98.4891540
  46.7178394  28.5914013  98.3670430  46.1390388  29.8444018  98.9890226
  44.5360559  32.0941793  88.7854441  45.2568921  32.4723046  88.2818158
  43.9125863  32.8130670  88.8889419  48.6791682  32.7986942  89.7212774
  48.8955296  33.6811580  89.4201602  48.1985749  32.4073155  88.9918416
  43.4190903  35.7572655  96.2983518  43.2735484  36.0712958  97.1907800
  42.9416107  36.3757555  95.7454417  45.2787286  32.7475203  96.3464408
  45.2648855  31.8516296  96.0096706  45.9959714  32.7545867  96.9802694
  47.1313417  33.1812543  98.3917535  46.8731194  34.1029614  98.3901866
  46.5998457  32.7842978  99.0817999  37.8936565  38.2978000  99.2371179
  37.3490033  39.0737808  99.3691454  38.7715915  38.6448804  99.0790301
  44.6824182  31.6289583  91.6151978  44.8040093  30.7006230  91.8142865
  44.3926224  31.6428269  90.7030293  47.5515372  29.3144494  94.7518698
  47.5737069  29.3783827  93.7970677  47.9683431  28.4749003  94.9459204
  38.6802587  37.4247896 102.1301336  37.9384323  37.5730531 102.7165967
  38.3595331  37.6856161 101.2668086  37.3267806  43.2299651  95.1200664
  36.4899714  42.8021825  94.9384666  37.2991451  43.4232094  96.0571456
  44.1665261  33.1421581 105.8241910  44.2153417  34.0183704 105.4419680
  44.7087776  32.5998974 105.2513554  54.6520107  43.6862704 105.1043048
  53.8615651  43.6686843 104.5647547  54.4153462  44.2250998 105.8592084
  54.7717982  40.5355170 102.4175776  54.8215987  40.3705178 103.3591299
  54.6631905  39.6682429 102.0273657  52.0621745  36.5186098 103.7335083
  52.9631607  36.3792563 103.4419081  52.1369719  36.6840553 104.6733260
  46.3964550  33.8952953 102.5788269  45.5267859  34.1886519 102.3070858
  46.6324030  34.4793398 103.2995533  56.2736179  42.9552112 102.6617798
  55.9820987  43.3182092 103.4981259  55.6608310  42.2419120 102.4831130
  54.5223367  38.0784727 101.1297856  54.9977489  38.2712373 100.3216707
  53.5988933  38.1343912 100.8841239  41.4106874  39.2408894  90.7128934
  41.1652916  38.3371224  90.9109144  41.5802788  39.2426044  89.7708412
  49.1003584  30.1132570 100.0953689  49.6185528  30.8493597  99.7700178
  48.7458716  30.4196563 100.9300449  40.6802521  34.9737251  88.2115095
  39.9871766  35.0481606  87.5555131  40.4354273  34.2097595  88.7336612
  49.3516178  26.5332853  95.6154586  49.6317932  25.8656042  96.2415013
  50.1366785  26.7261948  95.1029250  53.2225036  34.9550487  99.3626161
  54.1742459  35.0548584  99.3838385  53.0528487  34.1628755  99.8724246
  51.2439416  32.0406070  99.5485562  50.6489348  32.3211083  98.8532051
  50.9589112  32.5299971 100.3202303  55.7013114  38.1756606  98.4768461
  55.6689434  37.2372607  98.6628145  56.3113738  38.2540643  97.7434286
  55.8507602  34.9667650  98.5226744  55.3346651  34.1826106  98.3356673
  56.7347551  34.6386366  98.6873263  53.5118329  28.7108665  94.4822557
  53.3143151  28.4023754  95.3665889  54.1218035  29.4370304  94.6120487
  61.5189664  39.2372613  97.6174498  62.2493052  38.9757901  98.1782201
  60.9096609  38.5001335  97.6576566  59.6004961  37.3780476  98.2148949
  58.8738125  37.2436441  97.6065440  59.1852248  37.6857304  99.0205667
  47.4235137  41.0970405 105.9796322  48.3438147  41.2749004 106.1736368
  47.3884720  40.1526451 105.8276021  36.6417302  36.2908999  94.9049596
  36.3220087  35.4374307  94.6123970  36.0950731  36.5057577  95.6607564
  40.4197210  39.0071440  98.6219103  40.6383220  39.9388548  98.6407137
  40.8322984  38.6479415  99.4073907  47.3401428  29.5139525  90.6094791
  46.5302156  29.1686610  90.9850037  48.0285845  29.2047069  91.1982403
  49.2691976  28.5917572  92.2319088  49.8223015  29.0113026  92.8909111
  49.5062062  27.6653320  92.2742044  45.2925075  34.5804646 108.0121852
  45.1921802  35.5299003 107.9433943  45.0746617  34.2522885 107.1397922
  36.5105562  39.9111911  96.8742718  35.8169034  39.4965863  96.3612672
  37.2578553  39.9532447  96.2776137  52.6470783  30.7018097  91.7397752
  52.0669452  31.3602901  91.3575805  52.3806716  29.8795442  91.3285170
  51.0974349  30.1023155  93.9419073  51.5974128  30.2139690  93.1333391
  51.7409957  29.7984208  94.5819881  45.1556345  38.0101785 106.8286914
  44.6723427  38.8102145 107.0350803  45.2417284  38.0209730 105.8754358
  38.4242305  39.8430164  94.7508733  38.4012993  39.9417852  93.7990616
  38.7342941  40.6895315  95.0725899  41.0829683  41.9006319  98.8655347
  42.0372936  41.8690262  98.7985279  40.8842206  41.4396943  99.6805573
  41.6729065  40.4707435 101.4326145  42.4921954  40.9651514 101.4560982
  41.9465873  39.5539404 101.4043713  51.4295661  32.8618188  90.7954101
  50.5421516  33.1467838  90.5774295  51.8449650  32.7011951  89.9481377
  54.7810197  32.8864709  94.5108440  55.5570587  33.3761161  94.7833057
  54.0558331  33.3122763  94.9680309  57.2182756  33.5992328  95.5682380
  57.8127247  33.3588064  94.8575689  57.2909340  32.8799459  96.1955917
  55.2141491  34.1662456  91.8354510  54.9578425  33.7659091  92.6662718
  54.5894359  34.8806249  91.7104649  36.9263979  34.8045569 102.1318342
  37.5722843  34.2944523 102.6205567  36.7181130  35.5414251 102.7061767
  49.4517371  41.8726417 107.6310483  50.3208531  42.0467069 107.2697118
  48.9724123  42.6920834 107.5086212  45.4467590  29.0685614  87.8842238
  45.4346259  30.0127454  88.0410509  46.3391011  28.8855759  87.5901699
  49.2619709  25.6628391  92.1388175  48.4952105  25.1086877  92.2844857
  49.6730414  25.7350259  93.0002327  41.2661470  31.9513186 106.2293356
  42.1292932  31.5949991 106.4396681  40.6926881  31.6127081 106.9168761
  61.1109847  53.5815043  97.0355757  61.7488257  53.4621790  96.3319097
  60.9930690  54.5295887  97.0943709  57.9199553  53.5342471  96.9717282
  57.5818065  53.4183536  96.0837817  58.7889322  53.1333636  96.9518288
  58.4019336  54.6877323 102.9303488  58.3907977  54.2930121 102.0583991
  58.5639976  53.9543395 103.5237259  55.1226597  57.4714434 101.8782672
  54.8316463  58.3760065 101.7629338  55.7583582  57.5130962 102.5926741
  56.0482804  54.8491283  98.4684031  56.6446377  54.6247305  97.7540994
  56.1057776  54.1076028  99.0709479  55.6207833  52.3030718  86.3034222
  55.8733353  51.7812240  85.5417685  54.6832392  52.1396864  86.4060906
  60.6651116  51.3066497  94.1108965  61.4514205  50.8885920  93.7599382
  60.9289820  52.2112589  94.2790614  57.6835662  53.6668971  92.2105286
  57.3193870  53.1399592  92.9218208  58.5402778  53.2767440  92.0371772
  63.5884963  44.9563304  99.4736552  63.2568288  45.8258715  99.2497767
  62.9930576  44.6399588 100.1530583  57.3241149  48.6958871  87.2066635
  57.4915552  49.5639107  87.5737106  57.1338318  48.8586153  86.2827924
  57.3030370  51.1516528  88.1913302  57.1829995  51.5973579  89.0298782
  56.6082959  51.5001846  87.6326840  57.5554492  51.0948036 104.4964800
  56.7787826  51.6541956 104.4867664  58.1945055  51.5804819 105.0179670
  65.3475273  47.8774828  98.3307776  64.7049653  48.1707362  97.6847571
  64.8430201  47.7627749  99.1360973  63.0015436  51.6238002  89.0193636
  63.9133293  51.8565388  88.8441333  62.4925083  52.2075046  88.4568714
  55.8100864  53.9033489 104.0582767  56.5515549  54.4418533 103.7817590
  55.1037850  54.5299778 104.2154319  61.2856204  56.0462629 102.6554928
  61.6939560  55.6045040 101.9109561  60.5633466  55.4715257 102.9089121
  57.6387274  50.9835236 100.0288485  58.4848469  51.4074650 100.1723134
  57.5785912  50.3268861 100.7227048  60.7886719  48.6439605 101.6869659
  60.5447651  49.3981665 101.1503935  61.0646650  49.0224952 102.5216906
  62.7425182  55.1878217 100.3646924  62.9542077  55.8309977  99.6881306
  62.6954930  54.3540534  99.8968855  60.3451411  47.7996038  97.2683497
  59.4835890  48.0977291  97.5600234  60.3713846  48.0166437  96.3364529
  54.0537062  55.8909710  96.6137066  54.6238419  56.3196978  95.9754550
  54.6445174  55.6092294  97.3121251  56.0981867  52.4661381  90.4846867
  56.8005910  52.9182424  90.9520794  55.7662495  51.8245199  91.1126761
  54.5462228  51.0573137 104.8598077  53.9160889  51.7389418 105.0933474
  54.4398316  50.9456219 103.9151215  57.6227614  57.6134216 100.6929992
  57.6872046  58.0754623 101.5288164  56.9138538  56.9831581 100.8212302
  71.9477003  54.4088921  94.8854253  71.1940712  53.8396319  94.7298258
  72.0824544  54.3751585  95.8324888  53.8242971  45.3593903 107.2223328
  53.4309916  44.8060102 107.8970972  54.6409111  45.6704482 107.6129845
  52.5999913  59.9143518  93.2159651  52.7766542  60.8361482  93.0280635
  53.3956747  59.6001937  93.6454031  56.7410932  46.7751782 104.8143584
  57.4820645  47.3758935 104.7348047  56.9728855  46.0329420 104.2561627
  51.8852270  51.9608149 103.0921814  51.7705785  51.0593407 103.3928913
  51.0296788  52.2071846 102.7406631  58.9644108  59.9025890 104.6909315
  58.5207962  59.1162268 104.3730219  59.6261321  60.0905040 104.0253206
  53.7231229  61.4321691  99.2169993  54.2738654  61.3038755  98.4446987
  52.8842705  61.7316580  98.8664886  61.0625346  60.1828690 102.7190716
  61.0443821  61.0037571 102.2270985  61.9845266  60.0582765 102.9440857
  57.5198400  57.6972819 103.5614224  58.0526737  56.9361107 103.3313532
  56.9912481  57.4046471 104.3038379  60.6868095  42.8032885  99.0907866
  60.3432364  43.6934527  99.0146977  61.0547057  42.6134543  98.2277451
  59.7664635  45.1737540  97.0557099  59.2629431  45.1367675  96.2424905
  60.0595242  46.0830283  97.1153756  60.4404681  50.6668588  89.4240082
  60.1354816  50.9814737  90.2750226  61.3935123  50.7450008  89.4667415
  59.1530248  50.8501660  96.4862365  58.2352810  51.0716607  96.3284053
  59.5690392  50.9247971  95.6274072  59.9365296  52.2493076  91.6165045
  60.6837115  52.7614473  91.3072167  60.2056886  51.9277129  92.4769439
  56.7576840  52.3580237  94.7001795  56.8125450  51.4054074  94.6244271
  55.9468042  52.5139676  95.1843093  60.2943412  51.4399122 101.2907068
  60.6492800  51.6670595 102.1501533  60.9415543  51.7717498 100.6684323
  58.5662389  46.5575676 102.0390881  57.9190304  47.2565625 101.9455357
  59.3363404  46.9911820 102.4067129  61.9741187  56.8224528 105.1141434
  61.8226693  56.5935080 104.1971518  61.9645866  57.7795129 105.1272779
  58.7426523  54.3956441 100.0987701  59.6718583  54.5467600  99.9256668
  58.3217553  54.4840461  99.2436347  55.6946615  52.9176297 100.2711337
  56.4046233  52.2769489 100.2297955  55.6515923  53.1689192 101.1937518
  63.6833393  59.8543650 103.1917916  63.6245939  59.1702871 102.5248499
  64.0852912  60.5962640 102.7398542  54.4075549  49.9041515 102.0906976
  53.8712906  49.4532253 102.7428573  53.8192257  50.0387424 101.3477441
  52.7024092  66.6705564  95.9851635  52.9420690  67.3024088  96.6630653
  51.8593289  66.3193604  96.2716994  63.6850801  57.8183234 101.4231896
  62.7977579  57.4809156 101.5458295  64.2549352  57.0866266 101.6600661
  57.2151954  62.4784687  98.3893139  57.1422125  63.2839658  98.9012443
  56.7729347  62.6776653  97.5641160  59.6750637  62.3771521 100.5451298
  60.3878610  63.0118986 100.4727199  59.1840666  62.4735387  99.7291299
  56.8973352  49.6668469  94.2701850  56.5271140  49.1139510  94.9582756
  57.3932445  49.0626603  93.7176850  54.7262551  60.1265964 101.3656868
  55.4272010  60.7602447 101.5186263  54.2557666  60.4680696 100.6052508
  62.5263837  52.6810572  99.1909419  61.8735287  52.9286479  98.5361872
  62.9044217  51.8674710  98.8571896  58.5751410  53.4230383 105.6775456
  57.8992047  53.3224512 106.3477831  59.3979044  53.2669596 106.1411453
  50.3230269  59.6602319  98.2987971  50.9083706  58.9146007  98.4315875
  50.1255108  59.9706276  99.1824635  53.1768924  62.6953567  93.3150413
  52.5079300  63.1799694  92.8314454  53.0381794  62.9422787  94.2293792
  57.3174193  64.7297310  99.9133072  57.8692501  64.8928932 100.6782157
  57.6580386  65.3201748  99.2413097  51.7690959  49.1495592 104.1627991
  52.3962997  48.7672670 104.7765515  50.9118877  48.9309794 104.5283683
  62.1685067  59.5558568 105.7681726  62.7124971  60.1688526 105.2736681
  61.5871912  60.1138146 106.2848739  54.8777062  46.3682445 102.3514546
  55.4011464  46.6144741 103.1140855  54.6589395  47.2002479 101.9317683
  56.0829607  47.3096140 100.0364217  55.7426427  46.5103953 100.4384896
  55.3768613  47.6097851  99.4641050  54.2584658  51.0864573  96.2983518
  54.1129238  51.4004876  97.1907800  53.7809861  51.7049473  95.7454417
  56.1181040  48.0767121  96.3464408  56.1042609  47.1808214  96.0096706
  56.8353469  48.0837785  96.9802694  57.9707171  48.5104461  98.3917535
  57.7124949  49.4321532  98.3901866  57.4392212  48.1134896  99.0817999
  57.4640004  62.2955792 101.9281726  57.7727131  62.0504938 102.8004426
  58.2615486  62.5002430 101.4400596  57.4860616  64.4493701  94.1587103
  57.0465607  63.9570080  94.8519959  58.2368733  63.9066669  93.9179178
  54.9334488  59.9931710  96.2309404  54.3114498  59.3302415  95.9311632
  55.6039355  60.0192842  95.5483052  55.0059016  48.4713498 105.8241910
  55.0547171  49.3475621 105.4419680  55.5481530  47.9290892 105.2513554
  65.4913862  59.0154622 105.1043048  64.7009405  58.9978761 104.5647547
  65.2547216  59.5542915 105.8592084  65.6111737  55.8647088 102.4175776
  65.6609742  55.6997096 103.3591299  65.5025660  54.9974347 102.0273657
  62.9015499  51.8478016 103.7335083  63.8025362  51.7084481 103.4419081
  62.9763474  52.0132471 104.6733260  57.2358304  49.2244871 102.5788269
  56.3661614  49.5178437 102.3070858  57.4717785  49.8085316 103.2995533
  67.1129933  58.2844030 102.6617798  66.8214742  58.6474010 103.4981259
  66.5002065  57.5711038 102.4831130  65.3617122  53.4076644 101.1297856
  65.8371243  53.6004291 100.3216707  64.4382687  53.4635830 100.8841239
  59.9397338  45.4424488 100.0953689  60.4579282  46.1785515  99.7700178
  59.5852471  45.7488481 100.9300449  64.0618791  50.2842404  99.3626161
  65.0136214  50.3840502  99.3838385  63.8922241  49.4920673  99.8724246
  62.0833170  47.3697988  99.5485562  61.4883102  47.6503000  98.8532051
  61.7982867  47.8591888 100.3202303  66.6901357  50.2959567  98.5226744
  66.1740406  49.5118024  98.3356673  67.5741305  49.9678284  98.6873263
  72.3583418  54.5664531  97.6174498  73.0886807  54.3049819  98.1782201
  71.7490364  53.8293253  97.6576566  70.4398715  52.7072393  98.2148949
  69.7131879  52.5728358  97.6065440  70.0246002  53.0149222  99.0205667
  58.2628892  56.4262323 105.9796322  59.1831901  56.6040922 106.1736368
  58.2278475  55.4818368 105.8276021  56.1318830  49.9096564 108.0121852
  56.0315557  50.8590920 107.9433943  55.9140372  49.5814802 107.1397922
  55.9950100  53.3393702 106.8286914  55.5117181  54.1394062 107.0350803
  56.0811039  53.3501647 105.8754358  51.9223437  57.2298237  98.8655347
  52.8766691  57.1982179  98.7985279  51.7235961  56.7688861  99.6805573
  52.5122819  55.7999353 101.4326145  53.3315708  56.2943432 101.4560982
  52.7859627  54.8831321 101.4043713  50.2773666  62.7717857  95.8825545
  50.1428134  62.0118257  95.3163543  49.8605728  63.4958756  95.4154334
  61.4132629  57.9554780  84.8902121  62.1168479  58.1604783  85.5059776
  60.6895278  58.5231542  85.1551204  53.4342792  63.6687174  96.0943988
  53.3175176  64.6132606  95.9922678  52.6135238  63.3660735  96.4829787
  62.9765219  54.8969423  88.3056920  62.9214022  54.7313694  87.3645364
  62.3511274  55.6045456  88.4619110  60.2911126  57.2018334 107.6310483
  61.1602285  57.3758987 107.2697118  59.8117877  58.0212751 107.5086212
  54.4597306  64.3215435  99.3099916  55.3624553  64.3539046  99.6266411
  54.2334676  63.3915886  99.3246252  56.2150908  63.0746422  95.9709995
  55.2646539  63.0748284  95.8574367  56.5183394  62.3279157  95.4546030
  52.1055225  47.2805104 106.2293356  52.9686686  46.9241909 106.4396681
  51.5320635  46.9418999 106.9168761  71.9503602  68.9106960  97.0355757
  72.5882012  68.7913708  96.3319097  71.8324444  69.8587804  97.0943709
  68.7593308  68.8634389  96.9717282  68.4211819  68.7475453  96.0837817
  69.6283076  68.4625554  96.9518288  64.6180124  70.7169865  92.9614173
  64.0544989  70.6259802  92.1930461  64.5032519  69.8969769  93.4416666
  69.2413091  70.0169240 102.9303488  69.2301732  69.6222039 102.0583991
  69.4033730  69.2835313 103.5237259  62.1644555  72.2121057  95.7998393
  62.9565847  71.8711881  95.3844693  62.4041206  72.3216032  96.7200547
  65.9620352  72.8006352 101.8782672  65.6710218  73.7051983 101.7629338
  66.5977336  72.8422880 102.5926741  66.8876559  70.1783201  98.4684031
  67.4840131  69.9539223  97.7540994  66.9451530  69.4367946  99.0709479
  71.5044870  66.6358414  94.1108965  72.2907959  66.2177837  93.7599382
  71.7683574  67.5404506  94.2790614  71.6754947  72.0731265  88.8097622
  71.0400780  72.1465891  89.5218527  71.3452354  72.6624863  88.1316701
  76.9053297  66.5733647  95.0141944  77.6378469  66.0032864  95.2479773
  76.1492653  66.1855248  95.4548449  68.5229417  68.9960889  92.2105286
  68.1587624  68.4691510  92.9218208  69.3796533  68.6059358  92.0371772
  74.4278718  60.2855222  99.4736552  74.0962042  61.1550633  99.2497767
  73.8324331  59.9691506 100.1530583  70.9210237  72.4867768  98.8732465
  70.6210960  73.3892806  98.7648272  70.5761297  72.2199951  99.7253618
  64.3722719  68.9381564  94.9069170  63.4473215  68.8057779  95.1146861
  64.6207132  69.7175784  95.4039112  74.3207381  65.0050308  96.5529903
  73.4124258  64.9365716  96.2588664  74.2694977  65.4822253  97.3811728
  61.7331530  68.5814838  95.7412959  61.8623911  68.8349317  96.6552370
  61.0528981  69.1742546  95.4217614  68.3948247  66.4239953 104.4964800
  67.6181581  66.9833873 104.4867664  69.0338810  66.9096736 105.0179670
  76.1869027  63.2066746  98.3307776  75.5443407  63.4999279  97.6847571
  75.6823956  63.0919666  99.1360973  73.8409191  66.9529919  89.0193636
  74.7527047  67.1857306  88.8441333  73.3318838  67.5366964  88.4568714
  66.6494619  69.2325407 104.0582767  67.3909303  69.7710451 103.7817590
  65.9431604  69.8591695 104.2154319  72.1249959  71.3754547 102.6554928
  72.5333315  70.9336958 101.9109561  71.4027220  70.8007175 102.9089121
  68.4781029  66.3127154 100.0288485  69.3242224  66.7366567 100.1723134
  68.4179666  65.6560778 100.7227048  72.4478773  71.9355738  96.4107217
  71.8187636  72.1001452  95.7083285  72.0604435  72.3497347  97.1818181
  76.3268005  72.8710176  93.7651581  75.6419043  73.2509077  93.2148614
  76.4111854  73.4805502  94.4983529  71.6280474  63.9731522 101.6869659
  71.3841406  64.7273583 101.1503935  71.9040404  64.3516870 102.5216906
  73.5818937  70.5170135 100.3646924  73.7935832  71.1601895  99.6881306
  73.5348685  69.6832451  99.8968855  71.1845166  63.1287955  97.2683497
  70.3229645  63.4269209  97.5600234  71.2107600  63.3458354  96.3364529
  68.0006735  71.6730146  93.6757302  68.4645081  71.9517849  92.8861925
  67.7363533  70.7713590  93.4930393  64.8930816  71.2201627  96.6137066
  65.4632173  71.6488896  95.9754550  65.4838928  70.9384212  97.3121251
  65.3855983  66.3865055 104.8598077  64.7554643  67.0681336 105.0933474
  65.2792071  66.2748136 103.9151215  60.6800955  66.0536851  95.7864001
  59.8900009  66.3094379  95.3104112  61.1712202  66.8685189  95.8916042
  74.6964765  73.3942090  98.5369282  75.5182208  72.9922277  98.2551963
  74.6927168  73.2910324  99.4885398  68.4621368  72.9426133 100.6929992
  68.5265801  73.4046541 101.5288164  67.7532292  72.3123498 100.8212302
  58.9638658  66.3067341  98.2178992  59.2146697  67.1914351  98.4836568
  59.4998206  66.1271943  97.4454084  82.7870758  69.7380839  94.8854253
  82.0334466  69.1688237  94.7298258  82.9218299  69.7043503  95.8324888
  64.6636725  60.6885821 107.2223328  64.2703671  60.1352019 107.8970972
  65.4802866  60.9996399 107.6129845  63.4393668  75.2435435  93.2159651
  63.6160296  76.1653400  93.0280635  64.2350501  74.9293854  93.6454031
  67.5804686  62.1043700 104.8143584  68.3214400  62.7050853 104.7348047
  67.8122609  61.3621338 104.2561627  62.7246024  67.2900067 103.0921814
  62.6099540  66.3885324 103.3928913  61.8690542  67.5363764 102.7406631
  69.8037862  75.2317807 104.6909315  69.3601716  74.4454186 104.3730219
  70.4655076  75.4196958 104.0253206  64.5624983  76.7613609  99.2169993
  65.1132408  76.6330672  98.4446987  63.7236459  77.0608498  98.8664886
  71.9019100  75.5120607 102.7190716  71.8837576  76.3329488 102.2270985
  72.8239020  75.3874683 102.9440857  68.3592154  73.0264737 103.5614224
  68.8920491  72.2653025 103.3313532  67.8306235  72.7338389 104.3038379
  71.5261849  58.1324803  99.0907866  71.1826119  59.0226444  99.0146977
  71.8940812  57.9426460  98.2277451  70.6058390  60.5029458  97.0557099
  70.1023185  60.4659593  96.2424905  70.8988997  61.4122201  97.1153756
  76.4646406  70.8765769  89.5333475  75.6875849  70.5376928  89.0888637
  77.1437887  70.8818392  88.8588440  69.7244867  72.1550729  91.0733036
  69.1966229  71.4203489  90.7606274  69.2232370  72.9325406  90.8273005
  74.7037713  70.3499750  96.1900083  74.0461388  71.0399011  96.2780211
  75.5078112  70.7396182  96.5334069  73.5143172  68.7044122  94.2404024
  74.0275054  69.3374114  94.7425734  74.1644396  68.1045318  93.8747384
  69.9924003  66.1793578  96.4862365  69.0746564  66.4008525  96.3284053
  70.4084146  66.2539888  95.6274072  70.7759051  67.5784994  91.6165045
  71.5230869  68.0906391  91.3072167  71.0450640  67.2569046  92.4769439
  74.2804968  73.6850124  92.3683167  73.8267295  72.8441034  92.4248358
  73.6498935  74.3211522  92.7057947  73.2237888  64.6142110  93.5983835
  72.4860644  64.1019496  93.9294077  73.4764661  64.1742492  92.7867111
  72.7237907  75.5226621  93.3032985  73.0160882  76.0831678  92.5845351
  73.2336528  75.8155182  94.0586144  73.3249515  57.3918362  94.1925604
  73.6308392  56.5315725  93.9051519  74.0502120  57.9835982  93.9924598
  67.6871533  76.3006972  94.3926438  67.6447711  76.5267818  93.4634970
  68.6034231  76.0670346  94.5412240  71.1337166  66.7691039 101.2907068
  71.4886554  66.9962512 102.1501533  71.7809298  67.1009416 100.6684323
  76.8634903  69.8909475  91.9956397  76.7252802  70.0811071  91.0677586
  76.5071122  70.6528858  92.4524448  65.0277029  63.8767570  98.0753409
  65.6676409  63.7356329  97.3776372  64.1954560  63.5902084  97.6992011
  76.8904283  71.9586002  97.0067668  77.3240790  71.8661291  97.8550722
  77.6035864  71.9343503  96.3687684  65.8037333  73.1770001  94.1888401
  66.5977932  72.6820321  93.9870976  65.0929026  72.6487864  93.8256107
  70.6232178  75.5588096  98.5400769  70.6769200  76.1279033  99.3078485
  69.7546959  75.7289981  98.1754806  63.5030571  65.2605652 100.0225220
  64.1753625  65.0523015  99.3737869  62.6760358  65.0627738  99.5830452
  77.7519832  72.0009703  99.5400554  77.9455723  72.9055513  99.7859828
  77.6520451  71.5417122 100.3739139  69.4056143  61.8867593 102.0390881
  68.7584058  62.5857543 101.9455357  70.1757159  62.3203737 102.4067129
  72.8134941  72.1516446 105.1141434  72.6620448  71.9226997 104.1971518
  72.8039621  73.1087047 105.1272779  69.5820278  69.7248358 100.0987701
  70.5112338  69.8759518  99.9256668  69.1611308  69.8132379  99.2436347
  68.3808609  73.7499023  97.8686238  68.2419695  73.3817807  98.7412176
  67.5923206  74.2646662  97.6970196  69.9313824  73.1280625  95.2575076
  69.5963657  73.0881395  96.1532726  69.4317770  72.4625341  94.7845486
  63.9058068  68.5348255 100.7827657  63.7677866  67.8028494 101.3839196
  64.8162992  68.4457156 100.5011845  66.5340369  68.2468215 100.2711337
  67.2439988  67.6061407 100.2297955  66.4909677  68.4981110 101.1937518
  74.5227148  75.1835568 103.1917916  74.4639694  74.4994788 102.5248499
  74.9246666  75.9254558 102.7398542  65.2469303  65.2333433 102.0906976
  64.7106660  64.7824171 102.7428573  64.6586012  65.3679341 101.3477441
  63.5417847  81.9997482  95.9851635  63.7814445  82.6316006  96.6630653
  62.6987043  81.6485522  96.2716994  74.5244555  73.1475152 101.4231896
  73.6371334  72.8101074 101.5458295  75.0943106  72.4158183 101.6600661
  56.1773702  69.4799244  94.7474947  56.8644742  69.1660974  94.1595962
  56.0221831  70.3840608  94.4742199  60.9808424  64.3689440  99.1759971
  60.8966613  63.7615110  98.4410381  60.1591131  64.8598459  99.1769467
  68.0545708  77.8076604  98.3893139  67.9815880  78.6131576  98.9012443
  67.6123102  78.0068570  97.5641160  67.8435488  77.0448374  91.8995960
  67.0603010  77.5870055  91.9934185  68.5428233  77.5622354  92.2990202
  71.1532138  62.8543004  94.5430166  71.6500838  62.1012966  94.2231236
  70.3819120  62.8907321  93.9773375  79.0061896  68.5583369  96.1848457
  78.9951772  69.4408085  95.8142390  78.1379275  68.2054920  95.9902994
  70.5144392  77.7063438 100.5451298  71.2272364  78.3410903 100.4727199
  70.0234421  77.8027304  99.7291299  72.2361919  71.6114691  92.1168589
  71.3018198  71.7316154  91.9473294  72.4138587  70.7087158  91.8528599
  75.6234470  67.4532010  92.6518623  76.0894922  68.2860002  92.5778926
  76.0741971  66.9876992  93.3563882  65.5656305  75.4557882 101.3656868
  66.2665765  76.0894365 101.5186263  65.0951420  75.7972613 100.6052508
  73.6910701  73.7975832  89.6504775  73.9670545  73.6832426  90.5598649
  72.8215200  73.3993316  89.6116949  73.5951133  59.8212597  96.6909525
  72.6814213  60.0516824  96.8591732  74.0244234  59.9051041  97.5423557
  73.3657591  68.0102489  99.1909419  72.7129042  68.2578397  98.5361872
  73.7437971  67.1966627  98.8571896  70.3264765  78.0462182  93.2937589
  70.5087160  77.2283838  93.7565341  71.1497751  78.2629875  92.8562479
  69.4145164  68.7522300 105.6775456  68.7385802  68.6516430 106.3477831
  70.2372798  68.5961514 106.1411453  61.1624024  74.9894237  98.2987971
  61.7477460  74.2437925  98.4315875  60.9648862  75.2998194  99.1824635
  64.0162679  78.0245484  93.3150413  63.3473054  78.5091612  92.8314454
  63.8775548  78.2714705  94.2293792  55.7541678  67.5599837  97.0192414
  55.7925778  67.0263428  97.8129532  55.2481971  67.0335043  96.4003391
  68.1567947  80.0589228  99.9133072  68.7086255  80.2220849 100.6782157
  68.4974141  80.6493666  99.2413097  62.6084713  64.4787510 104.1627991
  63.2356752  64.0964587 104.7765515  61.7512632  64.2601712 104.5283683
  73.0078822  74.8850485 105.7681726  73.5518726  75.4980444 105.2736681
  72.4265667  75.4430064 106.2848739  71.2936335  78.0071203  96.8996754
  71.1687474  77.2060943  96.3907699  71.9515426  78.5017397  96.4110724
  73.3571243  75.8080223  98.5276304  72.4101579  75.6885575  98.4554631
  73.7054016  74.9202721  98.6102566  65.7170816  61.6974362 102.3514546
  66.2405218  61.9436659 103.1140855  65.4983150  62.5294397 101.9317683
  70.3617676  75.6032940  94.7280656  70.2142639  74.6749647  94.9088226
  71.1871170  75.6253030  94.2437732  73.9651798  76.4261498  95.8145529
  74.8898346  76.2204360  95.6769980  73.7967102  76.1777900  96.7234871
  66.9223361  62.6388057 100.0364217  66.5820182  61.8395871 100.4384896
  66.2162368  62.9389768  99.4641050  65.0978412  66.4156491  96.2983518
  64.9522993  66.7296794  97.1907800  64.6203616  67.0341391  95.7454417
  66.9574795  63.4059039  96.3464408  66.9436364  62.5100132  96.0096706
  67.6747223  63.4129702  96.9802694  68.8100926  63.8396379  98.3917535
  68.5518703  64.7613449  98.3901866  68.2785966  63.4426813  99.0817999
  73.7547114  76.9447166  91.1707621  73.9283992  76.3793588  90.4181473
  74.2476006  77.7448061  90.9887110  59.5724074  68.9561835  99.2371179
  59.0277542  69.7321643  99.3691454  60.4503424  69.3032639  99.0790301
  79.6086506  69.7083589  92.7897920  80.0517652  68.9590914  92.3917044
  78.7313016  69.6993725  92.4071652  60.3590096  68.0831731 102.1301336
  59.6171832  68.2314367 102.7165967  60.0382840  68.3439997 101.2668086
  76.6413710  73.7113636  89.7991850  77.1665034  74.0500909  89.0741170
  76.5536063  72.7760651  89.6154984  68.3033759  77.6247709 101.9281726
  68.6120885  77.3796856 102.8004426  69.1009241  77.8294348 101.4400596
  60.8046710  75.9697160  94.1611731  61.6304730  75.6700932  93.7810374
  60.4540762  75.2004782  94.6101519  65.7728243  75.3223628  96.2309404
  65.1508252  74.6594333  95.9311632  66.4433110  75.3484760  95.5483052
  59.0055315  73.8883486  95.1200664  58.1687223  73.4605661  94.9384666
  58.9778960  74.0815930  96.0571456  65.8452770  63.8005416 105.8241910
  65.8940926  64.6767539 105.4419680  66.3875285  63.2582809 105.2513554
  76.3307616  74.3446539 105.1043048  75.5403160  74.3270678 104.5647547
  76.0940971  74.8834833 105.8592084  76.4505491  71.1939006 102.4175776
  76.5003496  71.0289013 103.3591299  76.3419414  70.3266265 102.0273657
  73.7409253  67.1769934 103.7335083  74.6419116  67.0376399 103.4419081
  73.8157228  67.3424389 104.6733260  68.0752059  64.5536789 102.5788269
  67.2055368  64.8470355 102.3070858  68.3111539  65.1377234 103.2995533
  77.9523688  73.6135947 102.6617798  77.6608496  73.9765928 103.4981259
  77.3395819  72.9002956 102.4831130  79.1519370  71.1788827  95.1820368
  79.9866262  71.6178631  95.3457928  79.2878499  70.7027480  94.3628614
  76.2010876  68.7368562 101.1297856  76.6764998  68.9296208 100.3216707
  75.2776442  68.7927748 100.8841239  70.7791093  60.7716405 100.0953689
  71.2973037  61.5077432  99.7700178  70.4246225  61.0780399 100.9300449
  71.0303687  57.1916688  95.6154586  71.3105441  56.5239877  96.2415013
  71.8154294  57.3845784  95.1029250  74.9012545  65.6134322  99.3626161
  75.8529968  65.7132420  99.3838385  74.7315996  64.8212591  99.8724246
  72.9226925  62.6989905  99.5485562  72.3276857  62.9794918  98.8532051
  72.6376621  63.1883806 100.3202303  77.3800623  68.8340442  98.4768461
  77.3476943  67.8956442  98.6628145  77.9901247  68.9124478  97.7434286
  77.5295111  65.6251485  98.5226744  77.0134160  64.8409942  98.3356673
  78.4135060  65.2970202  98.6873263  75.1905838  59.3692501  94.4822557
  74.9930659  59.0607589  95.3665889  75.8005544  60.0954140  94.6120487
  83.1977173  69.8956449  97.6174498  83.9280561  69.6341737  98.1782201
  82.5884118  69.1585170  97.6576566  81.2792470  68.0364311  98.2148949
  80.5525634  67.9020276  97.6065440  80.8639757  68.3441140  99.0205667
  69.1022646  71.7554241 105.9796322  70.0225656  71.9332840 106.1736368
  69.0672229  70.8110286 105.8276021  62.0984719  69.6655275  98.6219103
  62.3170729  70.5972383  98.6407137  62.5110493  69.3063250  99.4073907
  66.9712584  65.2388481 108.0121852  66.8709311  66.1882838 107.9433943
  66.7534126  64.9106720 107.1397922  58.1893071  70.5695746  96.8742718
  57.4956543  70.1549699  96.3612672  58.9366062  70.6116282  96.2776137
  74.3258292  61.3601933  91.7397752  73.7456961  62.0186737  91.3575805
  74.0594225  60.5379277  91.3285170  72.7761858  60.7606990  93.9419073
  73.2761637  60.8723525  93.1333391  73.4197466  60.4568043  94.5819881
  66.8343854  68.6685620 106.8286914  66.3510936  69.4685980 107.0350803
  66.9204793  68.6793565 105.8754358  62.7617192  72.5590155  98.8655347
  63.7160445  72.5274097  98.7985279  62.5629715  72.0980778  99.6805573
  63.3516574  71.1291271 101.4326145  64.1709463  71.6235349 101.4560982
  63.6253382  70.2123239 101.4043713  73.1083170  63.5202023  90.7954101
  72.2209025  63.8051674  90.5774295  73.5237159  63.3595786  89.9481377
  76.4597706  63.5448544  94.5108440  77.2358096  64.0344997  94.7833057
  75.7345840  63.9706598  94.9680309  78.8970265  64.2576163  95.5682380
  79.4914756  64.0171899  94.8575689  78.9696849  63.5383294  96.1955917
  61.1167421  78.1009774  95.8825545  60.9821888  77.3410175  95.3163543
  60.6999483  78.8250674  95.4154334  73.0824194  69.0356559  91.0104391
  73.0259395  69.4925110  90.1712023  73.6352536  68.2747244  90.8327233
  76.8929000  64.8246291  91.8354510  76.6365934  64.4242927  92.6662718
  76.2681868  65.5390085  91.7104649  81.2041338  67.5642364  94.3425802
  80.6440896  67.6335553  95.1157364  80.5984841  67.3883349  93.6225298
  64.2736546  78.9979091  96.0943988  64.1568931  79.9424524  95.9922678
  63.4528993  78.6952653  96.4829787  58.6051488  65.4629405 102.1318342
  59.2510352  64.9528359 102.6205567  58.3968639  66.1998086 102.7061767
  71.1304880  72.5310252 107.6310483  71.9996040  72.7050904 107.2697118
  70.6511632  73.3504669 107.5086212  65.2991061  79.6507353  99.3099916
  66.2018307  79.6830963  99.6266411  65.0728431  78.7207804  99.3246252
  67.0544663  78.4038340  95.9709995  66.1040294  78.4040201  95.8574367
  67.3577149  77.6571074  95.4546030  70.9407218  56.3212226  92.1388175
  70.1739614  55.7670713  92.2844857  71.3517923  56.3934095  93.0002327
  62.9448979  62.6097022 106.2293356  63.8080441  62.2533827 106.4396681
  62.3714390  62.2710917 106.9168761  85.2672472  75.6147139  99.4736552
  84.9355797  76.4842550  99.2497767  84.6718085  75.2983423 100.1530583
  75.5030480  76.0177738 107.2223328  75.1097425  75.4643937 107.8970972
  76.3196620  76.3288317 107.6129845  73.5639779  82.6191985 103.0921814
  73.4493294  81.7177242 103.3928913  72.7084297  82.8655682 102.7406631
  82.3655604  73.4616720  99.0907866  82.0219873  74.3518362  99.0146977
  82.7334566  73.2718378  98.2277451  77.6895030  75.9160105  96.0623281
  78.5548027  75.7202914  95.7029171  77.7572539  75.6870457  96.9892638
  75.2957349  78.1462313  93.4339648  75.8701101  77.9237495  92.7012841
  75.8828332  78.2151008  94.1868249  77.5980017  75.0203562  92.1614717
  76.9444429  74.7052579  91.5371332  77.5560491  74.3979303  92.8874540
  84.1643269  72.7210280  94.1925604  84.4702146  71.8607643  93.9051519
  84.8895874  73.3127900  93.9924598  75.8670784  79.2059488  98.0753409
  76.5070163  79.0648247  97.3776372  75.0348314  78.9194001  97.6992011
  72.8699400  79.1759813  92.8526395  73.1306218  80.0905146  92.7435556
  73.6916573  78.7084256  93.0023008  71.8202179  79.6981358  99.1759971
  71.7360368  79.0907028  98.4410381  70.9984885  80.1890376  99.1769467
  84.4344887  75.1504515  96.6909525  83.5207967  75.3808742  96.8591732
  84.8637989  75.2342959  97.5423557  73.9726195  77.7356295 100.5154957
  74.0367522  78.5971126 100.1032354  73.9093315  77.1230297  99.7827315
  76.5564571  77.0266280 102.3514546  77.0798973  77.2728577 103.1140855
  76.3376904  77.8586315 101.9317683  75.0673675  79.5842924  90.5861148
  75.4069748  80.1128846  89.8639757  75.5145796  79.9223331  91.3619715
  77.7617116  77.9679975 100.0364217  77.4213936  77.1687788 100.4384896
  77.0556122  78.2681686  99.4641050  78.4133588  75.0529288  98.4891540
  79.2359657  74.5789766  98.3670430  78.6571651  75.8319771  98.9890226
  77.2005445  77.6165336  91.6151978  77.3221357  76.6881983  91.8142865
  76.9107488  77.6304022  90.7030293  80.0696636  75.3020247  94.7518698
  80.0918333  75.3659580  93.7970677  80.4864695  74.4624756  94.9459204
  71.1983851  83.4123649 102.1301336  70.4565587  83.5606284 102.7165967
  70.8776595  83.6731914 101.2668086  81.6184847  76.1008323 100.0953689
  82.1366791  76.8369350  99.7700178  81.2639980  76.4072316 100.9300449
  81.8697441  72.5208606  95.6154586  82.1499195  71.8531795  96.2415013
  82.6548048  72.7137701  95.1029250  83.7620679  78.0281823  99.5485562
  83.1670611  78.3086836  98.8532051  83.4770376  78.5175724 100.3202303
  86.0299593  74.6984418  94.4822557  85.8324414  74.3899507  95.3665889
  86.6399298  75.4246057  94.6120487  79.9416401  87.0846158 105.9796322
  80.8619410  87.2624757 106.1736368  79.9065984  86.1402204 105.8276021
  79.8582691  75.5015278  90.6094791  79.0483420  75.1562363  90.9850037
  80.5467108  75.1922822  91.1982403  81.7873239  74.5793325  92.2319088
  82.3404278  74.9988779  92.8909111  82.0243326  73.6529073  92.2742044
  77.8106339  80.5680399 108.0121852  77.7103066  81.5174756 107.9433943
  77.5927881  80.2398638 107.1397922  83.6155613  76.0898908  93.9419073
  84.1155391  76.2015443  93.1333391  84.2591221  75.7859961  94.5819881
  69.4445243  80.7921322 102.1318342  70.0904106  80.2820276 102.6205567
  69.2362394  81.5290004 102.7061767  81.9698635  87.8602170 107.6310483
  82.8389794  88.0342822 107.2697118  81.4905386  88.6796587 107.5086212
  81.7800973  71.6504144  92.1388175  81.0133368  71.0962630  92.2844857
  82.1911678  71.7226012  93.0002327  73.7842734  77.9388939 106.2293356
  74.6474195  77.5825744 106.4396681  73.2108144  77.6002834 106.9168761
  91.8767191 105.0424668  88.2728638  91.2255171 105.6278748  87.8862652
  92.6711554 105.5730863  88.3323675  89.5484976 100.6314775  84.0768009
  88.6412038 100.4004028  84.2759158  90.0456008  99.8352394  84.2641991
  95.3698210 104.4559667  89.6504775  95.6458054 104.3416262  90.5598649
  94.5002709 104.0577152  89.6116949  95.4334623 107.6031001  91.1707621
  95.6071501 107.0377424  90.4181473  95.9263515 108.4031896  90.9887110
  96.4209796 106.9197766  88.2704519  97.1160700 107.5404458  88.4891833
  96.7632946 106.0693117  88.5456897  87.0129259 104.5311387  89.7067865
  87.1617379 105.2146851  89.0534538  87.8195702 104.5116477  90.2217321
  93.7321924 107.3096667  88.3088195  94.6652597 107.2442229  88.5121070
  93.6445137 108.1452934  87.8502727 104.4684865 114.8982713  97.0355757
 105.1063275 114.7789461  96.3319097 104.3505708 115.8463557  97.0943709
 101.2774571 114.8510142  96.9717282 100.9393083 114.7351206  96.0837817
 102.1464340 114.4501307  96.9518288  97.1361387 116.7045618  92.9614173
  96.5726252 116.6135555  92.1930461  97.0213782 115.8845522  93.4416666
 101.7594354 116.0044993 102.9303488 101.7482995 115.6097792 102.0583991
 101.9214994 115.2711066 103.5237259  94.6825819 118.1996810  95.7998393
  95.4747111 117.8587634  95.3844693  94.9222469 118.3091785  96.7200547
 102.7160946 120.3716586  88.2728638 102.0648925 120.9570666  87.8862652
 103.5105309 120.9022781  88.3323675  96.6416573 117.4605723  88.6715772
  97.4147449 116.9134710  88.5328648  96.9941972 118.3249972  88.8830234
  98.4801615 118.7882105 101.8782672  98.1891481 119.6927736 101.7629338
  99.1158600 118.8298633 102.5926741  99.4057822 116.1658954  98.4684031
 100.0021395 115.9414976  97.7540994  99.4632794 115.4243699  99.0709479
 104.0226134 112.6234167  94.1108965 104.8089223 112.2053590  93.7599382
 104.2864838 113.5280259  94.2790614 104.1936211 118.0607018  88.8097622
 103.5582044 118.1341644  89.5218527 103.8633617 118.6500616  88.1316701
 109.4234561 112.5609401  95.0141944 110.1559733 111.9908617  95.2479773
 108.6673916 112.1731001  95.4548449  98.6979139 115.5226495  88.5058597
  98.5815398 114.8471398  89.1739681  98.8081399 115.0358869  87.6890750
 101.0410680 114.9836642  92.2105286 100.6768888 114.4567263  92.9218208
 101.8977796 114.5935111  92.0371772 103.4391501 118.4743521  98.8732465
 103.1392224 119.3768559  98.7648272 103.0942560 118.2075704  99.7253618
  96.8903982 114.9257317  94.9069170  95.9654478 114.7933532  95.1146861
  97.1388395 115.7051537  95.4039112 106.8388644 110.9926061  96.5529903
 105.9305522 110.9241469  96.2588664 106.7876240 111.4698006  97.3811728
  94.2512793 114.5690591  95.7412959  94.3805174 114.8225070  96.6552370
  93.5710244 115.1618299  95.4217614  98.4212280 125.2387841  91.8403433
  98.3436310 126.1895666  91.9191913  97.8173924 124.8933713  92.4978359
 100.9129510 112.4115706 104.4964800 100.1362844 112.9709627 104.4867664
 101.5520073 112.8972489 105.0179670 108.7050291 109.1942499  98.3307776
 108.0624671 109.4875032  97.6847571 108.2005219 109.0795420  99.1360973
  99.1675882 115.2201160 104.0582767  99.9090567 115.7586204 103.7817590
  98.4612868 115.8467448 104.2154319 104.6431222 117.3630300 102.6554928
 105.0514578 116.9212711 101.9109561 103.9208484 116.7882928 102.9089121
 100.9962292 112.3002907 100.0288485 101.8423487 112.7242321 100.1723134
 100.9360930 111.6436531 100.7227048 104.9660037 117.9231491  96.4107217
 104.3368899 118.0877205  95.7083285 104.5785699 118.3373100  97.1818181
 108.8449269 118.8585929  93.7651581 108.1600307 119.2384830  93.2148614
 108.9293118 119.4681255  94.4983529 104.1461737 109.9607275 101.6869659
 103.9022669 110.7149336 101.1503935 104.4221668 110.3392623 102.5216906
 106.1000200 116.5045888 100.3646924 106.3117095 117.1477648  99.6881306
 106.0529948 115.6708204  99.8968855 100.5187999 117.6605899  93.6757302
 100.9826344 117.9393602  92.8861925 100.2544797 116.7589343  93.4930393
  97.4112080 117.2077380  96.6137066  97.9813437 117.6364649  95.9754550
  98.0020191 116.9259965  97.3121251  99.4556885 113.7829051  90.4846867
 100.1580928 114.2350095  90.9520794  99.1237513 113.1412870  91.1126761
  97.9037246 112.3740808 104.8598077  97.2735907 113.0557089 105.0933474
  97.7973334 112.2623890 103.9151215  93.1982219 112.0412604  95.7864001
  92.4081273 112.2970132  95.3104112  93.6893466 112.8560942  95.8916042
 107.2146028 119.3817843  98.5369282 108.0363472 118.9798030  98.2551963
 107.2108431 119.2786077  99.4885398  95.1496964 112.4057183  92.7447478
  94.3528127 112.5175877  93.2630973  94.9222556 112.7443835  91.8788368
 100.9802632 118.9301886 100.6929992 101.0447064 119.3922294 101.5288164
 100.2713555 118.2999251 100.8212302 115.3052021 115.7256592  94.8854253
 114.5515730 115.1563990  94.7298258 115.4399562 115.6919256  95.8324888
 100.6950649 120.5969994  90.5608973 100.5596324 121.4421530  90.9893820
 101.2360462 120.7989272  89.7974906  97.1817989 106.6761574 107.2223328
  96.7884934 106.1227772 107.8970972  97.9984129 106.9872152 107.6129845
  94.1480047 118.1145432  91.1336898  94.6604567 118.9088682  91.2842462
  94.8002759 117.4171722  91.0670499  95.9574931 121.2311188  93.2159651
  96.1341560 122.1529153  93.0280635  96.7531765 120.9169607  93.6454031
 100.0985950 108.0919453 104.8143584 100.8395663 108.6926606 104.7348047
 100.3303873 107.3497091 104.2561627  95.2427288 113.2775820 103.0921814
  95.1280803 112.3761077 103.3928913  94.3871806 113.5239517 102.7406631
 102.3219126 121.2193560 104.6909315 101.8782980 120.4329939 104.3730219
 102.9836339 121.4072711 104.0253206  97.0806247 122.7489362  99.2169993
  97.6313672 122.6206425  98.4446987  96.2417723 123.0484251  98.8664886
 104.4200364 121.4996360 102.7190716 104.4018839 122.3205241 102.2270985
 105.3420284 121.3750436 102.9440857 100.8773418 119.0140490 103.5614224
 101.4101755 118.2528778 103.3313532 100.3487499 118.7214142 104.3038379
  99.3682539 106.5743941  96.0623281 100.2335536 106.3786749  95.7029171
  99.4360048 106.3454292  96.9892638 108.9827670 116.8641522  89.5333475
 108.2057112 116.5252681  89.0888637 109.6619151 116.8694145  88.8588440
 102.2426131 118.1426482  91.0733036 101.7147492 117.4079242  90.7606274
 101.7413633 118.9201159  90.8273005 107.2218977 116.3375503  96.1900083
 106.5642651 117.0274764  96.2780211 108.0259376 116.7271935  96.5334069
  96.9744858 108.8046149  93.4339648  97.5488610 108.5821330  92.7012841
  97.5615841 108.8734843  94.1868249 106.0324435 114.6919875  94.2404024
 106.5456317 115.3249867  94.7425734 106.6825659 114.0921071  93.8747384
  97.3014445 110.8350610  87.4535533  96.4651758 111.1725296  87.7744808
  97.1619215 110.6999589  86.5162670 103.2946810 124.6704200  86.9964696
 102.6208508 124.9735897  87.6049653 103.6812632 125.4733280  86.6470153
 102.5105266 112.1669331  96.4862365 101.5927828 112.3884278  96.3284053
 102.9265410 112.2415642  95.6274072 103.2940314 113.5660747  91.6165045
 104.0412133 114.0782144  91.3072167 103.5631904 113.2444799  92.4769439
 101.5666964 116.0619287  88.5992000 100.6578183 115.7778320  88.6964469
 101.5962048 116.4818366  87.7395306 106.7986232 119.6725877  92.3683167
 106.3448559 118.8316787  92.4248358 106.1680198 120.3087275  92.7057947
 105.7419151 110.6017863  93.5983835 105.0041908 110.0895249  93.9294077
 105.9945925 110.1618245  92.7867111 105.2419171 121.5102374  93.3032985
 105.5342145 122.0707431  92.5845351 105.7517791 121.8030935  94.0586144
 100.1151858 113.6747908  94.7001795 100.1700468 112.7221744  94.6244271
  99.3043060 113.8307347  95.1843093 101.2643052 117.6028031  85.9380078
 100.8262482 116.8863890  85.4785715 102.0053493 117.8304146  85.3765169
  98.0544218 112.2924968  92.4592174  97.2412084 112.5919138  92.8657366
  98.5503212 111.8980657  93.1766656 100.2052796 122.2882725  94.3926438
 100.1628975 122.5143571  93.4634970 101.1215495 122.0546099  94.5412240
 103.6518430 112.7566792 101.2907068 104.0067818 112.9838265 102.1501533
 104.2990561 113.0885169 100.6684323 109.3816167 115.8785228  91.9956397
 109.2434065 116.0686824  91.0677586 109.0252386 116.6404611  92.4524448
  97.5458293 109.8643323  98.0753409  98.1857672 109.7232082  97.3776372
  96.7135823 109.5777837  97.6992011 109.4085546 117.9461755  97.0067668
 109.8422053 117.8537044  97.8550722 110.1217127 117.9219256  96.3687684
  98.3218597 119.1645754  94.1888401  99.1159195 118.6696074  93.9870976
  97.6110289 118.6363617  93.8256107 103.1413441 121.5463849  98.5400769
 103.1950464 122.1154786  99.3078485 102.2728223 121.7165734  98.1754806
  94.5486909 109.8343648  92.8526395  94.8093727 110.7488982  92.7435556
  95.3704082 109.3668091  93.0023008  96.0211835 111.2481405 100.0225220
  96.6934888 111.0398768  99.3737869  95.1941621 111.0503491  99.5830452
 110.2701096 117.9885456  99.5400554 110.4636986 118.8931266  99.7859828
 110.1701714 117.5292875 100.3739139 105.3316205 118.1392199 105.1141434
 105.1801711 117.9102750 104.1971518 105.3220884 119.0962800 105.1272779
 102.1001541 115.7124111 100.0987701 103.0293601 115.8635271  99.9256668
 101.6792571 115.8008132  99.2436347 100.8989873 119.7374776  97.8686238
 100.7600958 119.3693560  98.7412176 100.1104469 120.2522415  97.6970196
 101.4938025 124.8383872  89.2111775 101.6689780 124.3671915  90.0257397
 100.8070813 125.4649638  89.4393035 102.4495088 119.1156378  95.2575076
 102.1144921 119.0757148  96.1532726 101.9499034 118.4501094  94.7845486
  96.4239332 114.5224008 100.7827657  96.2859130 113.7904247 101.3839196
  97.3344255 114.4332909 100.5011845  99.0521633 114.2343968 100.2711337
  99.7621251 113.5937160 100.2297955  99.0090941 114.4856863 101.1937518
 107.0408411 121.1711321 103.1917916 106.9820957 120.4870541 102.5248499
 107.4427930 121.9130311 102.7398542  97.7650567 111.2209186 102.0906976
  97.2287924 110.7699924 102.7428573  97.1767275 111.3555094 101.3477441
  96.0599110 127.9873235  95.9851635  96.2995708 128.6191759  96.6630653
  95.2168307 127.6361275  96.2716994  97.1752825 110.6797837  84.6533440
  96.2982292 110.5586638  84.2895687  97.6510579 109.8883915  84.4012329
 107.0425819 119.1350905 101.4231896 106.1552597 118.7976827 101.5458295
 107.6124370 118.4033936 101.6600661  93.4989688 110.3565193  99.1759971
  93.4147877 109.7490863  98.4410381  92.6772394 110.8474212  99.1769467
 100.5726972 123.7952357  98.3893139 100.4997143 124.6007329  98.9012443
 100.1304365 123.9944323  97.5641160 100.3616752 123.0324127  91.8995960
  99.5784273 123.5745808  91.9934185 101.0609497 123.5498107  92.2990202
 103.6713402 108.8418757  94.5430166 104.1682101 108.0888719  94.2231236
 102.9000383 108.8783074  93.9773375 111.5243159 114.5459122  96.1848457
 111.5133035 115.4283838  95.8142390 110.6560538 114.1930673  95.9902994
 103.0325655 123.6939191 100.5451298 103.7453628 124.3286656 100.4727199
 102.5415684 123.7903057  99.7291299 104.7543182 117.5990444  92.1168589
 103.8199461 117.7191907  91.9473294 104.9319851 116.6962911  91.8528599
 100.2548370 110.9836140  94.2701850  99.8846158 110.4307180  94.9582756
 100.7507463 110.3794273  93.7176850 108.1415734 113.4407763  92.6518623
 108.6076186 114.2735755  92.5778926 108.5923234 112.9752745  93.3563882
  98.0837569 121.4433635 101.3656868  98.7847028 122.0770118 101.5186263
  97.6132684 121.7848366 100.6052508 106.2091965 119.7851585  89.6504775
 106.4851809 119.6708179  90.5598649 105.3396464 119.3869070  89.6116949
 105.8838855 113.9978242  99.1909419 105.2310305 114.2454150  98.5361872
 106.2619235 113.1842381  98.8571896 102.8446029 124.0337936  93.2937589
 103.0268423 123.2159591  93.7565341 103.6679015 124.2505628  92.8562479
 103.1788194 122.9606121  90.5552638 103.7075961 122.4498575  89.9422800
 103.4416414 122.6448651  91.4198171 101.9326428 114.7398053 105.6775456
 101.2567065 114.6392183 106.3477831 102.7554062 114.5837267 106.1411453
  93.6805287 120.9769990  98.2987971  94.2658724 120.2313678  98.4315875
  93.4830125 121.2873947  99.1824635  96.5343942 124.0121237  93.3150413
  95.8654318 124.4967365  92.8314454  96.3956812 124.2590458  94.2293792
 100.6749211 126.0464981  99.9133072 101.2267519 126.2096602 100.6782157
 101.0155404 126.6369419  99.2413097  95.1265977 110.4663263 104.1627991
  95.7538015 110.0840341 104.7765515  94.2693895 110.2477465 104.5283683
 105.5260085 120.8726238 105.7681726 106.0699989 121.4856197 105.2736681
 104.9446930 121.4305817 106.2848739 103.8117598 123.9946956  96.8996754
 103.6868738 123.1936696  96.3907699 104.4696689 124.4893150  96.4110724
  95.4325766 110.3495689  96.0773894  94.7112352 110.9631657  95.9381368
  96.2219022 110.8853454  95.9990540 105.8752506 121.7955976  98.5276304
 104.9282842 121.6761328  98.4554631 106.2235280 120.9078474  98.6102566
  98.2352080 107.6850115 102.3514546  98.7586482 107.9312412 103.1140855
  98.0164413 108.5170150 101.9317683 102.8798940 121.5908693  94.7280656
 102.7323902 120.6625400  94.9088226 103.7052433 121.6128783  94.2437732
  96.7461184 110.2426760  90.5861148  97.0857257 110.7712681  89.8639757
  97.1933305 110.5807166  91.3619715 106.4833062 122.4137251  95.8145529
 107.4079609 122.2080113  95.6769980 106.3148365 122.1653653  96.7234871
  97.6159675 112.4032244  96.2983518  97.4704256 112.7172547  97.1907800
  97.1384879 113.0217144  95.7454417  99.4756058 109.3934792  96.3464408
  99.4617627 108.4975885  96.0096706 100.1928486 109.4005455  96.9802694
 106.2728378 122.9322919  91.1707621 106.4465255 122.3669341  90.4181473
 106.7657269 123.7323814  90.9887110  92.0905338 114.9437588  99.2371179
  91.5458806 115.7197396  99.3691454  92.9684688 115.2908392  99.0790301
 112.1267769 115.6959342  92.7897920 112.5698915 114.9466667  92.3917044
 111.2494279 115.6869478  92.4071652 107.2603550 122.2489683  88.2704519
 107.9554455 122.8696376  88.4891833 107.6026700 121.3985034  88.5456897
  92.8771360 114.0707484 102.1301336  92.1353096 114.2190120 102.7165967
  92.5564104 114.3315750 101.2668086 109.1594973 119.6989389  89.7991850
 109.6846298 120.0376662  89.0741170 109.0717326 118.7636404  89.6154984
 100.8215022 123.6123462 101.9281726 101.1302149 123.3672609 102.8004426
 101.6190504 123.8170101 101.4400596 100.8435634 125.7661372  94.1587103
 100.4040624 125.2737751  94.8519959 101.5943751 125.2234340  93.9179178
  93.3227973 121.9572913  94.1611731  94.1485993 121.6576685  93.7810374
  92.9722025 121.1880535  94.6101519  98.2909506 121.3099381  96.2309404
  97.6689516 120.6470086  95.9311632  98.9614373 121.3360513  95.5483052
  91.5236578 119.8759239  95.1200664  90.6868487 119.4481414  94.9384666
  91.4960224 120.0691683  96.0571456  98.3634034 109.7881169 105.8241910
  98.4122189 110.6643292 105.4419680  98.9056548 109.2458562 105.2513554
 108.8488880 120.3322292 105.1043048 108.0584423 120.3146431 104.5647547
 108.6122234 120.8710586 105.8592084 108.9686755 117.1814759 102.4175776
 109.0184760 117.0164766 103.3591299 108.8600678 116.3142018 102.0273657
  97.8523013 119.8603305  89.7067865  98.0011134 120.5438769  89.0534538
  98.6589457 119.8408395  90.2217321 106.2590517 113.1645687 103.7335083
 107.1600380 113.0252152 103.4419081 106.3338491 113.3300142 104.6733260
 100.5933322 110.5412542 102.5788269  99.7236632 110.8346108 102.3070858
 100.8292803 111.1252987 103.2995533 110.4704951 119.6011700 102.6617798
 110.1789760 119.9641681 103.4981259 109.8577083 118.8878709 102.4831130
 111.6700634 117.1664580  95.1820368 112.5047525 117.6054384  95.3457928
 111.8059763 116.6903233  94.3628614 108.7192140 114.7244315 101.1297856
 109.1946261 114.9171961 100.3216707 107.7957705 114.7803501 100.8841239
  95.6075646 115.8868482  90.7128934  95.3621688 114.9830812  90.9109144
  95.7771561 115.8885633  89.7708412 101.3518419 122.3551435  87.1779612
 100.7792386 122.9741622  86.7250084 101.9251212 122.9050797  87.7119534
 107.4193809 111.6010075  99.3626161 108.3711232 111.7008173  99.3838385
 107.2497259 110.8088344  99.8724246 104.5715679 122.6388585  88.3088195
 105.5046352 122.5734147  88.5121070 104.4838891 123.4744852  87.8502727
 107.2003695 121.9554455  85.2692142 107.1217327 121.6214319  86.1627900
 108.0213362 122.4476223  85.2683615 109.8981886 114.8216195  98.4768461
 109.8658207 113.8832195  98.6628145 110.5082510 114.9000231  97.7434286
 110.0476375 111.6127238  98.5226744 109.5315424 110.8285695  98.3356673
 110.9316323 111.2845955  98.6873263 115.7158436 115.8832202  97.6174498
 116.4461825 115.6217490  98.1782201 115.1065382 115.1460924  97.6576566
 113.7973733 114.0240064  98.2148949 113.0706897 113.8896029  97.6065440
 113.3821020 114.3316893  99.0205667 101.6203910 117.7429994 105.9796322
 102.5406919 117.9208593 106.1736368 101.5853493 116.7986039 105.8276021
  94.6165982 115.6531028  98.6219103  94.8351992 116.5848136  98.6407137
  95.0291756 115.2939003  99.4073907  99.4893848 111.2264234 108.0121852
  99.3890575 112.1758591 107.9433943  99.2715390 110.8982473 107.1397922
  99.3525118 114.6561373 106.8286914  98.8692199 115.4561733 107.0350803
  99.4386057 114.6669318 105.8754358  92.6211077 116.4889753  94.7508733
  92.5981765 116.5877440  93.7990616  92.9311714 117.3354904  95.0725899
  95.2798455 118.5465908  98.8655347  96.2341709 118.5149850  98.7985279
  95.0810979 118.0856532  99.6805573  95.8697837 117.1167024 101.4326145
  96.6890726 117.6111103 101.4560982  96.1434645 116.1998992 101.4043713
 108.9778970 109.5324297  94.5108440 109.7539360 110.0220750  94.7833057
 108.2527104 109.9582351  94.9680309 111.4151528 110.2451916  95.5682380
 112.0096019 110.0047652  94.8575689 111.4878112 109.5259047  96.1955917
  93.6348684 124.0885527  95.8825545  93.5003152 123.3285928  95.3163543
  93.2180746 124.8126427  95.4154334 104.7707647 119.2722451  84.8902121
 105.4743497 119.4772453  85.5059776 104.0470296 119.8399213  85.1551204
 105.6005457 115.0232312  91.0104391 105.5440659 115.4800864  90.1712023
 106.1533800 114.2622997  90.8327233 113.7222601 113.5518117  94.3425802
 113.1622159 113.6211307  95.1157364 113.1166104 113.3759102  93.6225298
  96.7917810 124.9854844  96.0943988  96.6750194 125.9300277  95.9922678
  95.9710256 124.6828406  96.4829787 106.6794344 119.7104980  86.9400581
 107.5139948 119.2786178  86.7578055 106.5178687 119.5386994  87.8677475
 106.3340237 116.2137093  88.3056920 106.2789040 116.0481365  87.3645364
 105.7086292 116.9213126  88.4619110 103.6486144 118.5186005 107.6310483
 104.5177303 118.6926657 107.2697118 103.1692895 119.3380422 107.5086212
  97.8172324 125.6383106  99.3099916  98.7199571 125.6706716  99.6266411
  97.5909694 124.7083557  99.3246252  99.5725926 124.3914093  95.9709995
  98.6221557 124.3915954  95.8574367  99.8758412 123.6446827  95.4546030
  95.4630243 108.5972775 106.2293356  96.3261704 108.2409580 106.4396681
  94.8895653 108.2586670 106.9168761 115.3078620 130.2274631  97.0355757
 115.9457029 130.1081378  96.3319097 115.1899462 131.1755475  97.0943709
 112.1168326 130.1802059  96.9717282 111.7786837 130.0643124  96.0837817
 112.9858094 129.7793224  96.9518288 107.9755141 132.0337536  92.9614173
 107.4120007 131.9427473  92.1930461 107.8607537 131.2137440  93.4416666
 105.5219573 133.5288727  95.7998393 106.3140865 133.1879552  95.3844693
 105.7616224 133.6383702  96.7200547 107.4810327 132.7897640  88.6715772
 108.2541203 132.2426628  88.5328648 107.8335726 133.6541890  88.8830234
 110.2451577 131.4950871  98.4684031 110.8415149 131.2706894  97.7540994
 110.3026548 130.7535617  99.0709479 109.8176605 128.9490307  86.3034222
 110.0702126 128.4271828  85.5417685 108.8801164 128.7856452  86.4060906
 114.8619888 127.9526085  94.1108965 115.6482977 127.5345508  93.7599382
 115.1258592 128.8572177  94.2790614 120.2628315 127.8901318  95.0141944
 120.9953487 127.3200535  95.2479773 119.5067671 127.5022919  95.4548449
 109.5372894 130.8518413  88.5058597 109.4209152 130.1763316  89.1739681
 109.6475154 130.3650787  87.6890750 111.8804435 130.3128560  92.2105286
 111.5162642 129.7859181  92.9218208 112.7371551 129.9227029  92.0371772
 117.7853735 121.6022892  99.4736552 117.4537060 122.4718303  99.2497767
 117.1899349 121.2859176 100.1530583 111.5209922 125.3418459  87.2066635
 111.6884324 126.2098696  87.5737106 111.3307091 125.5045741  86.2827924
 107.7297736 130.2549235  94.9069170 106.8048233 130.1225449  95.1146861
 107.9782150 131.0343454  95.4039112 117.6782399 126.3217978  96.5529903
 116.7699276 126.2533387  96.2588664 117.6269995 126.7989923  97.3811728
 111.4999143 127.7976117  88.1913302 111.3798768 128.2433168  89.0298782
 110.8051731 128.1461435  87.6326840 105.0906548 129.8982509  95.7412959
 105.2198929 130.1516988  96.6552370 104.4103999 130.4910217  95.4217614
 119.5444045 124.5234417  98.3307776 118.9018425 124.8166950  97.6847571
 119.0398974 124.4087337  99.1360973 117.1984209 128.2697590  89.0193636
 118.1102065 128.5024977  88.8441333 116.6893856 128.8534634  88.4568714
 111.8356047 127.6294825 100.0288485 112.6817242 128.0534238 100.1723134
 111.7754684 126.9728449 100.7227048 114.5420184 124.4455626  97.2683497
 113.6804663 124.7436880  97.5600234 114.5682618 124.6626025  96.3364529
 111.3581753 132.9897817  93.6757302 111.8220099 133.2685520  92.8861925
 111.0938551 132.0881261  93.4930393 108.2505834 132.5369298  96.6137066
 108.8207191 132.9656567  95.9754550 108.8413946 132.2551883  97.3121251
 110.2950639 129.1120969  90.4846867 110.9974682 129.5642013  90.9520794
 109.9631268 128.4704788  91.1126761 104.0375973 127.3704522  95.7864001
 103.2475027 127.6262050  95.3104112 104.5287220 128.1852859  95.8916042
 105.9890718 127.7349101  92.7447478 105.1921882 127.8467795  93.2630973
 105.7616311 128.0735753  91.8788368 102.3213676 127.6235012  98.2178992
 102.5721714 128.5082022  98.4836568 102.8573224 127.4439614  97.4454084
 104.9873801 133.4437350  91.1336898 105.4998322 134.2380600  91.2842462
 105.6396514 132.7463640  91.0670499 106.7968686 136.5603106  93.2159651
 106.9735314 137.4821071  93.0280635 107.5925519 136.2461525  93.6454031
 106.0821042 128.6067738 103.0921814 105.9674558 127.7052995 103.3928913
 105.2265560 128.8531435 102.7406631 114.8836867 119.4492473  99.0907866
 114.5401137 120.3394115  99.0146977 115.2515830 119.2594131  98.2277451
 102.9522718 131.7726004  91.9096468 103.7897940 132.1823012  91.6930176
 103.1300986 130.8325446  91.8796662 114.8487150 129.4401085  87.5980301
 114.3333773 130.2105689  87.8368689 114.5764458 128.7666221  88.2213363
 112.4334261 124.2850785  92.6565540 111.5775857 123.8957636  92.4771178
 112.8461213 124.3642746  91.7965325 113.9633408 121.8197129  97.0557099
 113.4598203 121.7827264  96.2424905 114.2564015 122.7289871  97.1153756
 110.2076294 121.9035858  96.0623281 111.0729290 121.7078667  95.7029171
 110.2753802 121.6746210  96.9892638 114.6373453 127.3128177  89.4240082
 114.3323589 127.6274326  90.2750226 115.5903895 127.3909597  89.4667415
 113.0819885 133.4718400  91.0733036 112.5541247 132.7371160  90.7606274
 112.5807388 134.2493076  90.8273005 107.8138613 124.1338066  93.4339648
 108.3882365 123.9113248  92.7012841 108.4009595 124.2026761  94.1868249
 116.8718190 130.0211793  94.2404024 117.3850072 130.6541785  94.7425734
 117.5219414 129.4212989  93.8747384 108.1408200 126.1642527  87.4535533
 107.3045512 126.5017214  87.7744808 108.0012969 126.0291507  86.5162670
 110.1161280 121.0079315  92.1614717 109.4625693 120.6928332  91.5371332
 110.0741755 120.3855056  92.8874540 111.2272485 131.2898610  84.0768009
 110.3199547 131.0587864  84.2759158 111.7243517 130.4936229  84.2641991
 113.3499021 127.4961249  96.4862365 112.4321582 127.7176196  96.3284053
 113.7659164 127.5707559  95.6274072 114.1334068 128.8952664  91.6165045
 114.8805887 129.4074062  91.3072167 114.4025658 128.5736717  92.4769439
 112.4060719 131.3911205  88.5992000 111.4971938 131.1070238  88.6964469
 112.4355802 131.8110284  87.7395306 116.5812906 125.9309781  93.5983835
 115.8435662 125.4187167  93.9294077 116.8339679 125.4910162  92.7867111
 116.6824533 118.7086033  94.1925604 116.9883410 117.8483396  93.9051519
 117.4077138 119.3003653  93.9924598 102.9748889 129.1116719  92.5807202
 102.7773289 128.5186080  91.8558268 102.4195553 128.8068929  93.2983141
 110.9545613 129.0039826  94.7001795 111.0094222 128.0513662  94.6244271
 110.1436815 129.1599265  95.1843093 112.1036806 132.9319949  85.9380078
 111.6656236 132.2155808  85.4785715 112.8447247 133.1596064  85.3765169
 108.8937973 127.6216885  92.4592174 108.0805838 127.9211056  92.8657366
 109.3896967 127.2272574  93.1766656 108.3852047 125.1935241  98.0753409
 109.0251427 125.0524000  97.3776372 107.5529578 124.9069754  97.6992011
 109.1612351 134.4937671  94.1888401 109.9552950 133.9987992  93.9870976
 108.4504044 133.9655535  93.8256107 105.4695115 128.6380753  90.2648154
 104.5392703 128.5765209  90.4818116 105.5652587 128.1156706  89.4684795
 105.3880664 125.1635566  92.8526395 105.6487481 126.0780899  92.7435556
 106.2097836 124.6960009  93.0023008 106.8605589 126.5773323 100.0225220
 107.5328643 126.3690685  99.3737869 106.0335376 126.3795409  99.5830452
 112.7631161 123.2035264 102.0390881 112.1159076 123.9025214 101.9455357
 113.5332177 123.6371408 102.4067129 113.2888842 134.4448296  95.2575076
 112.9538675 134.4049066  96.1532726 112.7892788 133.7793012  94.7845486
 107.2633086 129.8515926 100.7827657 107.1252884 129.1196165 101.3839196
 108.1738010 129.7624826 100.5011845 116.2248034 131.7904330  85.5312136
 115.6077205 131.0651159  85.4345188 115.7564523 132.5513691  85.1879210
 109.8915387 129.5635885 100.2711337 110.6015006 128.9229078 100.2297955
 109.8484695 129.8148780 101.1937518 108.6044321 126.5501103 102.0906976
 108.0681678 126.0991842 102.7428573 108.0161029 126.6847012 101.3477441
 108.0146580 126.0089755  84.6533440 107.1376046 125.8878556  84.2895687
 108.4904333 125.2175833  84.4012329  99.5348720 130.7966914  94.7474947
 100.2219760 130.4828644  94.1595962  99.3796849 131.7008279  94.4742199
 104.3383442 125.6857111  99.1759971 104.2541631 125.0782781  98.4410381
 103.5166149 126.1766129  99.1769467 114.5107156 124.1710675  94.5430166
 115.0075856 123.4180637  94.2231236 113.7394138 124.2074991  93.9773375
 115.5936937 132.9282362  92.1168589 114.6593216 133.0483824  91.9473294
 115.7713605 132.0254829  91.8528599 111.0942125 126.3128058  94.2701850
 110.7239912 125.7599098  94.9582756 111.5901217 125.7086191  93.7176850
 118.9809488 128.7699681  92.6518623 119.4469940 129.6027673  92.5778926
 119.4316989 128.3044663  93.3563882 116.9526151 121.1380268  96.6909525
 116.0389231 121.3684495  96.8591732 117.3819252 121.2218712  97.5423557
 104.5199042 136.3061908  98.2987971 105.1052478 135.5605596  98.4315875
 104.3223880 136.6165864  99.1824635  99.1116696 128.8767508  97.0192414
  99.1500796 128.3431099  97.8129532  98.6056989 128.3502713  96.4003391
 106.4907459 123.7232048 100.5154957 106.5548785 124.5846879 100.1032354
 106.4274579 123.1106050  99.7827315 105.9659731 125.7955181 104.1627991
 106.5931770 125.4132258 104.7765515 105.1087650 125.5769383 104.5283683
 102.7425274 127.6031610  90.0946346 103.0378715 126.6942288  90.0413399
 101.8413310 127.5819349  89.7727348 106.2719521 125.6787607  96.0773894
 105.5506107 126.2923574  95.9381368 107.0612777 126.2145371  95.9990540
 109.0745834 123.0142033 102.3514546 109.5980236 123.2604330 103.1140855
 108.8558168 123.8462068 101.9317683 104.4713115 125.2845708  90.2185671
 104.1425822 124.4043087  90.0360777 104.8252486 125.2293376  91.1062060
 107.5854939 125.5718677  90.5861148 107.9251011 126.1004599  89.8639757
 108.0327059 125.9099084  91.3619715 110.2798379 123.9555728 100.0364217
 109.9395200 123.1563541 100.4384896 109.5737386 124.2557439  99.4641050
 110.9314851 121.0405041  98.4891540 111.7540921 120.5665519  98.3670430
 111.1752915 121.8195524  98.9890226 109.5723086 124.0693299  88.7854441
 110.2931448 124.4474552  88.2818158 108.9488390 124.7882176  88.8889419
 113.7154209 124.7738448  89.7212774 113.9317823 125.6563086  89.4201602
 113.2348276 124.3824661  88.9918416 108.4553430 127.7324161  96.2983518
 108.3098011 128.0464464  97.1907800 107.9778634 128.3509062  95.7454417
 110.3149813 124.7226709  96.3464408 110.3011382 123.8267803  96.0096706
 111.0322241 124.7297373  96.9802694 112.1675944 125.1564049  98.3917535
 111.9093721 126.0781120  98.3901866 111.6360984 124.7594484  99.0817999
 102.9299092 130.2729506  99.2371179 102.3852560 131.0489314  99.3691454
 103.8078442 130.6200310  99.0790301 109.7186709 123.6041089  91.6151978
 109.8402620 122.6757736  91.8142865 109.4288751 123.6179775  90.7030293
 112.5877899 121.2896000  94.7518698 112.6099596 121.3535333  93.7970677
 113.0045958 120.4500509  94.9459204 103.7165114 129.3999402 102.1301336
 102.9746850 129.5482037 102.7165967 103.3957858 129.6607667 101.2668086
 104.1621728 137.2864831  94.1611731 104.9879748 136.9868602  93.7810374
 103.8115780 136.5172453  94.6101519 109.1303261 136.6391299  96.2309404
 108.5083270 135.9762004  95.9311632 109.8008128 136.6652431  95.5483052
 102.3630333 135.2051157  95.1200664 101.5262241 134.7773331  94.9384666
 102.3353978 135.3983600  96.0571456 108.6916768 135.1895222  89.7067865
 108.8404888 135.8730687  89.0534538 109.4983211 135.1700312  90.2217321
 106.4469401 131.2160400  90.7128934 106.2015443 130.3122730  90.9109144
 106.6165315 131.2177550  89.7708412 114.1366111 122.0884076 100.0953689
 114.6548054 122.8245103  99.7700178 113.7821243 122.3948069 100.9300449
 105.7165048 126.9488757  88.2115095 105.0234293 127.0233112  87.5555131
 105.4716800 126.1849101  88.7336612 114.3878705 118.5084359  95.6154586
 114.6680459 117.8407548  96.2415013 115.1729312 118.7013454  95.1029250
 116.2801943 124.0157576  99.5485562 115.6851875 124.2962589  98.8532051
 115.9951639 124.5051477 100.3202303 112.5758972 129.0204165  84.5195665
 113.5218077 128.8910373  84.5884083 112.1973217 128.2818827  84.9965093
 118.5480856 120.6860171  94.4822557 118.3505677 120.3775260  95.3665889
 119.1580562 121.4121810  94.6120487 110.7601889 126.9454142  84.4550550
 109.8533344 126.6487254  84.5313264 111.0377870 126.6483960  83.5884836
 101.6779829 128.2660505  94.9049596 101.3582614 127.4125813  94.6123970
 101.1313257 128.4809083  95.6607564 105.4559737 130.9822946  98.6219103
 105.6745747 131.9140054  98.6407137 105.8685511 130.6230921  99.4073907
 112.3763955 121.4891031  90.6094791 111.5664683 121.1438116  90.9850037
 113.0648372 121.1798575  91.1982403 114.3054503 120.5669078  92.2319088
 114.8585542 120.9864532  92.8909111 114.5424589 119.6404826  92.2742044
 109.5300674 123.8041077  84.5962529 110.3919838 124.1295975  84.8558347
 109.7151018 123.0172573  84.0835595 101.5468089 131.8863417  96.8742718
 100.8531561 131.4717369  96.3612672 102.2941080 131.9283953  96.2776137
 117.6833310 122.6769603  91.7397752 117.1031979 123.3354407  91.3575805
 117.4169243 121.8546948  91.3285170 116.1336876 122.0774661  93.9419073
 116.6336655 122.1891196  93.1333391 116.7772484 121.7735714  94.5819881
 103.4604832 131.8181670  94.7508733 103.4375520 131.9169358  93.7990616
 103.7705468 132.6646821  95.0725899 106.1192210 133.8757825  98.8655347
 107.0735463 133.8441768  98.7985279 105.9204733 133.4148449  99.6805573
 116.4658188 124.8369694  90.7954101 115.5784043 125.1219344  90.5774295
 116.8812177 124.6763457  89.9481377 119.8172724 124.8616215  94.5108440
 120.5933114 125.3512667  94.7833057 119.0920858 125.2874269  94.9680309
 122.2545283 125.5743834  95.5682380 122.8489774 125.3339570  94.8575689
 122.3271867 124.8550965  96.1955917 104.4742439 139.4177445  95.8825545
 104.3396906 138.6577846  95.3163543 104.0574501 140.1418345  95.4154334
 116.4399212 130.3524230  91.0104391 116.3834413 130.8092781  90.1712023
 116.9927554 129.5914914  90.8327233 120.2504018 126.1413962  91.8354510
 119.9940952 125.7410597  92.6662718 119.6256886 126.8557756  91.7104649
 117.1733991 131.5429011  88.3056920 117.1182795 131.3773282  87.3645364
 116.5480046 132.2505044  88.4619110 101.9626506 126.7797075 102.1318342
 102.6085370 126.2696029 102.6205567 101.7543657 127.5165757 102.7061767
 110.4830117 121.0437120  87.8842238 110.4708786 121.9878960  88.0410509
 111.3753538 120.8607265  87.5901699 114.2982236 117.6379897  92.1388175
 113.5314632 117.0838383  92.2844857 114.7092941 117.7101765  93.0002327
  39.4322339  -0.0706670  83.7601064  40.0700749  -0.1899923  83.0564404
  39.3143182   0.8774174  83.8189016  36.2412046  -0.1179242  83.6962589
  35.9030557  -0.2338177  82.8083124  37.1101814  -0.5188077  83.6763595
  32.0998861   1.7356235  79.6859480  31.5363726   1.6446171  78.9175767
  31.9851256   0.9156139  80.1661972  36.7231829   1.0355610  89.6548794
  36.7120469   0.6408408  88.7829298  36.8852468   0.3021682  90.2482566
  29.6463293   3.2307426  82.5243700  30.4384585   2.8898251  82.1089999
  29.8859943   3.3402401  83.4445853  37.6798420   5.4027202  74.9973945
  37.0286400   5.9881283  74.6107958  38.4742783   5.9333397  75.0568982
  31.6054047   2.4916339  75.3961079  32.3784923   1.9445326  75.2573955
  31.9579446   3.3560589  75.6075540  33.4439090   3.8192722  88.6027978
  33.1528956   4.7238352  88.4874644  34.0796074   3.8609249  89.3172048
  34.3695297   1.1969570  85.1929338  34.9658869   0.9725593  84.4786301
  34.4270268   0.4554316  85.7954786  33.9420325  -1.3490995  73.0279529
  34.1945846  -1.8709473  72.2662992  33.0044884  -1.5124849  73.1306212
  38.9863608  -2.3455216  80.8354272  39.7726697  -2.7635793  80.4844689
  39.2502312  -1.4409124  81.0035920  39.1573685   3.0917634  75.5342929
  38.5219518   3.1652261  76.2463833  38.8271092   3.6811233  74.8562008
  44.3872035  -2.4079983  81.7387251  45.1197207  -2.9780766  81.9725080
  43.6311391  -2.7958383  82.1793756  33.6616614   0.5537111  75.2303904
  33.5452872  -0.1217985  75.8984988  33.7718874   0.0669485  74.4136057
  36.0048155   0.0147259  78.9350593  35.6406362  -0.5122120  79.6463514
  36.8615271  -0.3754272  78.7617078  38.4028975   3.5054137  85.5977772
  38.1029698   4.4079176  85.4893579  38.0580034   3.2386320  86.4498925
  31.8541456  -0.0432066  81.6314476  30.9291953  -0.1755852  81.8392168
  32.1025870   0.7362153  82.1284419  41.8026119  -3.9763323  83.2775209
  40.8942996  -4.0447914  82.9833970  41.7513714  -3.4991378  84.1057035
  35.6242863  -2.5005184  74.9158608  35.5042488  -2.0548134  75.7544089
  34.9295451  -2.1519867  74.3572146  33.3849755  10.2698457  78.5648740
  33.3073784  11.2206283  78.6437220  32.7811398   9.9244330  79.2223666
  35.8766984  -2.5573677  91.2210106  35.1000318  -1.9979757  91.2112971
  36.5157547  -2.0716894  91.7424977  43.6687765  -5.7746884  85.0553083
  43.0262145  -5.4814351  84.4092878  43.1642694  -5.8893964  85.8606280
  41.3227929  -2.0283711  75.7438942  42.2345785  -1.7956324  75.5686640
  40.8137576  -1.4446667  75.1814021  34.1313357   0.2511776  90.7828073
  34.8728041   0.7896820  90.5062897  33.4250342   0.8778065  90.9399625
  39.6068696   2.3940917  89.3800235  40.0152052   1.9523327  88.6354867
  38.8845958   1.8193544  89.6334428  35.9599766  -2.6686476  86.7533792
  36.8060962  -2.2447063  86.8968441  35.8998404  -3.3252852  87.4472355
  39.9297511   2.9542107  83.1352524  39.3006373   3.1187821  82.4328592
  39.5423173   3.3683717  83.9063488  43.8086743   3.8896545  80.4896888
  43.1237781   4.2695447  79.9393921  43.8930592   4.4991872  81.2228835
  39.1099212  -5.0082108  88.4114966  38.8660144  -4.2540048  87.8749241
  39.3859142  -4.6296761  89.2462213  41.0637675   1.5356504  87.0892231
  41.2754570   2.1788264  86.4126612  41.0167423   0.7018821  86.6214161
  38.6663903  -5.8525675  83.9928803  37.8048383  -5.5544422  84.2845541
  38.6926338  -5.6355276  83.0609836  35.4825473   2.6916515  80.4002609
  35.9463818   2.9704218  79.6107231  35.2182271   1.7899960  80.2175700
  32.3749554   2.2387997  83.3382372  32.9450911   2.6675265  82.6999857
  32.9657666   1.9570582  84.0366558  34.4194359  -1.1860332  77.2092174
  35.1218402  -0.7339289  77.6766100  34.0874987  -1.8276513  77.8372067
  42.1783502   4.4128460  85.2614588  43.0000946   4.0108647  84.9797270
  42.1745905   4.3096694  86.2130704  35.9440106   3.9612503  87.4175299
  36.0084538   4.4232910  88.2533471  35.2351030   3.3309868  87.5457609
  50.2689496   0.7567208  81.6099560  49.5153204   0.1874606  81.4543564
  50.4037037   0.7229873  82.5570195  35.6588124   5.6280610  77.2854279
  35.5233798   6.4732146  77.7139127  36.1997936   5.8299888  76.5220213
  29.1117521   3.1456048  77.8582204  29.6242042   3.9399299  78.0087769
  29.7640234   2.4482339  77.7915806  30.9212406   6.2621805  79.9404958
  31.0979034   7.1839769  79.7525941  31.7169239   5.9480224  80.3699337
  37.2856600   6.2504177  91.4154621  36.8420454   5.4640556  91.0975526
  37.9473814   6.4383327  90.7498512  32.0443721   7.7799979  85.9415300
  32.5951146   7.6517042  85.1692294  31.2055197   8.0794868  85.5910193
  39.3837838   6.5306977  89.4436023  39.3656313   7.3515858  88.9516292
  40.3057758   6.4061052  89.6686164  35.8410892   4.0451106  90.2859531
  36.3739229   3.2839395  90.0558839  35.3124973   3.7524758  91.0283685
  38.9730870  -0.8580217  74.3225608  38.4577493  -0.0875612  74.5613995
  38.7008178  -1.5315080  74.9458669  43.9465144   1.8952138  76.2578781
  43.1694587   1.5563298  75.8133943  44.6256625   1.9004761  75.5833746
  38.7617173  -2.9853124  76.1485389  38.4567309  -2.6706975  76.9995532
  39.7147615  -2.9071705  76.1912722  37.2063605   3.1737099  77.7978343
  36.6784966   2.4389858  77.4851580  36.7051108   3.9511775  77.5518311
  42.1856451   1.3686119  82.9145389  41.5280125   2.0585381  83.0025518
  42.9896850   1.7582551  83.2579376  40.9961910  -0.2769508  80.9649331
  41.5093791   0.3560484  81.4671041  41.6463134  -0.8768312  80.5992691
  35.3516205   0.9917309  70.8013316  34.4443267   0.7606563  71.0004465
  35.8487237   0.1954928  70.9887298  38.2584284   9.7014816  73.7210002
  37.5845983  10.0046513  74.3294960  38.6450106  10.5043897  73.3715459
  37.4742741  -2.8020052  83.2107672  36.5565302  -2.5805105  83.0529360
  37.8902884  -2.7273742  82.3519379  38.2577788  -1.4028637  78.3410352
  39.0049607  -0.8907240  78.0317474  38.5269378  -1.7244584  79.2014745
  36.5304438   1.0929904  75.3237306  35.6215658   0.8088937  75.4209776
  36.5599522   1.5128983  74.4640613  41.7623706   4.7036493  79.0928474
  41.3086033   3.8627403  79.1493664  41.1317673   5.3397892  79.4303254
  40.7056625  -4.3671520  80.3229141  39.9679382  -4.8794134  80.6539384
  40.9583399  -4.8071139  79.5112418  40.2056645   6.5412990  80.0278292
  40.4979620   7.1018047  79.3090657  40.7155266   6.8341551  80.7831451
  35.0789333  -1.2941475  81.4247102  35.1337942  -2.2467639  81.3489578
  34.2680535  -1.1382036  81.9088400  36.2280526   2.6338648  72.6625385
  35.7899956   1.9174507  72.2031022  36.9690967   2.8614762  72.1010476
  35.1690270   7.3193341  81.1171745  35.1266449   7.5454188  80.1880277
  36.0852969   7.0856716  81.2657546  38.6155904  -2.2122591  88.0152374
  38.9705292  -1.9851118  88.8746840  39.2628035  -1.8804214  87.3929630
  44.3453641   0.9095845  78.7201703  44.2071540   1.0997441  77.7922893
  43.9889860   1.6715228  79.1769754  44.3723021   2.9772372  83.7312975
  44.8059527   2.8847661  84.5796029  45.0854601   2.9529872  83.0932991
  33.2856071   4.1956370  80.9133708  34.0796670   3.7006690  80.7116283
  32.5747764   3.6674233  80.5501413  38.1050916   6.5774466  85.2646075
  38.1587938   7.1465402  86.0323791  37.2365697   6.7476351  84.9000113
  45.2338570   3.0196072  86.2645860  45.4274460   3.9241883  86.5105135
  45.1339188   2.5603491  87.0984445  40.2953679   3.1702815  91.8386741
  40.1439185   2.9413367  90.9216825  40.2858358   4.1273417  91.8518086
  37.0639015   0.7434728  86.8233007  37.9931075   0.8945887  86.6501975
  36.6430045   0.8318749  85.9681654  35.8627347   4.7685392  84.5931545
  35.7238433   4.4004177  85.4657483  35.0741943   5.2833032  84.4215503
  36.4575499   9.8694489  75.9357081  36.6327255   9.3982532  76.7502704
  35.7708287  10.4960255  76.1638342  37.4132562   4.1466995  81.9820383
  37.0782395   4.1067765  82.8778033  36.9136508   3.4811711  81.5090793
  31.3876806  -0.4465375  87.5072964  31.2496604  -1.1785136  88.1084503
  32.2981730  -0.5356475  87.2257152  40.3491754   1.4923029  72.2557442
  39.7320925   0.7669857  72.1590495  39.8808242   2.2532390  71.9124517
  34.0159107  -0.7345416  86.9956643  34.7258725  -1.3752224  86.9543262
  33.9728415  -0.4832521  87.9182824  42.0045886   6.2021938  89.9163223
  41.9458432   5.5181158  89.2493806  42.4065404   6.9440928  89.4643849
  31.0236584  13.0183851  82.7096942  31.2633183  13.6502376  83.3875960
  30.1805781  12.6671892  82.9962301  42.0063293   4.1661522  88.1477202
  41.1190072   3.8287443  88.2703601  42.5761844   3.4344553  88.3845968
  35.5364446   8.8262974  85.1138446  35.4634618   9.6317945  85.6257750
  35.0941839   9.0254940  84.2886467  35.3254226   8.0634744  78.6241267
  34.5421748   8.6056424  78.7179492  36.0246971   8.5808724  79.0235508
  46.4880633  -0.4230261  82.9093764  46.4770510   0.4594454  82.5387697
  45.6198013  -0.7758710  82.7148301  37.9963130   8.7249808  87.2696604
  38.7091102   9.3597273  87.1972506  37.5053158   8.8213674  86.4536606
  39.7180657   2.6301061  78.8413896  38.7836935   2.7502523  78.6718600
  39.8957325   1.7273527  78.5773906  43.1053208  -1.5281620  79.3763930
  43.5713660  -0.6953628  79.3024233  43.5560709  -1.9936639  80.0809189
  33.0475043   6.4744251  88.0902175  33.7484503   7.1080734  88.2431569
  32.5770158   6.8158983  87.3297814  41.1729439   4.8162201  76.3750082
  41.4489283   4.7018796  77.2843956  40.3033938   4.4179686  76.3362255
  40.8476329  -0.9711141  85.9154725  40.1947779  -0.7235234  85.2607178
  41.2256709  -1.7847003  85.5817203  37.8083503   9.0648552  80.0182896
  37.9905898   8.2470208  80.4810648  38.6316489   9.2816244  79.5807786
  38.1425669   7.9916737  77.2797944  38.6713435   7.4809192  76.6668106
  38.4053888   7.6759267  78.1443477  36.8963902  -0.2291330  92.4020762
  36.2204539  -0.3297201  93.0723138  37.7191536  -0.3852116  92.8656760
  28.6442761   6.0080606  85.0233278  29.2296198   5.2624294  85.1561182
  28.4467600   6.3184563  85.9069942  31.4981417   9.0431854  80.0395720
  30.8291792   9.5277981  79.5559760  31.3594286   9.2901074  80.9539099
  35.6386685  11.0775597  86.6378378  36.1904993  11.2407219  87.4027464
  35.9792879  11.6680035  85.9658403  40.4897559   5.9036855  92.4927033
  41.0337463   6.5166813  91.9981988  39.9084404   6.4616433  93.0094046
  38.7755072   9.0257573  83.6242061  38.6506212   8.2247313  83.1153006
  39.4334164   9.5203766  83.1356031  40.8389981   6.8266593  85.2521611
  39.8920316   6.7071944  85.1799937  41.1872754   5.9389091  85.3347872
  37.8436414   6.6219309  81.4525963  37.6961377   5.6936017  81.6333533
  38.6689908   6.6439400  80.9683038  41.4470536   7.4447868  82.5390836
  42.3717083   7.2390729  82.4015287  41.2785839   7.1964269  83.4480177
  41.2365852   7.9633535  77.8952927  41.4102730   7.3979958  77.1426780
  41.7294743   8.7634430  77.7132417  47.0905243   0.7269958  79.5143227
  47.5336389  -0.0222716  79.1162350  46.2131754   0.7180095  79.1316959
  42.2241025   7.2800300  74.9949825  42.9191929   7.9006992  75.2137140
  42.5664175   6.4295651  75.2702203  44.1232448   4.7300005  76.5237156
  44.6483772   5.0687278  75.7986476  44.0354800   3.7947021  76.3400291
  35.7852496   8.6434079  88.6527033  36.0939623   8.3983226  89.5249732
  36.5827978   8.8480717  88.1645903  35.8073109  10.7971989  80.8832409
  35.3678099  10.3048367  81.5765266  36.5581225  10.2544956  80.6424485
  28.2865448   6.9883529  80.8857037  29.1123467   6.6887301  80.5055681
  27.9359499   6.2191152  81.3346826  33.2546981   6.3409998  82.9554711
  32.6326990   5.6780703  82.6556939  33.9251848   6.3671130  82.2728359
  26.4874053   4.9069856  81.8445971  25.6505961   4.4792030  81.6629972
  26.4597698   5.1002299  82.7816762  43.8126354   5.3632909  91.8288354
  43.0221898   5.3457048  91.2892854  43.5759708   5.9021203  92.5837391
  43.9324229   2.2125375  89.1421083  43.9822234   2.0475383  90.0836605
  43.8238152   1.3452634  88.7518963  32.8160488   4.8913921  76.4313172
  32.9648608   5.5749385  75.7779844  33.6226931   4.8719011  76.9462627
  41.2227991  -1.8043697  90.4580389  42.1237854  -1.9437232  90.1664387
  41.2975966  -1.6389242  91.3978567  45.4342426   4.6322317  89.3863104
  45.1427234   4.9952297  90.2226565  44.8214557   3.9189325  89.2076436
  46.6338108   2.1975197  81.9065674  47.4684999   2.6365001  82.0703235
  46.7697237   1.7213850  81.0873920  43.6829614  -0.2445069  87.8543162
  44.1583736  -0.0517422  87.0462014  42.7595179  -0.1885883  87.6086546
  30.5713121   0.9179099  77.4374240  30.3259163   0.0141429  77.6354451
  30.7409035   0.9196249  76.4953718  36.3155893   7.3862051  73.9024919
  35.7429860   8.0052239  73.4495391  36.8888687   7.9361413  74.4364841
  42.3831283  -3.3679308  86.0871468  43.3348706  -3.2681211  86.1083692
  42.2134733  -4.1601040  86.5969552  40.4045662  -6.2823725  86.2730869
  39.8095595  -6.0018712  85.5777357  40.1195359  -5.7929824  87.0447610
  39.5353153   7.6699202  75.0333501  40.4683826   7.6044763  75.2366377
  39.4476366   8.5055468  74.5748034  42.1641170   6.9865072  71.9937449
  42.0854801   6.6524936  72.8873207  42.9850836   7.4786840  71.9928921
  44.8619361  -0.1473189  85.2013767  44.8295681  -1.0857188  85.3873451
  45.4719984  -0.0689152  84.4679592  36.7002692  -1.2777136  71.2440972
  37.6461796  -1.4070928  71.3129390  36.3216937  -2.0162474  71.7210400
  45.0113849  -3.3562145  85.2472051  44.4952898  -4.1403689  85.0601980
  45.8953798  -3.6843429  85.4118570  50.6795911   0.9142818  84.3419804
  51.4099299   0.6528106  84.9027508  50.0702856   0.1771540  84.3821872
  48.7611208  -0.9449319  84.9394255  48.0344371  -1.0793354  84.3310747
  48.3458495  -0.6372491  85.7450974  36.5841384   2.7740610  92.7041628
  37.5044394   2.9519209  92.8981675  36.5490967   1.8296656  92.5521328
  29.5803457   0.6841645  85.3464410  29.7989466   1.6158753  85.3652443
  29.9929231   0.3249619  86.1319213  41.8077030  -7.6211698  78.4643059
  41.2275699  -6.9626894  78.0821111  41.5412963  -8.4434353  78.0530476
  34.3162592  -0.3128010  93.5532220  33.8329674   0.4872350  93.7596109
  34.4023531  -0.3020066  92.5999664  27.5848552   1.5200369  81.4754040
  27.5619240   1.6188057  80.5235923  27.8949188   2.3665520  81.7971206
  30.2435930   3.5776524  85.5900654  31.1979183   3.5460467  85.5230586
  30.0448453   3.1167148  86.4050880  30.8335312   2.1477640  88.1571452
  31.6528201   2.6421719  88.1806289  31.1072119   1.2309609  88.1289019
  40.5901908  -5.4611607  77.5199407  39.7027763  -5.1761957  77.3019602
  41.0055897  -5.6217844  76.6726684  43.9416444  -5.4365086  81.2353746
  44.7176834  -4.9468634  81.5078363  43.2164578  -5.0107032  81.6925616
  46.3789003  -4.7237467  82.2927687  46.9733493  -4.9641731  81.5820995
  46.4515586  -5.4430337  82.9201223  28.5986158   9.1196144  82.6070852
  28.4640626   8.3596545  82.0408850  28.1818221   9.8437044  82.1399641
  39.7345121   4.3033067  71.6147427  40.4380971   4.5083070  72.2305083
  39.0107770   4.8709829  71.8796511  40.5642932   0.0542929  77.7349697
  40.5078133   0.5111480  76.8957330  41.1171274  -0.7066387  77.5572540
  44.3747738  -4.1567340  78.5599817  44.1184672  -4.5570704  79.3908025
  43.7500606  -3.4423546  78.4349956  48.6860075  -1.4171266  81.0671108
  48.1259633  -1.3478077  81.8402670  48.0803579  -1.5930282  80.3470604
  31.7555284  10.0165461  82.8189295  31.6387668  10.9610893  82.7167985
  30.9347730   9.7139022  83.2075094  41.6431819   4.7415597  73.6645887
  42.4777423   4.3096795  73.4823362  41.4816162   4.5697610  74.5922782
  41.2977711   1.2447710  75.0302227  41.2426515   1.0791981  74.0890671
  40.6723766   1.9523743  75.1864416  38.6123618   3.5496622  94.3555789
  39.4814778   3.7237274  93.9942424  38.1330370   4.3691039  94.2331519
  32.7809798  10.6693723  86.0345223  33.6837045  10.7017333  86.3511718
  32.5547168   9.7394174  86.0491559  34.5363400   9.4224709  82.6955302
  33.5859031   9.4226571  82.5819674  34.8395887   8.6757444  82.1791336
  42.9392616  17.0648152  79.6859480  42.3757481  16.9738089  78.9175767
  42.8245011  16.2448057  80.1661972  47.5625583  16.3647527  89.6548794
  47.5514224  15.9700326  88.7829298  47.7246223  15.6313600  90.2482566
  40.4857048  18.5599344  82.5243700  41.2778340  18.2190168  82.1089999
  40.7253698  18.6694319  83.4445853  44.2832844  19.1484639  88.6027978
  43.9922710  20.0530270  88.4874644  44.9189829  19.1901167  89.3172048
  45.2089051  16.5261488  85.1929338  45.8052623  16.3017510  84.4786301
  45.2664023  15.7846233  85.7954786  55.2265789  12.9211935  81.7387251
  55.9590961  12.3511152  81.9725080  54.4705145  12.5333535  82.1793756
  52.7491210   6.6333509  86.1981859  52.4174535   7.5028920  85.9743074
  52.1536823   6.3169793  86.8775890  46.4847396  10.3729076  73.9311942
  46.6521799  11.2409312  74.2982413  46.2944565  10.5356358  73.0073231
  49.2422729  18.8346055  85.5977772  48.9423452  19.7371094  85.4893579
  48.8973789  18.5678238  86.4498925  42.6935211  15.2859852  81.6314476
  41.7685707  15.1536066  81.8392168  42.9419624  16.0654071  82.1284419
  52.6419873  11.3528595  83.2775209  51.7336750  11.2844003  82.9833970
  52.5907469  11.8300540  84.1057035  40.0544022  14.9293125  82.4658265
  40.1836403  15.1827604  83.3797677  39.3741473  15.5220833  82.1462920
  46.7160739  12.7718241  91.2210106  45.9394073  13.3312161  91.2112971
  47.3551302  13.2575024  91.7424977  54.5081520   9.5545033  85.0553083
  53.8655900   9.8477567  84.4092878  54.0036448   9.4397954  85.8606280
  44.9707111  15.5803694  90.7828073  45.7121796  16.1188738  90.5062897
  44.2644097  16.2069983  90.9399625  50.4462451  17.7232834  89.3800235
  50.8545807  17.2815245  88.6354867  49.7239712  17.1485462  89.6334428
  46.7993521  12.6605441  86.7533792  47.6454716  13.0844855  86.8968441
  46.7392159  12.0039065  87.4472355  49.9492966  10.3209810  88.4114966
  49.7053898  11.0751870  87.8749241  50.2252897  10.6995157  89.2462213
  51.9031429  16.8648422  87.0892231  52.1148324  17.5080182  86.4126612
  51.8561177  16.0310738  86.6214161  49.5057658   9.4766243  83.9928803
  48.6442137   9.7747496  84.2845541  49.5320093   9.6936641  83.0609836
  43.2143308  17.5679915  83.3382372  43.7844666  17.9967183  82.6999857
  43.8051420  17.2862499  84.0366558  43.7068475  12.7343342  91.5843383
  43.0767136  13.4159623  91.8178780  43.6004563  12.6226424  90.6396522
  39.0013447  12.4015138  82.5109308  38.2112501  12.6572667  82.0349418
  39.4924695  13.2163476  82.6161348  53.0177257  19.7420377  85.2614588
  53.8394701  19.3400565  84.9797270  53.0139660  19.6388611  86.2130704
  40.9528193  12.7659717  79.4692784  40.1559356  12.8778412  79.9876280
  40.7253785  13.1046370  78.6033675  46.7833860  19.2904421  87.4175299
  46.8478293  19.7524828  88.2533471  46.0744784  18.6601786  87.5457609
  37.2851150  12.6545629  84.9424298  37.5359189  13.5392639  85.2081874
  37.8210699  12.4750230  84.1699390  61.1083250  16.0859126  81.6099560
  60.3546958  15.5166524  81.4543564  61.2430791  16.0521790  82.5570195
  42.9849218   7.0364108  93.9468635  42.5916163   6.4830307  94.6216279
  43.8015358   7.3474686  94.3375152  45.9017179   8.4521987  91.5388891
  46.6426892   9.0529140  91.4593354  46.1335102   7.7099625  90.9806934
  41.0458517  13.6378354  89.8167121  40.9312032  12.7363612  90.1174220
  40.1903034  13.8842051  89.4651937  48.1250354  21.5796095  91.4154621
  47.6814209  20.7932473  91.0975526  48.7867568  21.7675245  90.7498512
  42.8837476  23.1091896  85.9415300  43.4344901  22.9808960  85.1692294
  42.0448952  23.4086785  85.5910193  50.2231593  21.8598895  89.4436023
  50.2050068  22.6807776  88.9516292  51.1451513  21.7352970  89.6686164
  46.6804647  19.3743024  90.2859531  47.2132983  18.6131312  90.0558839
  46.1518728  19.0816676  91.0283685  49.8474342   4.4803090  85.8153173
  49.5038611   5.3704732  85.7392283  50.2153304   4.2904748  84.9522758
  47.3971735   9.3161402  79.3810846  46.5413332   8.9268252  79.2016485
  47.8098687   9.3953363  78.5210632  48.9270882   6.8507745  83.7802406
  48.4235678   6.8137880  82.9670211  49.2201489   7.7600488  83.8399063
  45.1713768   6.9346475  82.7868588  46.0366765   6.7389284  82.4274477
  45.2391277   6.7056827  83.7137944  42.7776087   9.1648683  80.1584955
  43.3519839   8.9423864  79.4258147  43.3647069   9.2337377  80.9113556
  43.1045674  11.1953144  74.1780840  42.2682986  11.5327830  74.4990115
  42.9650444  11.0602124  73.2407977  45.0798755   6.0389932  78.8860024
  44.4263167   5.7238949  78.2616639  45.0379229   5.4165672  79.6119847
  51.6462007   3.7396649  80.9170910  51.9520884   2.8794013  80.6296826
  52.3714612   4.3314269  80.7169904  37.9386363  14.1427336  79.3052508
  37.7410763  13.5496696  78.5803575  37.3833027  13.8379546  80.0228447
  43.8575447  12.6527502  79.1837480  43.0443312  12.9521673  79.5902673
  44.3534441  12.2583191  79.9011963  49.4549659  13.1169326  88.0152374
  49.8099046  13.3440800  88.8746840  50.1021790  13.4487703  87.3929630
  43.3489522  10.2245858  84.7998715  43.9888901  10.0834617  84.1021679
  42.5167052   9.9380371  84.4237317  40.3518138  10.1946183  79.5771702
  40.6124955  11.1091516  79.4680863  41.1735310   9.7270625  79.7268315
  41.8243063  11.6083940  86.7470527  42.4966117  11.4001302  86.0983176
  40.9972850  11.4106026  86.3075759  56.0732325  18.3487990  86.2645860
  56.2668215  19.2533801  86.5105135  55.9732943  17.8895409  87.0984445
  47.7268635   8.2345881  88.7636188  47.0796551   8.9335830  88.6700664
  48.4969651   8.6682025  89.1312436  51.1347433  18.4994733  91.8386741
  50.9832940  18.2705284  90.9216825  51.1252113  19.4565334  91.8518086
  47.9032770  16.0726646  86.8233007  48.8324830  16.2237805  86.6501975
  47.4823800  16.1610666  85.9681654  46.7021102  20.0977310  84.5931545
  46.5632187  19.7296094  85.4657483  45.9135698  20.6124949  84.4215503
  42.2270561  14.8826543  87.5072964  42.0890359  14.1506781  88.1084503
  43.1375484  14.7935443  87.2257152  44.8552861  14.5946502  86.9956643
  45.5652480  13.9539694  86.9543262  44.8122170  14.8459397  87.9182824
  52.8439640  21.5313855  89.9163223  52.7852186  20.8473075  89.2493806
  53.2459158  22.2732845  89.4643849  43.5681795  11.5811720  88.8152283
  43.0319152  11.1302458  89.4673879  42.9798504  11.7157629  88.0722747
  42.9784054  11.0400371  71.3778747  42.1013521  10.9189172  71.0140993
  43.4541807  10.2486450  71.1257635  52.8457047  19.4953439  88.1477202
  51.9583826  19.1579361  88.2703601  53.4155598  18.7636470  88.3845968
  34.4986194  15.8277531  81.4720254  35.1857234  15.5139261  80.8841269
  34.3434323  16.7318896  81.1987505  39.3020917  10.7167728  85.9005277
  39.2179105  10.1093397  85.1655687  38.4803623  11.2076746  85.9014774
  49.4744630   9.2021291  81.2675472  49.9713330   8.4491253  80.9476543
  48.7031612   9.2385608  80.7018682  57.3274388  14.9061657  82.9093764
  57.3164264  15.7886372  82.5387697  56.4591767  14.5533207  82.7148301
  48.8356884  24.0541726  87.2696604  49.5484856  24.6889190  87.1972506
  48.3446913  24.1505592  86.4536606  43.8868798  21.8036169  88.0902175
  44.5878257  22.4372652  88.2431569  43.4163913  22.1450901  87.3297814
  51.9163625   6.1690885  83.4154831  51.0026705   6.3995111  83.5837038
  52.3456727   6.2529329  84.2668864  51.6870084  14.3580777  85.9154725
  51.0341534  14.6056684  85.2607178  52.0650464  13.5444915  85.5817203
  47.7357657  15.1000588  92.4020762  47.0598294  14.9994717  93.0723138
  48.5585291  14.9439801  92.8656760  39.4836516  21.3372524  85.0233278
  40.0689953  20.5916212  85.1561182  39.2861354  21.6476481  85.9069942
  34.0754171  13.9078124  83.7437721  34.1138270  13.3741715  84.5374839
  33.5694463  13.3813330  83.1248698  46.4780440  26.4067515  86.6378378
  47.0298748  26.5699137  87.4027464  46.8186633  26.9971953  85.9658403
  41.4544933   8.7542665  87.2400263  41.5186259   9.6157496  86.8277661
  41.3912053   8.1416667  86.5072622  40.9297205  10.8265797  90.8873297
  41.5569244  10.4442875  91.5010822  40.0725124  10.6079999  91.2528990
  51.3291314  21.2328773  92.4927033  51.8731218  21.8458731  91.9981988
  50.7478159  21.7908351  93.0094046  37.7062748  12.6342227  76.8191652
  38.0016189  11.7252905  76.7658706  36.8050784  12.6129966  76.4972655
  41.2356995  10.7098223  82.8019201  40.5143581  11.3234191  82.6626674
  42.0250251  11.2455988  82.7235847  44.0383309   8.0452650  89.0759853
  44.5617710   8.2914946  89.8386162  43.8195642   8.8772684  88.6562990
  39.4350590  10.3156324  76.9430977  39.1063296   9.4353703  76.7606083
  39.7889960  10.2603993  77.8307367  42.5492413  10.6029294  77.3106455
  42.8888485  11.1315215  76.5885063  42.9964533  10.9409700  78.0865022
  45.2435854   8.9866345  86.7609523  44.9032674   8.1874158  87.1630203
  44.5374860   9.2868056  86.1886356  45.8952326   6.0715657  85.2136846
  46.7178395   5.5976135  85.0915736  46.1390389   6.8506141  85.7135532
  44.5360560   9.1003916  75.5099748  45.2568923   9.4785168  75.0063465
  43.9125864   9.8192792  75.6134726  43.4190904  12.7634778  83.0228825
  43.2735485  13.0775081  83.9153106  42.9416108  13.3819678  82.4699723
  45.2787287   9.7537326  83.0709714  45.2648856   8.8578419  82.7342012
  45.9959715   9.7607989  83.7048000  47.1313418  10.1874666  85.1162842
  46.8731196  11.1091737  85.1147172  46.5998458   9.7905100  85.8063306
  37.8936566  15.3040122  85.9616486  37.3490035  16.0799930  86.0936760
  38.7715916  15.6510927  85.8035607  44.6824183   8.6351706  78.3397284
  44.8040094   7.7068352  78.5388172  44.3926225   8.6490392  77.4275600
  47.5515374   6.3206616  81.4764004  47.5737070   6.3845950  80.5215984
  47.9683433   5.4811125  81.6704510  57.9298998  16.0561876  79.5143227
  58.3730144  15.3069201  79.1162350  57.0525508  16.0472012  79.1316959
  38.6802588  14.4310018  88.8546643  37.9384324  14.5792654  89.4411273
  38.3595333  14.6918284  87.9913392  46.6246251  23.9725997  88.6527033
  46.9333377  23.7275143  89.5249732  47.4221733  24.1772635  88.1645903
  44.0940735  21.6701915  82.9554711  43.4720744  21.0072620  82.6556939
  44.7645602  21.6963047  82.2728359  37.3267807  20.2361774  81.8445971
  36.4899715  19.8083948  81.6629972  37.2991452  20.4294217  82.7816762
  44.1665263  10.1483703  92.5487217  44.2153418  11.0245826  92.1664987
  44.7087777   9.6061096  91.9758860  54.6520108  20.6924827  91.8288354
  53.8615652  20.6748965  91.2892854  54.4153463  21.2313120  92.5837391
  54.7717983  17.5417293  89.1421083  54.8215988  17.3767300  90.0836605
  54.6631907  16.6744552  88.7518963  52.0621746  13.5248221  90.4580389
  52.9631609  13.3854686  90.1664387  52.1369720  13.6902676  91.3978567
  46.3964551  10.9015076  89.3033576  45.5267861  11.1948642  89.0316164
  46.6324031  11.4855521  90.0240839  56.2736180  19.9614235  89.3863104
  55.9820989  20.3244215  90.2226565  55.6608311  19.2481243  89.2076436
  54.5223368  15.0846849  87.8543162  54.9977490  15.2774495  87.0462014
  53.5988934  15.1406035  87.6086546  49.1003585   7.1194693  86.8198996
  49.6185529   7.8555720  86.4945485  48.7458718   7.4258686  87.6545755
  40.6802523  11.9799374  74.9360402  39.9871768  12.0543729  74.2800438
  40.4354274  11.2159718  75.4581919  49.3516179   3.5394975  82.3399893
  49.6317933   2.8718164  82.9660319  50.1366786   3.7324071  81.8274557
  53.2225037  11.9612609  86.0871468  54.1742460  12.0610707  86.1083692
  53.0528488  11.1690878  86.5969552  51.2439417   9.0468192  86.2730869
  50.6489349   9.3273205  85.5777357  50.9589114   9.5362093  87.0447610
  55.7013115  15.1818729  85.2013767  55.6689435  14.2434730  85.3873451
  56.3113739  15.2602766  84.4679592  55.8507604  11.9729772  85.2472051
  55.3346652  11.1888229  85.0601980  56.7347552  11.6448489  85.4118570
  53.5118331   5.7170788  81.2067863  53.3143152   5.4085876  82.0911195
  54.1218036   6.4432427  81.3365793  61.5189665  16.2434736  84.3419804
  62.2493054  15.9820024  84.9027508  60.9096611  15.5063458  84.3821872
  59.6004962  14.3842598  84.9394255  58.8738126  14.2498563  84.3310747
  59.1852249  14.6919427  85.7450974  47.4235139  18.1032528  92.7041628
  48.3438148  18.2811127  92.8981675  47.3884722  17.1588573  92.5521328
  36.6417304  13.2971122  81.6294903  36.3220088  12.4436430  81.3369277
  36.0950732  13.5119700  82.3852870  40.4197211  16.0133563  85.3464410
  40.6383221  16.9450671  85.3652443  40.8322985  15.6541537  86.1319213
  47.3401429   6.5201648  77.3340098  46.5302157   6.1748733  77.7095344
  48.0285846   6.2109192  77.9227710  49.2691977   5.5979695  78.9564395
  49.8223016   6.0175148  79.6154418  49.5062064   4.6715443  78.9987351
  45.2925076  11.5866768  94.7367159  45.1921803  12.5361125  94.6679250
  45.0746619  11.2585007  93.8643229  44.4938148   8.8351694  71.3207836
  45.3557312   9.1606592  71.5803653  44.6788492   8.0483189  70.8080902
  36.5105564  16.9174033  83.5988025  35.8169035  16.5027986  83.0857979
  37.2578555  16.9594570  83.0021444  52.6470784   7.7080220  78.4643059
  52.0669453   8.3665024  78.0821111  52.3806717   6.8857565  78.0530476
  51.0974351   7.1085278  80.6664379  51.5974129   7.2201812  79.8578698
  51.7409959   6.8046331  81.3065188  45.1556347  15.0163907  93.5532220
  44.6723428  15.8164267  93.7596109  45.2417286  15.0271852  92.5999664
  38.4242306  16.8492287  81.4754040  38.4012994  16.9479974  80.5235923
  38.7342943  17.6957438  81.7971206  41.0829684  18.9068442  85.5900654
  42.0372938  18.8752384  85.5230586  40.8842208  18.4459066  86.4050880
  41.6729066  17.4769558  88.1571452  42.4921955  17.9713637  88.1806289
  41.9465874  16.5601526  88.1289019  54.7810199   9.8926831  81.2353746
  55.5570589  10.3823284  81.5078363  54.0558333  10.3184886  81.6925616
  57.2182757  10.6054451  82.2927687  57.8127248  10.3650187  81.5820995
  57.2909341   9.8861581  82.9201223  59.5253830  13.9120651  81.0671108
  58.9653388  13.9813841  81.8402670  58.9197333  13.7361636  80.3470604
  36.9263980  11.8107692  88.8563649  37.5722844  11.3006646  89.3450874
  36.7181132  12.5476374  89.4307074  49.4517373  18.8788539  94.3555789
  50.3208532  19.0529192  93.9942424  48.9724124  19.6982956  94.2331519
  45.4467591   6.0747737  74.6087545  45.4346261   7.0189576  74.7655816
  46.3391013   5.8917882  74.3147006  43.6203553  25.9985640  86.0345223
  44.5230800  26.0309251  86.3511718  43.3940923  25.0686091  86.0491559
  49.2619710   2.6690513  78.8633482  48.4952106   2.1149000  79.0090164
  49.6730415   2.7412382  79.7247633  41.2661471   8.9575309  92.9538663
  42.1292933   8.6012114  93.1641988  40.6926882   8.6189204  93.6414067
  57.5554493  28.1010158  91.2210106  56.7787827  28.6604078  91.2112971
  58.1945056  28.5866941  91.7424977  55.8100866  30.9095612  90.7828073
  56.5515550  31.4480656  90.5062897  55.1037851  31.5361900  90.9399625
  54.5462229  28.0635260  91.5843383  53.9160890  28.7451541  91.8178780
  54.4398317  27.9518341  90.6396522  53.8242972  22.3656026  93.9468635
  53.4309918  21.8122224  94.6216279  54.6409113  22.6766604  94.3375152
  56.7410933  23.7813905  91.5388891  57.4820647  24.3821058  91.4593354
  56.9728856  23.0391543  90.9806934  51.8852271  28.9670272  89.8167121
  51.7705786  28.0655529  90.1174220  51.0296789  29.2133969  89.4651937
  60.6868096  19.8095008  85.8153173  60.3432366  20.6996649  85.7392283
  61.0547059  19.6196665  84.9522758  62.4855762  19.0688567  80.9170910
  62.7914639  18.2085930  80.6296826  63.2108367  19.6606187  80.7169904
  58.5662390  23.5637798  88.7636188  57.9190305  24.2627748  88.6700664
  59.3363405  23.9973942  89.1312436  58.5751411  30.4292505  92.4020762
  57.8992048  30.3286635  93.0723138  59.3979045  30.2731719  92.8656760
  51.7690960  26.1557715  90.8873297  52.3962999  25.7734792  91.5010822
  50.9118879  25.9371917  91.2528990  54.8777063  23.3744567  89.0759853
  55.4011465  23.6206864  89.8386162  54.6589396  24.2064602  88.6562990
  56.7346080  21.4007575  85.2136846  57.5572149  20.9268053  85.0915736
  56.9784144  22.1798059  85.7135532  49.5196343  29.7601936  88.8546643
  48.7778079  29.9084571  89.4411273  49.1989087  30.0210202  87.9913392
  55.0059017  25.4775621  92.5487217  55.0547173  26.3537744  92.1664987
  55.5481531  24.9353014  91.9758860  60.1909934  18.8686893  82.3399893
  60.4711687  18.2010082  82.9660319  60.9760541  19.0615989  81.8274557
  58.2628893  33.4324446  92.7041628  59.1831903  33.6103045  92.8981675
  58.2278476  32.4880491  92.5521328  56.1318831  26.9158686  94.7367159
  56.0315558  27.8653043  94.6679250  55.9140373  26.5876925  93.8643229
  55.9950101  30.3455825  93.5532220  55.5117183  31.1456185  93.7596109
  56.0811040  30.3563770  92.5999664  47.7657735  27.1399610  88.8563649
  48.4116599  26.6298564  89.3450874  47.5574886  27.8768291  89.4307074
  60.2911127  34.2080457  94.3555789  61.1602287  34.3821109  93.9942424
  59.8117879  35.0274874  94.2331519  52.1055226  24.2867227  92.9538663
  52.9686687  23.9304032  93.1641988  51.5320637  23.9481121  93.6414067
  64.6636727  37.6947943  93.9468635  64.2703672  37.1414142  94.6216279
  65.4802867  38.0058522  94.3375152  67.5804688  39.1105822  91.5388891
  68.3214401  39.7112976  91.4593354  67.8122610  38.3683460  90.9806934
  72.8134942  49.1578568  91.8386741  72.6620449  48.9289120  90.9216825
  72.8039622  50.1149170  91.8518086  74.5227149  52.1897691  89.9163223
  74.4639695  51.5056911  89.2493806  74.9246667  52.9316681  89.4643849
  63.5417848  59.0059605  82.7096942  63.7814446  59.6378129  83.3875960
  62.6987044  58.6547645  82.9962301  68.0545710  54.8138727  85.1138446
  67.9815881  55.6193698  85.6257750  67.6123103  55.0130693  84.2886467
  68.1567949  57.0651350  86.6378378  68.7086257  57.2282972  87.4027464
  68.4974142  57.6555788  85.9658403  73.0078823  51.8912608  92.4927033
  73.5518727  52.5042566  91.9981988  72.4265668  52.4492186  93.0094046
  76.3307617  51.3508662  91.8288354  75.5403161  51.3332801  91.2892854
  76.0940972  51.8896956  92.5837391  76.4505492  48.2001128  89.1421083
  76.5003497  48.0351136  90.0836605  76.3419416  47.3328387  88.7518963
  77.9523689  50.6198070  89.3863104  77.6608497  50.9828050  90.2226565
  77.3395820  49.9065078  89.2076436  83.1977174  46.9018571  84.3419804
  83.9280563  46.6403859  84.9027508  82.5884120  46.1647293  84.3821872
  64.2736548  56.0041214  82.8189295  64.1568932  56.9486646  82.7167985
  63.4528994  55.7014775  83.2075094  65.2991062  56.6569476  86.0345223
  66.2018309  56.6893086  86.3511718  65.0728432  55.7269927  86.0491559
  80.0806847  62.3523281  89.6548794  80.0695487  61.9576079  88.7829298
  80.2427486  61.6189353  90.2482566  76.8014108  65.1360392  88.6027978
  76.5103974  66.0406023  88.4874644  77.4371092  65.1776920  89.3172048
  85.2672473  52.6209262  86.1981859  84.9355798  53.4904673  85.9743074
  84.6718087  52.3045546  86.8775890  79.2342002  58.7593994  91.2210106
  78.4575336  59.3187914  91.2112971  79.8732565  59.2450777  91.7424977
  77.4888375  61.5679447  90.7828073  78.2303059  62.1064491  90.5062897
  76.7825360  62.1945736  90.9399625  82.9643714  63.7108587  89.3800235
  83.3727070  63.2690998  88.6354867  82.2420976  63.1361215  89.6334428
  82.4674230  56.3085563  88.4114966  82.2235162  57.0627623  87.8749241
  82.7434160  56.6870910  89.2462213  84.4212692  62.8524175  87.0892231
  84.6329588  63.4955935  86.4126612  84.3742441  62.0186491  86.6214161
  75.7324572  63.5555668  83.3382372  76.3025929  63.9842936  82.6999857
  76.3232684  63.2738252  84.0366558  76.2249738  58.7219095  91.5843383
  75.5948399  59.4035376  91.8178780  76.1185826  58.6102177  90.6396522
  85.5358520  65.7296130  85.2614588  86.3575964  65.3276318  84.9797270
  85.5320923  65.6264365  86.2130704  79.3015124  65.2780174  87.4175299
  79.3659556  65.7400581  88.2533471  78.5926048  64.6477539  87.5457609
  93.6264513  62.0734879  81.6099560  92.8728222  61.5042277  81.4543564
  93.7612055  62.0397543  82.5570195  75.5030481  53.0239861  93.9468635
  75.1097427  52.4706060  94.6216279  76.3196621  53.3350439  94.3375152
  78.4198442  54.4397740  91.5388891  79.1608156  55.0404893  91.4593354
  78.6516365  53.6975378  90.9806934  73.5639780  59.6254107  89.8167121
  73.4493295  58.7239365  90.1174220  72.7084298  59.8717804  89.4651937
  80.6431618  67.5671848  91.4154621  80.1995472  66.7808226  91.0975526
  81.3048831  67.7550998  90.7498512  82.7412856  67.8474648  89.4436023
  82.7231331  68.6683529  88.9516292  83.6632776  67.7228723  89.6686164
  79.1985910  65.3618777  90.2859531  79.7314247  64.6007065  90.0558839
  78.6699991  65.0692429  91.0283685  82.3655605  50.4678843  85.8153173
  82.0219874  51.3580485  85.7392283  82.7334568  50.2780501  84.9522758
  80.8317759  58.5147618  83.2107672  79.9140320  58.7362565  83.0529360
  81.2477902  58.5893929  82.3519379  81.9730922  59.1045080  88.0152374
  82.3280310  59.3316553  88.8746840  82.6203053  59.4363456  87.3929630
  87.7298039  64.2940042  83.7312975  88.1634545  64.2015331  84.5796029
  88.4429619  64.2697543  83.0932991  88.5913588  64.3363743  86.2645860
  88.7849478  65.2409554  86.5105135  88.4914206  63.8771162  87.0984445
  83.6528697  64.4870486  91.8386741  83.5014203  64.2581037  90.9216825
  83.6433376  65.4441087  91.8518086  80.4214033  62.0602399  86.8233007
  81.3506093  62.2113558  86.6501975  80.0005063  62.1486419  85.9681654
  74.7451824  60.8702296  87.5072964  74.6071622  60.1382535  88.1084503
  75.6556748  60.7811196  87.2257152  77.3734125  60.5822255  86.9956643
  78.0833743  59.9415447  86.9543262  77.3303433  60.8335150  87.9182824
  85.3620904  67.5189608  89.9163223  85.3033450  66.8348828  89.2493806
  85.7640422  68.2608598  89.4643849  76.0863059  57.5687473  88.8152283
  75.5500416  57.1178211  89.4673879  75.4979767  57.7033382  88.0722747
  85.3638311  65.4829192  88.1477202  84.4765090  65.1455114  88.2703601
  85.9336862  64.7512224  88.3845968  89.8455651  60.8937410  82.9093764
  89.8345528  61.7762125  82.5387697  88.9773031  60.5408960  82.7148301
  81.3538148  70.0417479  87.2696604  82.0666120  70.6764943  87.1972506
  80.8628176  70.1381345  86.4536606  84.2051347  60.3456530  85.9154725
  83.5522797  60.5932437  85.2607178  84.5831727  59.5320668  85.5817203
  80.2538920  61.0876341  92.4020762  79.5779557  60.9870470  93.0723138
  81.0766554  60.9315554  92.8656760  73.4478469  56.8141550  90.8873297
  74.0750508  56.4318628  91.5010822  72.5906388  56.5955752  91.2528990
  83.8472577  67.2204526  92.4927033  84.3912481  67.8334484  91.9981988
  83.2659422  67.7784104  93.0094046  84.1964999  68.1434264  85.2521611
  83.2495334  68.0239615  85.1799937  84.5447772  67.2556762  85.3347872
  79.1427514  69.9601750  88.6527033  79.4514641  69.7150896  89.5249732
  79.9402996  70.1648388  88.1645903  76.6846526  56.1359456  92.5487217
  76.7334682  57.0121579  92.1664987  77.2269040  55.5936849  91.9758860
  87.1701372  66.6800580  91.8288354  86.3796916  66.6624719  91.2892854
  86.9334726  67.2188873  92.5837391  87.2899247  63.5293046  89.1421083
  87.3397252  63.3643053  90.0836605  87.1813170  62.6620305  88.7518963
  84.5803009  59.5123974  90.4580389  85.4812872  59.3730439  90.1664387
  84.6550984  59.6778429  91.3978567  88.7917444  65.9489988  89.3863104
  88.5002252  66.3119968  90.2226565  88.1789575  65.2356996  89.2076436
  89.9913126  63.5142867  81.9065674  90.8260017  63.9532671  82.0703235
  90.1272255  63.0381521  81.0873920  87.0404632  61.0722602  87.8543162
  87.5158754  61.2650248  87.0462014  86.1170197  61.1281788  87.6086546
  81.6184848  53.1070446  86.8198996  82.1366792  53.8431473  86.4945485
  81.2639981  53.4134439  87.6545755  83.7620680  55.0343945  86.2730869
  83.1670612  55.3148958  85.5777357  83.4770377  55.5237846  87.0447610
  88.2194379  61.1694482  85.2013767  88.1870699  60.2310483  85.3873451
  88.8295002  61.2478519  84.4679592  94.0370929  62.2310489  84.3419804
  94.7674317  61.9695777  84.9027508  93.4277874  61.4939211  84.3821872
  92.1186226  60.3718351  84.9394255  91.3919389  60.2374316  84.3310747
  91.7033513  60.6795180  85.7450974  79.9416402  64.0908281  92.7041628
  80.8619412  64.2686880  92.8981675  79.9065985  63.1464326  92.5521328
  77.8106340  57.5742521  94.7367159  77.7103067  58.5236878  94.6679250
  77.5927882  57.2460760  93.8643229  77.6737610  61.0039660  93.5532220
  77.1904692  61.8040020  93.7596109  77.7598549  61.0147605  92.5999664
  74.1910330  63.4645311  88.1571452  75.0103219  63.9589390  88.1806289
  74.4647137  62.5477279  88.1289019  92.0435093  59.8996404  81.0671108
  91.4834651  59.9689594  81.8402670  91.4378597  59.7237389  80.3470604
  81.9698636  64.8664292  94.3555789  82.8389796  65.0404945  93.9942424
  81.4905388  65.6858709  94.2331519  73.7842735  54.9451062  92.9538663
  74.6474196  54.5887867  93.1641988  73.2108146  54.6064957  93.6414067
  96.1066228  67.9501180  86.1981859  95.7749553  68.8196590  85.9743074
  95.5111841  67.6337464  86.8775890  86.0510229  76.6027522  81.6314476
  85.1260725  76.4703736  81.8392168  86.2994642  77.3821742  82.1284419
  95.9994891  72.6696266  83.2775209  95.0911768  72.6011674  82.9833970
  95.9482487  73.1468211  84.1057035  97.8656537  70.8712704  85.0553083
  97.2230918  71.1645237  84.4092878  97.3611466  70.7565624  85.8606280
  92.8632676  70.7933913  83.9928803  92.0017155  71.0915167  84.2845541
  92.8895111  71.0104312  83.0609836  80.6426168  73.9713299  84.9424298
  80.8934207  74.8560309  85.2081874  81.1785717  73.7917901  84.1699390
 104.4658268  77.4026797  81.6099560 103.7121976  76.8334195  81.4543564
 104.6005809  77.3689461  82.5570195  86.3424236  68.3531779  93.9468635
  85.9491181  67.7997977  94.6216279  87.1590376  68.6642357  94.3375152
  89.2592197  69.7689658  91.5388891  90.0001910  70.3696811  91.4593354
  89.4910119  69.0267296  90.9806934  93.2049360  65.7970761  85.8153173
  92.8613629  66.6872402  85.7392283  93.5728322  65.6072418  84.9522758
  92.2845900  68.1675416  83.7802406  91.7810696  68.1305551  82.9670211
  92.5776507  69.0768159  83.8399063  88.5288786  68.2514146  82.7868588
  89.3941783  68.0556954  82.4274477  88.5966295  68.0224497  83.7137944
  95.0037025  65.0564320  80.9170910  95.3095902  64.1961683  80.6296826
  95.7289630  65.6481940  80.7169904  95.2738643  67.4858555  83.4154831
  94.3601723  67.7162782  83.5837038  95.7031745  67.5696999  84.2668864
  89.2527343  67.3883328  85.2136846  90.0753413  66.9143806  85.0915736
  89.4965407  68.1673812  85.7135532  88.6362305  71.0704996  83.0709714
  88.6223874  70.1746090  82.7342012  89.3534733  71.0775660  83.7048000
  90.9090391  67.6374287  81.4764004  90.9312088  67.7013620  80.5215984
  91.3258450  66.7978796  81.6704510  92.4578603  68.4362363  86.8198996
  92.9760547  69.1723390  86.4945485  92.1033736  68.7426357  87.6545755
  92.7091197  64.8562646  82.3399893  92.9892951  64.1885835  82.9660319
  93.4941804  65.0491742  81.8274557  94.6014435  70.3635863  86.2730869
  94.0064367  70.6440876  85.5777357  94.3164132  70.8529764  87.0447610
  99.2082622  73.2897443  85.2472051  98.6921670  72.5055900  85.0601980
 100.0922570  72.9616160  85.4118570  96.8693349  67.0338459  81.2067863
  96.6718170  66.7253547  82.0911195  97.4793054  67.7600098  81.3365793
 104.8764683  77.5602406  84.3419804 105.6068072  77.2987695  84.9027508
 104.2671629  76.8231128  84.3821872 102.9579980  75.7010269  84.9394255
 102.2313144  75.5666234  84.3310747 102.5427267  76.0087098  85.7450974
  88.6500094  72.9034439  94.7367159  88.5496821  73.8528796  94.6679250
  88.4321637  72.5752678  93.8643229  88.5131365  76.3331578  93.5532220
  88.0298446  77.1331938  93.7596109  88.5992304  76.3439523  92.5999664
  98.1385216  71.2094502  81.2353746  98.9145607  71.6990954  81.5078363
  97.4133351  71.6352556  81.6925616 100.5757775  71.9222121  82.2927687
 101.1702266  71.6817857  81.5820995 100.6484359  71.2029252  82.9201223
  98.5716510  72.4892249  78.5599817  98.3153444  72.0888885  79.3908025
  97.9469378  73.2036043  78.4349956  80.2838998  73.1275363  88.8563649
  80.9297862  72.6174317  89.3450874  80.0756149  73.8644044  89.4307074
  92.6194728  63.9858184  78.8633482  91.8527124  63.4316671  79.0090164
  93.0305433  64.0580053  79.7247633  84.6236489  70.2742980  92.9538663
  85.4867951  69.9179785  93.1641988  84.0501900  69.9356875  93.6414067
 115.3052022  92.7318714  81.6099560 114.5515731  92.1626112  81.4543564
 115.4399564  92.6981379  82.5570195 103.5484952  80.1854564  82.3399893
 103.8286705  79.5177753  82.9660319 104.3335558  80.3783659  81.8274557
 115.7158438  92.8894324  84.3419804 116.4461826  92.6279612  84.9027508
 115.1065383  92.1523046  84.3821872 113.7973735  91.0302187  84.9394255
 113.0706898  90.8958152  84.3310747 113.3821022  91.3379015  85.7450974
 115.3078621 107.2336754  83.7601064 115.9457031 107.1143501  83.0564404
 115.1899464 108.1817598  83.8189016 112.5988110 108.3399034  89.6548794
 112.5876751 107.9451832  88.7829298 112.7608750 107.6065106  90.2482566
 113.5554701 112.7070626  74.9973945 112.9042681 113.2924706  74.6107958
 114.3499064 113.2376821  75.0568982 120.2628316 104.8963441  81.7387251
 120.9953488 104.3262658  81.9725080 119.5067672 104.5085041  82.1793756
 117.7853737  98.6085015  86.1981859 117.4537062  99.4780426  85.9743074
 117.1899350  98.2921299  86.8775890 114.2785256 110.8097561  85.5977772
 113.9785979 111.7122600  85.4893579 113.9336316 110.5429744  86.4498925
 117.6782400 103.3280101  83.2775209 116.7699277 103.2595509  82.9833970
 117.6269996 103.8052046  84.1057035 119.5444046 101.5296539  85.0553083
 118.9018427 101.8229073  84.4092878 119.0398975 101.4149460  85.8606280
 115.4824978 109.6984340  89.3800235 115.8908334 109.2566751  88.6354867
 114.7602239 109.1236968  89.6334428 111.8356048 104.6356947  86.7533792
 112.6817243 105.0596361  86.8968441 111.7754686 103.9790572  87.4472355
 115.8053792 110.2585531  83.1352524 115.1762655 110.4231245  82.4328592
 115.4179455 110.6727141  83.9063488 119.6843024 111.1939969  80.4896888
 118.9994062 111.5738870  79.9393921 119.7686874 111.8035296  81.2228835
 114.9855493 102.2961316  88.4114966 114.7416425 103.0503376  87.8749241
 115.2615424 102.6746663  89.2462213 116.9393956 108.8399928  87.0892231
 117.1510851 109.4831688  86.4126612 116.8923704 108.0062245  86.6214161
 114.5420185 101.4517749  83.9928803 113.6804664 101.7499002  84.2845541
 114.5682620 101.6688148  83.0609836 118.0539784 111.7171883  85.2614588
 118.8757228 111.3152071  84.9797270 118.0502187 111.6140118  86.2130704
 126.1445777 108.0610632  81.6099560 125.3909485 107.4918030  81.4543564
 126.2793318 108.0273296  82.5570195 113.1612881 113.5547601  91.4154621
 112.7176736 112.7683979  91.0975526 113.8230095 113.7426751  90.7498512
 115.2594119 113.8350401  89.4436023 115.2412595 114.6559282  88.9516292
 116.1814039 113.7104476  89.6686164 111.7167174 111.3494530  90.2859531
 112.2495510 110.5882818  90.0558839 111.1881255 111.0568182  91.0283685
 114.8836869  96.4554596  85.8153173 114.5401138  97.3456238  85.7392283
 115.2515831  96.2656254  84.9522758 113.9633409  98.8259251  83.7802406
 113.4598205  98.7889386  82.9670211 114.2564016  99.7351994  83.8399063
 119.8221425 109.1995562  76.2578781 119.0450868 108.8606721  75.8133943
 120.5012906 109.2048185  75.5833746 118.0612732 108.6729543  82.9145389
 117.4036407 109.3628804  83.0025518 118.8653132 109.0625975  83.2579376
 116.8718191 107.0273916  80.9649331 117.3850073 107.6603908  81.4671041
 117.5219415 106.4275111  80.5992691 114.1340565 117.0058240  73.7210002
 113.4602264 117.3089937  74.3294960 114.5206387 117.8087320  73.3715459
 113.3499022 104.5023371  83.2107672 112.4321583 104.7238318  83.0529360
 113.7659166 104.5769682  82.3519379 117.6379987 112.0079917  79.0928474
 117.1842314 111.1670827  79.1493664 117.0073954 112.6441316  79.4303254
 116.0812927 113.8456414  80.0278292 116.3735901 114.4061471  79.3090657
 116.5911547 114.1384975  80.7831451 112.1036808 109.9382071  72.6625385
 111.6656238 109.2217930  72.2031022 112.8447249 110.1658186  72.1010476
 114.4912186 105.0920833  88.0152374 114.8461573 105.3192306  88.8746840
 115.1384317 105.4239209  87.3929630 120.2209923 108.2139268  78.7201703
 120.0827821 108.4040864  77.7922893 119.8646141 108.9758651  79.1769754
 120.2479302 110.2815795  83.7312975 120.6815809 110.1891085  84.5796029
 120.9610883 110.2573296  83.0932991 113.9807197 113.8817890  85.2646075
 114.0344219 114.4508826  86.0323791 113.1121978 114.0519775  84.9000113
 121.1094852 110.3239496  86.2645860 121.3030742 111.2285307  86.5105135
 121.0095470 109.8646915  87.0984445 116.1709960 110.4746239  91.8386741
 116.0195467 110.2456791  90.9216825 116.1614640 111.4316840  91.8518086
 112.9395297 108.0478152  86.8233007 113.8687357 108.1989311  86.6501975
 112.5186327 108.1362172  85.9681654 111.7383629 112.0728816  84.5931545
 111.5994714 111.7047600  85.4657483 110.9498225 112.5876455  84.4215503
 112.3331781 117.1737912  75.9357081 112.5083536 116.7025956  76.7502704
 111.6464569 117.8003679  76.1638342 113.2888844 111.4510419  81.9820383
 112.9538676 111.4111189  82.8778033 112.7892789 110.7855135  81.5090793
 117.8802167 113.5065361  89.9163223 117.8214713 112.8224582  89.2493806
 118.2821685 114.2484351  89.4643849 106.8992866 120.3227275  82.7096942
 107.1389464 120.9545799  83.3875960 106.0562062 119.9715315  82.9962301
 117.8819574 111.4704945  88.1477202 116.9946353 111.1330867  88.2703601
 118.4518125 110.7387977  88.3845968 111.4120728 116.1306398  85.1138446
 111.3390899 116.9361369  85.6257750 110.9698121 116.3298363  84.2886467
 122.3636915 106.8813163  82.9093764 122.3526791 107.7637878  82.5387697
 121.4954294 106.5284714  82.7148301 113.8719411 116.0293232  87.2696604
 114.5847383 116.6640697  87.1972506 113.3809440 116.1257098  86.4536606
 118.9809489 105.7761804  79.3763930 119.4469942 106.6089795  79.3024233
 119.4316990 105.3106785  80.0809189 108.9231325 113.7787675  88.0902175
 109.6240784 114.4124158  88.2431569 108.4526440 114.1202407  87.3297814
 117.0485721 112.1205625  76.3750082 117.3245564 112.0062220  77.2843956
 116.1790219 111.7223110  76.3362255 116.9526152  98.1442391  83.4154831
 116.0389232  98.3746617  83.5837038 117.3819254  98.2280835  84.2668864
 116.7232611 106.3332283  85.9154725 116.0704061 106.5808190  85.2607178
 117.1012991 105.5196421  85.5817203 113.6839785 116.3691976  80.0182896
 113.8662179 115.5513632  80.4810648 114.5072771 116.5859668  79.5807786
 114.0181950 115.2960161  77.2797944 114.5469716 114.7852616  76.6668106
 114.2810170 114.9802691  78.1443477 111.5142967 118.3819021  86.6378378
 112.0661275 118.5450643  87.4027464 111.8549160 118.9723459  85.9658403
 116.3653841 113.2080279  92.4927033 116.9093745 113.8210237  91.9981988
 115.7840686 113.7659857  93.0094046 114.6511354 116.3300997  83.6242061
 114.5262493 115.5290736  83.1153006 115.3090445 116.8247190  83.1356031
 116.7146262 114.1310017  85.2521611 115.7676598 114.0115368  85.1799937
 117.0629035 113.2432515  85.3347872 113.7192696 113.9262733  81.4525963
 113.5717658 112.9979440  81.6333533 114.5446189 113.9482824  80.9683038
 117.3226817 114.7491292  82.5390836 118.2473365 114.5434153  82.4015287
 117.1542121 114.5007693  83.4480177 117.1122134 115.2676959  77.8952927
 117.2859011 114.7023382  77.1426780 117.6051025 116.0677854  77.7132417
 122.9661525 108.0313382  79.5143227 123.4092671 107.2820707  79.1162350
 122.0888035 108.0223518  79.1316959 118.0997306 114.5843724  74.9949825
 118.7948211 115.2050416  75.2137140 118.4420456 113.7339075  75.2702203
 119.9988729 112.0343429  76.5237156 120.5240053 112.3730702  75.7986476
 119.9111082 111.0990444  76.3400291 111.6608778 115.9477503  88.6527033
 111.9695904 115.7026649  89.5249732 112.4584260 116.1524141  88.1645903
 111.6829390 118.1015412  80.8832409 111.2434380 117.6091791  81.5765266
 112.4337507 117.5588380  80.6424485 119.6882635 112.6676333  91.8288354
 118.8978179 112.6500472  91.2892854 119.4515990 113.2064626  92.5837391
 119.8080510 109.5168799  89.1421083 119.8578515 109.3518807  90.0836605
 119.6994434 108.6496058  88.7518963 117.0984273 105.4999727  90.4580389
 117.9994135 105.3606192  90.1664387 117.1732247 105.6654182  91.3978567
 121.3098707 111.9365741  89.3863104 121.0183515 112.2995721  90.2226565
 120.6970838 111.2232749  89.2076436 122.5094389 109.5018620  81.9065674
 123.3441281 109.9408424  82.0703235 122.6453518 109.0257274  81.0873920
 119.5585895 107.0598355  87.8543162 120.0340017 107.2526002  87.0462014
 118.6351461 107.1157541  87.6086546 114.1366112  99.0946199  86.8198996
 114.6548056  99.8307226  86.4945485 113.7821245  99.4010192  87.6545755
 118.2587564 103.9364115  86.0871468 119.2104987 104.0362213  86.1083692
 118.0891015 103.1442384  86.5969552 116.2801944 101.0219699  86.2730869
 115.6851876 101.3024711  85.5777357 115.9951641 101.5113599  87.0447610
 115.4109434 114.9742625  75.0333501 116.3440107 114.9088187  75.2366377
 115.3232647 115.8098892  74.5748034 118.0397451 114.2908496  71.9937449
 117.9611083 113.9568359  72.8873207 118.8607118 114.7830264  71.9928921
 120.7375642 107.1570235  85.2013767 120.7051962 106.2186236  85.3873451
 121.3476266 107.2354272  84.4679592 120.8870131 103.9481278  85.2472051
 120.3709179 103.1639735  85.0601980 121.7710079 103.6199995  85.4118570
 126.5552192 108.2186242  84.3419804 127.2855580 107.9571530  84.9027508
 125.9459138 107.4814964  84.3821872 124.6367489 106.3594104  84.9394255
 123.9100653 106.2250069  84.3310747 124.2214776 106.6670933  85.7450974
 112.4597666 110.0784034  92.7041628 113.3800675 110.2562633  92.8981675
 112.4247249 109.1340079  92.5521328 119.8172725 101.8678337  81.2353746
 120.5933116 102.3574790  81.5078363 119.0920860 102.2936392  81.6925616
 122.2545284 102.5805957  82.2927687 122.8489775 102.3401693  81.5820995
 122.3271868 101.8613087  82.9201223 115.6101403 111.6076491  71.6147427
 116.3137253 111.8126494  72.2305083 114.8864052 112.1753253  71.8796511
 124.5616357 105.8872157  81.0671108 124.0015915 105.9565347  81.8402670
 123.9559860 105.7113142  80.3470604 117.5188100 112.0459020  73.6645887
 118.3533704 111.6140219  73.4823362 117.3572443 111.8741034  74.5922782
 117.1733992 108.5491134  75.0302227 117.1182796 108.3835405  74.0890671
 116.5480048 109.2567167  75.1864416 114.4879900 110.8540045  94.3555789
 115.3571059 111.0280698  93.9942424 114.0086651 111.6734462  94.2331519
 108.6566080 117.9737146  86.0345223 109.5593326 118.0060757  86.3511718
 108.4303450 117.0437597  86.0491559 110.4119682 116.7268133  82.6955302
 109.4615313 116.7269995  82.5819674 110.7152168 115.9800868  82.1791336
 126.1472375 122.5628671  83.7601064 126.7850785 122.4435419  83.0564404
 126.0293218 123.5109515  83.8189016 122.9562082 122.5156100  83.6962589
 122.6180593 122.3997164  82.8083124 123.8251850 122.1147265  83.6763595
 118.8148897 124.3691576  79.6859480 118.2513762 124.2781513  78.9175767
 118.7001292 123.5491480  80.1661972 123.4381865 123.6690951  89.6548794
 123.4270505 123.2743750  88.7829298 123.6002504 122.9357024  90.2482566
 116.3613329 125.8642768  82.5243700 117.1534621 125.5233592  82.1089999
 116.6009979 125.9737743  83.4445853 118.3204083 125.1251681  75.3961079
 119.0934959 124.5780668  75.2573955 118.6729482 125.9895930  75.6075540
 120.1589126 126.4528063  88.6027978 119.8678992 127.3573694  88.4874644
 120.7946110 126.4944591  89.3172048 121.0845333 123.8304912  85.1929338
 121.6808905 123.6060934  84.4786301 121.1420304 123.0889657  85.7954786
 120.6570361 121.2844347  73.0279529 120.9095882 120.7625868  72.2662992
 119.7194920 121.1210492  73.1306212 125.7013644 120.2880125  80.8354272
 126.4876733 119.8699548  80.4844689 125.9652348 121.1926217  81.0035920
 131.1022071 120.2255358  81.7387251 131.8347243 119.6554575  81.9725080
 130.3461427 119.8376959  82.1793756 120.3766650 123.1872453  75.2303904
 120.2602908 122.5117356  75.8984988 120.4868910 122.7004827  74.4136057
 122.7198191 122.6482600  78.9350593 122.3556398 122.1213221  79.6463514
 123.5765307 122.2581069  78.7617078 128.6247491 113.9376933  86.1981859
 128.2930816 114.8072344  85.9743074 128.0293105 113.6213217  86.8775890
 122.3603678 117.6772500  73.9311942 122.5278080 118.5452736  74.2982413
 122.1700847 117.8399781  73.0073231 118.5691492 122.5903275  81.6314476
 117.6441989 122.4579489  81.8392168 118.8175905 123.3697495  82.1284419
 128.5176155 118.6572019  83.2775209 127.6093032 118.5887427  82.9833970
 128.4663750 119.1343964  84.1057035 122.3392898 120.1330157  74.9158608
 122.2192524 120.5787208  75.7544089 121.6445487 120.4815475  74.3572146
 115.9300303 122.2336549  82.4658265 116.0592684 122.4871028  83.3797677
 115.2497755 122.8264257  82.1462920 122.5917020 120.0761664  91.2210106
 121.8150354 120.6355584  91.2112971 123.2307583 120.5618447  91.7424977
 130.3837801 116.8588457  85.0553083 129.7412181 117.1520990  84.4092878
 129.8792729 116.7441377  85.8606280 128.0377965 120.6051630  75.7438942
 128.9495821 120.8379017  75.5686640 127.5287612 121.1888675  75.1814021
 120.8463393 122.8847118  90.7828073 121.5878077 123.4232162  90.5062897
 120.1400378 123.5113406  90.9399625 126.3218732 125.0276258  89.3800235
 126.7302088 124.5858669  88.6354867 125.5995994 124.4528886  89.6334428
 122.6749802 119.9648865  86.7533792 123.5210998 120.3888278  86.8968441
 122.6148440 119.3082489  87.4472355 125.8249248 117.6253233  88.4114966
 125.5810180 118.3795294  87.8749241 126.1009178 118.0038581  89.2462213
 125.3813939 116.7809666  83.9928803 124.5198418 117.0790920  84.2845541
 125.4076374 116.9980065  83.0609836 122.1975509 125.3251857  80.4002609
 122.6613854 125.6039560  79.6107231 121.9332307 124.4235301  80.2175700
 119.0899590 124.8723338  83.3382372 119.6600947 125.3010607  82.6999857
 119.6807702 124.5905923  84.0366558 121.1344395 121.4475009  77.2092174
 121.8368438 121.8996053  77.6766100 120.8025023 120.8058828  77.8372067
 119.5824756 120.0386766  91.5843383 118.9523417 120.7203047  91.8178780
 119.4760844 119.9269847  90.6396522 114.8769729 119.7058562  82.5109308
 114.0868783 119.9616090  82.0349418 115.3680976 120.5206900  82.6161348
 116.8284474 120.0703141  79.4692784 116.0315637 120.1821835  79.9876280
 116.6010066 120.4089793  78.6033675 122.6590142 126.5947844  87.4175299
 122.7234574 127.0568252  88.2533471 121.9501066 125.9645209  87.5457609
 113.1607432 119.9589052  84.9424298 113.4115470 120.8436062  85.2081874
 113.6966980 119.7793654  84.1699390 118.8605499 114.3407532  93.9468635
 118.4672445 113.7873730  94.6216279 119.6771639 114.6518110  94.3375152
 115.8267557 125.7791390  77.8582204 116.3392077 126.5734640  78.0087769
 116.4790270 125.0817680  77.7915806 117.6362442 128.8957146  79.9404958
 117.8129070 129.8175111  79.7525941 118.4319275 128.5815565  80.3699337
 121.7773460 115.7565411  91.5388891 122.5183173 116.3572564  91.4593354
 122.0091383 115.0143049  90.9806934 116.9214798 120.9421778  89.8167121
 116.8068313 120.0407035  90.1174220 116.0659316 121.1885475  89.4651937
 118.7593757 130.4135320  85.9415300 119.3101182 130.2852383  85.1692294
 117.9205233 130.7130209  85.5910193 122.5560928 126.6786448  90.2859531
 123.0889265 125.9174736  90.0558839 122.0275009 126.3860100  91.0283685
 125.7230623 111.7846514  85.8153173 125.3794892 112.6748155  85.7392283
 126.0909586 111.5948171  84.9522758 113.7916474 124.1080044  78.6341775
 114.6291696 124.5177053  78.4175483 113.9694741 123.1679486  78.6041969
 125.6880906 121.7755125  74.3225608 125.1727529 122.5459729  74.5613995
 125.4158214 121.1020261  74.9458669 123.2728017 116.6204826  79.3810846
 122.4169613 116.2311676  79.2016485 123.6854969 116.6996786  78.5210632
 124.8027163 114.1551169  83.7802406 124.2991959 114.1181304  82.9670211
 125.0957770 115.0643912  83.8399063 121.0470049 114.2389899  82.7868588
 121.9123046 114.0432707  82.4274477 121.1147558 114.0100250  83.7137944
 125.4767209 119.6482217  76.1485389 125.1717345 119.9628366  76.9995532
 126.4297651 119.7263637  76.1912722 123.9213641 125.8072440  77.7978343
 123.3935002 125.0725200  77.4851580 123.4201144 126.5847117  77.5518311
 118.6532368 116.4692107  80.1584955 119.2276120 116.2467288  79.4258147
 119.2403351 116.5380801  80.9113556 127.7111946 122.3565833  80.9649331
 128.2243827 122.9895825  81.4671041 128.3613169 121.7567029  80.5992691
 118.9801956 118.4996568  74.1780840 118.1439268 118.8371254  74.4990115
 118.8406725 118.3645547  73.2407977 120.9555036 113.3433355  78.8860024
 120.3019448 113.0282373  78.2616639 120.9135510 112.7209096  79.6119847
 122.0666241 123.6252651  70.8013316 121.1593303 123.3941904  71.0004465
 122.5637273 122.8290270  70.9887298 124.1892776 119.8315289  83.2107672
 123.2715338 120.0530236  83.0529360 124.6052920 119.9061599  82.3519379
 124.9727824 121.2306705  78.3410352 125.7199643 121.7428102  78.0317474
 125.2419414 120.9090757  79.2014745 123.2454474 123.7265245  75.3237306
 122.3365694 123.4424278  75.4209776 123.2749558 124.1464324  74.4640613
 127.4206661 118.2663821  80.3229141 126.6829418 117.7541207  80.6539384
 127.6733435 117.8264203  79.5112418 127.5218289 111.0440073  80.9170910
 127.8277166 110.1837436  80.6296826 128.2470894 111.6357693  80.7169904
 113.8142645 121.4470760  79.3052508 113.6167045 120.8540120  78.5803575
 113.2589309 121.1422970  80.0228447 121.7939368 121.3393866  81.4247102
 121.8487978 120.3867702  81.3489578 120.9830570 121.4953305  81.9088400
 122.9430562 125.2673989  72.6625385 122.5049992 124.5509848  72.2031022
 123.6841003 125.4950104  72.1010476 119.7331728 119.9570926  79.1837480
 118.9199594 120.2565096  79.5902673 120.2290723 119.5626615  79.9011963
 125.3305940 120.4212750  88.0152374 125.6855328 120.6484223  88.8746840
 125.9778071 120.7531127  87.3929630 119.2245803 117.5289281  84.7998715
 119.8645182 117.3878040  84.1021679 118.3923334 117.2423795  84.4237317
 120.0006107 126.8291712  80.9133708 120.7946706 126.3342032  80.7116283
 119.2897799 126.3009575  80.5501413 116.3088870 120.9734793  76.9893460
 115.3786459 120.9119249  77.2063423 116.4046342 120.4510746  76.1930102
 116.2274420 117.4989606  79.5771702 116.4881237 118.4134939  79.4680863
 117.0491592 117.0314049  79.7268315 117.6999345 118.9127363  86.7470527
 118.3722398 118.7044726  86.0983176 116.8729131 118.7149449  86.3075759
 123.6024917 115.5389304  88.7636188 122.9552832 116.2379254  88.6700664
 124.3725932 115.9725448  89.1312436 123.7789051 123.3770069  86.8233007
 124.7081111 123.5281229  86.6501975 123.3580081 123.4654090  85.9681654
 122.5777383 127.4020734  84.5931545 122.4388469 127.0339518  85.4657483
 121.7891979 127.9168373  84.4215503 124.1282598 126.7802336  81.9820383
 123.7932431 126.7403106  82.8778033 123.6286544 126.1147052  81.5090793
 118.1026842 122.1869966  87.5072964 117.9646640 121.4550205  88.1084503
 119.0131766 122.0978866  87.2257152 127.0641790 124.1258371  72.2557442
 126.4470960 123.4005199  72.1590495 126.5958278 124.8867731  71.9124517
 120.7309143 121.8989926  86.9956643 121.4408761 121.2583118  86.9543262
 120.6878451 122.1502821  87.9182824 119.4438077 118.8855144  88.8152283
 118.9075434 118.4345882  89.4673879 118.8554785 119.0201052  88.0722747
 118.8540336 118.3443795  71.3778747 117.9769802 118.2232596  71.0140993
 119.3298089 117.5529873  71.1257635 110.3742476 123.1320955  81.4720254
 111.0613516 122.8182685  80.8841269 110.2190605 124.0362319  81.1987505
 115.1777198 118.0211151  85.9005277 115.0935387 117.4136821  85.1655687
 114.3559904 118.5120170  85.9014774 125.3500912 116.5064715  81.2675472
 125.8469611 115.7534677  80.9476543 124.5787893 116.5429031  80.7018682
 126.4330693 125.2636402  78.8413896 125.4986971 125.3837865  78.6718600
 126.6107361 124.3608869  78.5773906 121.9335881 118.6482098  80.9947157
 121.5633668 118.0953138  81.6828063 122.4294973 118.0440231  80.4422157
 129.8203244 121.1053721  79.3763930 130.2863696 121.9381713  79.3024233
 130.2710744 120.6398703  80.0809189 127.7919907 113.4734308  83.4154831
 126.8782986 113.7038535  83.5837038 128.2213008 113.5572752  84.2668864
 127.5626365 121.6624200  85.9154725 126.9097815 121.9100108  85.2607178
 127.9406745 120.8488338  85.5817203 123.6113938 122.4044011  92.4020762
 122.9354575 122.3038141  93.0723138 124.4341572 122.2483225  92.8656760
 115.3592797 128.6415948  85.0233278 115.9446234 127.8959636  85.1561182
 115.1617636 128.9519905  85.9069942 109.9510452 121.2121548  83.7437721
 109.9894552 120.6785139  84.5374839 109.4450745 120.6856754  83.1248698
 117.3301214 116.0586089  87.2400263 117.3942541 116.9200919  86.8277661
 117.2668335 115.4460090  86.5072622 116.8053487 118.1309221  90.8873297
 117.4325526 117.7486298  91.5010822 115.9481406 117.9123423  91.2528990
 113.5819030 119.9385650  76.8191652 113.8772471 119.0296329  76.7658706
 112.6807065 119.9173390  76.4972655 117.1113277 118.0141647  82.8019201
 116.3899862 118.6277615  82.6626674 117.9006532 118.5499412  82.7235847
 119.9139590 115.3496073  89.0759853 120.4373992 115.5958370  89.8386162
 119.6951923 116.1816108  88.6562990 115.3106871 117.6199748  76.9430977
 114.9819577 116.7397127  76.7606083 115.6646242 117.5647417  77.8307367
 118.4248694 117.9072718  77.3106455 118.7644767 118.4358639  76.5885063
 118.8720815 118.2453124  78.0865022 121.1192135 116.2909768  86.7609523
 120.7788956 115.4917581  87.1630203 120.4131141 116.5911479  86.1886356
 121.7708607 113.3759081  85.2136846 122.5934676 112.9019559  85.0915736
 122.0146670 114.1549565  85.7135532 120.4116841 116.4047339  75.5099748
 121.1325204 116.7828592  75.0063465 119.7882146 117.1236216  75.6134726
 124.5547964 117.1092488  76.4458080 124.7711579 117.9917126  76.1446908
 124.0742031 116.7178702  75.7163722 119.2947186 120.0678201  83.0228825
 119.1491766 120.3818505  83.9153106 118.8172389 120.6863102  82.4699723
 121.1543569 117.0580749  83.0709714 121.1405137 116.1621843  82.7342012
 121.8715997 117.0651413  83.7048000 123.0069699 117.4918090  85.1162842
 122.7487477 118.4135160  85.1147172 122.4754740 117.0948524  85.8063306
 113.7692848 122.6083546  85.9616486 113.2246316 123.3843354  86.0936760
 114.6472198 122.9554350  85.8035607 120.5580465 115.9395130  78.3397284
 120.6796376 115.0111776  78.5388172 120.2682507 115.9533816  77.4275600
 123.4271655 113.6250040  81.4764004 123.4493352 113.6889373  80.5215984
 123.8439714 112.7854549  81.6704510 114.5558870 121.7353442  88.8546643
 113.8140606 121.8836078  89.4411273 114.2351614 121.9961708  87.9913392
 115.0015483 129.6218871  80.8857037 115.8273503 129.3222643  80.5055681
 114.6509535 128.8526493  81.3346826 119.9697017 128.9745339  82.9554711
 119.3477026 128.3116044  82.6556939 120.6401883 129.0006471  82.2728359
 113.2024088 127.5405197  81.8445971 112.3655997 127.1127372  81.6629972
 113.1747734 127.7337641  82.7816762 120.0421544 117.4527127  92.5487217
 120.0909700 118.3289250  92.1664987 120.5844058 116.9104520  91.9758860
 119.5310523 127.5249262  76.4313172 119.6798644 128.2084727  75.7779844
 120.3376967 127.5054353  76.9462627 127.9378027 120.8291645  90.4580389
 128.8387890 120.6898110  90.1664387 128.0126002 120.9946100  91.3978567
 122.2720833 118.2058500  89.3033576 121.4024142 118.4992066  89.0316164
 122.5080313 118.7898945  90.0240839 117.2863156 123.5514440  77.4374240
 117.0409198 122.6476770  77.6354451 117.4559071 123.5531591  76.4953718
 124.9759866 114.4238116  86.8198996 125.4941810 115.1599143  86.4945485
 124.6214999 114.7302110  87.6545755 116.5558804 119.2842798  74.9360402
 115.8628049 119.3587153  74.2800438 116.3110556 118.5203141  75.4581919
 125.2272461 110.8438399  82.3399893 125.5074214 110.1761588  82.9660319
 126.0123067 111.0367495  81.8274557 129.0981319 119.2656033  86.0871468
 130.0498742 119.3654131  86.1083692 128.9284769 118.4734302  86.5969552
 127.1195698 116.3511616  86.2730869 126.5245630 116.6316629  85.5777357
 126.8345395 116.8405517  87.0447610 123.4152728 121.3558206  71.2440972
 124.3611832 121.2264414  71.3129390 123.0366972 120.6172868  71.7210400
 131.7263885 119.2773196  85.2472051 131.2102934 118.4931653  85.0601980
 132.6103834 118.9491913  85.4118570 129.3874612 113.0214212  81.2067863
 129.1899433 112.7129300  82.0911195 129.9974318 113.7475851  81.3365793
 123.2991420 125.4075952  92.7041628 124.2194430 125.5854551  92.8981675
 123.2641003 124.4631997  92.5521328 121.5995645 119.2808182  71.1795857
 120.6927100 118.9841295  71.2558570 121.8771626 118.9838000  70.3130143
 112.5173585 120.6014545  81.6294903 112.1976369 119.7479854  81.3369277
 111.9707013 120.8163124  82.3852870 116.2953493 123.3176986  85.3464410
 116.5139502 124.2494094  85.3652443 116.7079266 122.9584961  86.1319213
 123.2157710 113.8245072  77.3340098 122.4058439 113.4792157  77.7095344
 123.9042127 113.5152615  77.9227710 125.1448259 112.9023119  78.9564395
 125.6979297 113.3218572  79.6154418 125.3818345 111.9758867  78.9987351
 121.1681358 118.8910192  94.7367159 121.0678085 119.8404549  94.6679250
 120.9502900 118.5628431  93.8643229 120.3694429 116.1395117  71.3207836
 121.2313593 116.4650016  71.5803653 120.5544773 115.3526613  70.8080902
 112.3861845 124.2217457  83.5988025 111.6925316 123.8071410  83.0857979
 113.1334836 124.2637993  83.0021444 128.5227066 115.0123644  78.4643059
 127.9425735 115.6708448  78.0821111 128.2562998 114.1900988  78.0530476
 126.9730632 114.4128701  80.6664379 127.4730411 114.5245236  79.8578698
 127.6166240 114.1089754  81.3065188 121.0312628 122.3207331  93.5532220
 120.5479710 123.1207691  93.7596109 121.1173567 122.3315276  92.5999664
 114.2998588 124.1535711  81.4754040 114.2769276 124.2523398  80.5235923
 114.6099224 125.0000862  81.7971206 116.9585965 126.2111866  85.5900654
 117.9129219 126.1795808  85.5230586 116.7598489 125.7502489  86.4050880
 117.5485348 124.7812982  88.1571452 118.3678237 125.2757060  88.1806289
 117.8222155 123.8644950  88.1289019 127.3051944 117.1723734  77.5199407
 126.4177799 117.4573385  77.3019602 127.7205933 117.0117497  76.6726684
 130.6566480 117.1970255  81.2353746 131.4326870 117.6866708  81.5078363
 129.9314614 117.6228309  81.6925616 133.0939039 117.9097874  82.2927687
 133.6883529 117.6693610  81.5820995 133.1665622 117.1905005  82.9201223
 115.3136194 131.7531485  82.6070852 115.1790662 130.9931886  82.0408850
 114.8968257 132.4772385  82.1399641 127.2792968 122.6878270  77.7349697
 127.2228169 123.1446821  76.8957330 127.8321310 121.9268955  77.5572540
 131.0897773 118.4768002  78.5599817 130.8334708 118.0764638  79.3908025
 130.4650641 119.1911796  78.4349956 128.0127747 123.8783051  75.0302227
 127.9576551 123.7127323  74.0890671 127.3873802 124.5859084  75.1864416
 112.8020262 119.1151116  88.8563649 113.4479125 118.6050070  89.3450874
 112.5937413 119.8519797  89.4307074 121.3223872 113.3791160  74.6087545
 121.3102542 114.3233000  74.7655816 122.2147294 113.1961306  74.3147006
 125.1375992 109.9733937  78.8633482 124.3708388 109.4192424  79.0090164
 125.5486697 110.0455806  79.7247633 117.1417753 116.2618733  92.9538663
 118.0049214 115.9055538  93.1641988 116.5683163 115.9232628  93.6414067
  50.2716095  -7.7352630  70.4846371  50.9094505  -7.8545882  69.7809711
  50.1536938  -6.7871786  70.5434323  47.0805801  -7.7825202  70.4207895
  46.7424313  -7.8984137  69.5328430  47.9495570  -8.1834037  70.4008901
  42.9392617  -5.9289725  66.4104786  42.3757482  -6.0199788  65.6421074
  42.8245012  -6.7489821  66.8907279  47.5625584  -6.6290350  76.3794101
  47.5514225  -7.0237552  75.5074605  47.7246224  -7.3624277  76.9727872
  40.4857049  -4.4338534  69.2489007  41.2778341  -4.7747709  68.8335306
  40.7253699  -4.3243559  70.1691160  48.5192176  -2.2618758  61.7219251
  47.8680156  -1.6764677  61.3353265  49.3136539  -1.7312563  61.7814289
  42.4447803  -5.1729620  62.1206386  43.2178679  -5.7200633  61.9819261
  42.7973202  -4.3085371  62.3320847  44.2832846  -3.8453238  75.3273285
  43.9922711  -2.9407607  75.2119951  44.9189830  -3.8036710  76.0417354
  45.2089052  -6.4676390  71.9174644  45.8052625  -6.6920367  71.2031607
  45.2664024  -7.2091644  72.5200092  44.7814081  -9.0136954  59.7524835
  45.0339601  -9.5355433  58.9908298  43.8438640  -9.1770809  59.8551519
  49.9967441  -4.5728326  62.2588235  49.3613274  -4.4993699  62.9709140
  49.6664847  -3.9834727  61.5807315  44.5010370  -7.1108848  61.9549210
  44.3846628  -7.7863945  62.6230295  44.6112629  -7.5976474  61.1381363
  46.8441910  -7.6498701  65.6595900  46.4800118  -8.1768080  66.3708821
  47.7009026  -8.0400232  65.4862385  49.2422731  -4.1591823  72.3223079
  48.9423454  -3.2566784  72.2138886  48.8973790  -4.4259639  73.1744231
  42.6935212  -7.7078026  68.3559783  41.7685709  -7.8401812  68.5637475
  42.9419625  -6.9283807  68.8529725  46.4636618 -10.1651144  61.6403915
  46.3436243  -9.7194093  62.4789395  45.7689207  -9.8165826  61.0817453
  44.2243510   2.6052498  65.2894046  44.1467540   3.5560323  65.3682527
  43.6205154   2.2598370  65.9468973  46.7160740 -10.2219637  77.9455413
  45.9394074  -9.6625717  77.9358278  47.3551303  -9.7362854  78.4670283
  44.9707112  -7.4134183  77.5073380  45.7121797  -6.8749139  77.2308204
  44.2644098  -6.7867895  77.6644932  50.4462452  -5.2705043  76.1045542
  50.8545808  -5.7122632  75.3600174  49.7239714  -5.8452415  76.3579734
  46.7993522 -10.3332436  73.4779099  47.6454717  -9.9093023  73.6213748
  46.7392160 -10.9898812  74.1717662  50.7691267  -4.7103852  69.8597830
  50.1400129  -4.5458138  69.1573898  50.3816929  -4.2962243  70.6308795
  54.6480499  -3.7749415  67.2142194  53.9631537  -3.3950513  66.6639228
  54.7324348  -3.1654088  67.9474142  51.9031430  -6.1289455  73.8137538
  52.1148326  -5.4857696  73.1371919  51.8561179  -6.9627139  73.3459468
  46.3219229  -4.9729444  67.1247916  46.7857574  -4.6941741  66.3352538
  46.0576027  -5.8746000  66.9421006  43.2143310  -5.4257963  70.0627679
  43.7844667  -4.9970694  69.4245163  43.8051422  -5.7075378  70.7611864
  45.2588115  -8.8506292  63.9337481  45.9612158  -8.3985248  64.4011407
  44.9268743  -9.4922473  64.5617374  53.0177258  -3.2517500  71.9859895
  53.8394702  -3.6537313  71.7042577  53.0139661  -3.3549266  72.9376011
  46.7833862  -3.7033457  74.1420606  46.8478294  -3.2413050  74.9778777
  46.0744786  -4.3336092  74.2702915  46.4981879  -2.0365349  64.0099586
  46.3627554  -1.1913814  64.4384434  47.0391692  -1.8346072  63.2465520
  39.9511277  -4.5189911  64.5827511  40.4635797  -3.7246661  64.7333076
  40.6033990  -5.2163621  64.5161112  41.7606161  -1.4024155  66.6650264
  41.9372790  -0.4806190  66.4771248  42.5562995  -1.7165736  67.0944644
  48.1250356  -1.4141783  78.1399928  47.6814210  -2.2005404  77.8220833
  48.7867569  -1.2262632  77.4743819  42.8837477   0.1154019  72.6660607
  43.4344902  -0.0128918  71.8937600  42.0448953   0.4148908  72.3155499
  50.2231594  -1.1338983  76.1681329  50.2050069  -0.3130102  75.6761598
  51.1451514  -1.2584908  76.3931470  46.6804648  -3.6194853  77.0104838
  47.2132985  -4.3806565  76.7804146  46.1518729  -3.9121202  77.7528992
  49.8124626  -8.5226176  61.0470915  49.2971249  -7.7521572  61.2859302
  49.5401934  -9.1961040  61.6703976  54.7858900  -5.7693822  62.9824088
  54.0088343  -6.1082662  62.5379250  55.4650381  -5.7641198  62.3079053
  48.0457361  -4.4908861  64.5223650  47.5178722  -5.2256101  64.2096887
  47.5444863  -3.7134185  64.2763618  53.0250207  -6.2959840  69.6390696
  52.3673881  -5.6060579  69.7270825  53.8290606  -5.9063408  69.9824682
  51.8355665  -7.9415468  67.6894638  52.3487547  -7.3085476  68.1916347
  52.4856889  -8.5414272  67.3237998  46.1909961  -6.6728651  57.5258623
  45.2837023  -6.9039397  57.7249772  46.6880993  -7.4691031  57.7132604
  49.0978040   2.0368857  60.4455309  48.4239738   2.3400553  61.0540267
  49.4843862   2.8397937  60.0960766  48.3136496 -10.4666012  69.9352978
  47.3959058 -10.2451065  69.7774666  48.7296640 -10.3919702  69.0764686
  49.0971544  -9.0674596  65.0655659  49.8443363  -8.5553199  64.7562781
  49.3663134  -9.3890544  65.9260052  47.3698194  -6.5716056  62.0482613
  46.4609413  -6.8557023  62.1455083  47.3993278  -6.1516977  61.1885920
  52.6017462  -2.9609466  65.8173780  52.1479789  -3.8018556  65.8738971
  51.9711428  -2.3248068  66.1548561  51.0450401  -1.1232970  66.7523598
  51.3373375  -0.5627912  66.0335964  51.5549021  -0.8304409  67.5076758
  45.9183088  -8.9587435  68.1492408  45.9731698  -9.9113599  68.0734885
  45.1074290  -8.8027996  68.6333707  47.0674282  -5.0307312  59.3870691
  46.6293712  -5.7471453  58.9276329  47.8084723  -4.8031197  58.8255783
  46.0084026  -0.3452618  67.8417052  45.9660205  -0.1191772  66.9125584
  46.9246725  -0.5789244  67.9902853  49.4549660  -9.8768551  74.7397681
  49.8099048  -9.6497078  75.5992147  50.1021791  -9.5450174  74.1174936
  55.1847397  -6.7550115  65.4447010  55.0465295  -6.5648519  64.5168199
  54.8283616  -5.9930732  65.9015061  55.2116776  -4.6873588  70.4558281
  55.6453283  -4.7798299  71.3041335  55.9248357  -4.7116088  69.8178297
  44.1249827  -3.4689589  67.6379014  44.9190425  -3.9639269  67.4361589
  43.4141519  -3.9971726  67.2746720  48.9444671  -1.0871494  71.9891382
  48.9981694  -0.5180558  72.7569098  48.0759453  -0.9169609  71.6245419
  56.0732326  -4.6449887  72.9891167  56.2668216  -3.7404077  73.2350442
  55.9732944  -5.1042468  73.8229752  51.1347435  -4.4943145  78.5632047
  50.9832941  -4.7232593  77.6462131  51.1252114  -3.5372543  78.5763392
  47.9032771  -6.9211232  73.5478314  48.8324831  -6.7700072  73.3747281
  47.4823801  -6.8327211  72.6926960  46.7021103  -2.8960567  71.3176852
  46.5632189  -3.2641783  72.1902790  45.9135699  -2.3812928  71.1460809
  47.2969255   2.2048529  62.6602388  47.4721011   1.7336572  63.4748011
  46.6102043   2.8314295  62.8883649  48.2526318  -3.5178965  68.7065689
  47.9176151  -3.5578195  69.6023339  47.7530264  -4.1834249  68.2336100
  42.2270562  -8.1111335  74.2318270  42.0890360  -8.8431096  74.8329810
  43.1375485  -8.2002435  73.9502458  51.1885510  -6.1722930  58.9802749
  50.5714680  -6.8976102  58.8835802  50.7201998  -5.4113570  58.6369823
  44.8552863  -8.3991375  73.7201950  45.5652481  -9.0398183  73.6788569
  44.8122171  -8.1478481  74.6428131  52.8439641  -1.4624022  76.6408529
  52.7852187  -2.1464802  75.9739112  53.2459160  -0.7205032  76.1889155
  41.8630340   5.3537892  69.4342248  42.1026938   5.9856416  70.1121267
  41.0199537   5.0025932  69.7207607  52.8457049  -3.4984438  74.8722509
  51.9583827  -3.8358516  74.9948908  53.4155600  -4.2301407  75.1091274
  46.3758202   1.1617014  71.8383752  46.3028373   1.9671986  72.3503057
  45.9335595   1.3608980  71.0131774  46.1647982   0.3988784  65.3486574
  45.3815503   0.9410464  65.4424798  46.8640727   0.9162764  65.7480815
  48.8356885   1.0603848  73.9941911  49.5484858   1.6951313  73.9217812
  48.3446914   1.1567714  73.1781913  50.5574412  -5.0344899  65.5659203
  49.6230691  -4.9143437  65.3963907  50.7351081  -5.9372432  65.3019212
  43.8868799  -1.1901708  74.8147482  44.5878259  -0.5565225  74.9676876
  43.4163914  -0.8486977  74.0543121  52.0123195  -2.8483759  63.0995389
  52.2883039  -2.9627164  64.0089263  51.1427694  -3.2466274  63.0607562
  51.6870085  -8.6357101  72.6400032  51.0341535  -8.3881193  71.9852485
  52.0650465  -9.4492963  72.3062509  48.6477259   1.4002592  66.7428202
  48.8299653   0.5824248  67.2055955  49.4710245   1.6170285  66.3053092
  48.9819424   0.3270777  64.0043251  49.5107191  -0.1836768  63.3913413
  49.2447644   0.0113308  64.8688784  47.7357658  -7.8937290  79.1266069
  47.0598295  -7.9943160  79.7968444  48.5585292  -8.0498076  79.5902066
  39.4836517  -1.6565353  71.7478584  40.0689954  -2.4021665  71.8806489
  39.2861356  -1.3461397  72.6315248  42.3375172   1.3785894  66.7641027
  41.6685548   1.8632022  66.2805067  42.1988042   1.6255115  67.6784405
  46.4780441   3.4129638  73.3623685  47.0298749   3.5761259  74.1272770
  46.8186634   4.0034075  72.6903710  51.3291315  -1.7609105  79.2172340
  51.8731219  -1.1479147  78.7227294  50.7478160  -1.2029526  79.7339353
  49.6148828   1.3611613  70.3487367  49.4899968   0.5601353  69.8398313
  50.2727919   1.8557807  69.8601337  51.6783737  -0.8379367  71.9766917
  50.7314072  -0.9574016  71.9045244  52.0266510  -1.7256869  72.0593179
  48.6830170  -1.0426651  68.1771270  48.5355132  -1.9709943  68.3578840
  49.5083663  -1.0206560  67.6928345  52.2864292  -0.2198092  69.2636142
  53.2110839  -0.4255230  69.1260593  52.1179595  -0.4681691  70.1725484
  52.0759608   0.2987576  64.6198234  52.2496485  -0.2666002  63.8672086
  52.5688499   1.0988471  64.4377724  53.0634780  -0.3845660  61.7195132
  53.7585685   0.2361033  61.9382447  53.4057931  -1.2350309  61.9947510
  54.9626204  -2.9345954  63.2482463  55.4877528  -2.5958682  62.5231783
  54.8748556  -3.8698939  63.0645597  46.6246252   0.9788119  75.3772339
  46.9333379   0.7337266  76.2495039  47.4221734   1.1834758  74.8891210
  46.6466864   3.1326029  67.6077716  46.2071855   2.6402408  68.3010573
  47.3974981   2.5898997  67.3669791  39.1259203  -0.6762430  67.6102344
  39.9517223  -0.9758658  67.2300988  38.7753255  -1.4454808  68.0592133
  44.0940736  -1.3235962  69.6800018  43.4720746  -1.9865257  69.3802246
  44.7645603  -1.2974830  68.9973665  37.3267808  -2.7576104  68.5691278
  36.4899717  -3.1853929  68.3875279  37.2991454  -2.5643660  69.5062069
  54.6520110  -2.3013051  78.5533661  53.8615653  -2.3188912  78.0138160
  54.4153464  -1.7624757  79.3082697  54.7717985  -5.4520584  75.8666389
  54.8215990  -5.6170577  76.8081912  54.6631908  -6.3193325  75.4764270
  43.6554243  -2.7732039  63.1558478  43.8042364  -2.0896574  62.5025151
  44.4620687  -2.7926949  63.6707934  56.2736181  -3.0323643  76.1108411
  55.9820990  -2.6693662  76.9471872  55.6608313  -3.7456635  75.9321743
  57.4731864  -5.4670763  68.6310981  58.3078755  -5.0280959  68.7948541
  57.6090993  -5.9432110  67.8119227  54.5223370  -7.9091028  74.5788469
  54.9977491  -7.7163382  73.7707320  53.5988935  -7.8531842  74.3331853
  41.4106876  -6.7466861  64.1619547  41.1652918  -7.6504531  64.3599757
  41.5802791  -6.7449711  63.2199025  47.1549649  -0.2783908  60.6270226
  46.5823616   0.3406279  60.1740698  47.7282443   0.2715453  61.1610148
  50.3746909   0.0053242  61.7578808  51.3077582  -0.0601196  61.9611683
  50.2870121   0.8409509  61.2993341  53.0034925  -0.6780888  58.7182756
  52.9248557  -1.0121024  59.6118513  53.8244592  -0.1859120  58.7174228
  47.5396447  -8.9423095  57.9686278  48.4855552  -9.0716887  58.0374696
  47.1610692  -9.6808434  58.4455706  47.4235140  -4.8905349  79.4286935
  48.3438149  -4.7126750  79.6226982  47.3884723  -5.8349304  79.2766634
  40.4197212  -6.9804315  72.0709716  40.6383222  -6.0487207  72.0897750
  40.8322986  -7.3396340  72.8564520  45.1556348  -7.9773970  80.2777527
  44.6723430  -7.1773610  80.4841416  45.2417287  -7.9666025  79.3244971
  38.4242307  -6.1445590  68.1999346  38.4012996  -6.0457903  67.2481229
  38.7342944  -5.2980440  68.5216512  41.0829685  -4.0869435  72.3145961
  42.0372939  -4.1185493  72.2475892  40.8842209  -4.5478812  73.1296187
  41.6729067  -5.5168319  74.8816758  42.4921956  -5.0224241  74.9051596
  41.9465875  -6.4336351  74.8534326  39.4379914   1.4550184  69.3316159
  39.3034382   0.6950585  68.7654157  39.0211976   2.1791084  68.8644947
  50.5738877  -3.3612892  58.3392734  51.2774727  -3.1562890  58.9550389
  49.8501526  -2.7936130  58.6041817  51.4036687  -7.6103031  64.4595004
  51.3471889  -7.1534480  63.6202636  51.9565030  -8.3712347  64.2817847
  42.5949040   2.3519501  69.5434601  42.4781424   3.2964934  69.4413291
  41.7741486   2.0493063  69.9320400  52.4825574  -2.9230363  60.3891194
  53.3171178  -3.3549165  60.2068669  52.3209917  -3.0948349  61.3168088
  52.1371467  -6.4198250  61.7547533  52.0820270  -6.5853978  60.8135977
  51.5117522  -5.7122217  61.9109723  49.4517374  -4.1149338  81.0801096
  50.3208533  -3.9408686  80.7187731  48.9724125  -3.2954921  80.9576825
  43.6203554   3.0047763  72.7590530  44.5230801   3.0371373  73.0757025
  43.3940924   2.0748214  72.7736865  45.3757156   1.7578750  69.4200608
  44.4252787   1.7580611  69.3064981  45.6789642   1.0111484  68.9036643
  61.1109850   7.5939288  70.4846371  61.7488260   7.4746035  69.7809711
  60.9930692   8.5420132  70.5434323  57.9199556   7.5466716  70.4207895
  57.5818067   7.4307781  69.5328430  58.7889324   7.1457881  70.4008901
  53.7786372   9.4002192  66.4104786  53.2151237   9.3092129  65.6421074
  53.6638767   8.5802097  66.8907279  58.4019339   8.7001568  76.3794101
  58.3907980   8.3054366  75.5074605  58.5639978   7.9667640  76.9727872
  51.3250804  10.8953384  69.2489007  52.1172095  10.5544209  68.8335306
  51.5647454  11.0048359  70.1691160  59.3585930  13.0673160  61.7219251
  58.7073910  13.6527241  61.3353265  60.1530293  13.5979355  61.7814289
  56.0482807   8.8615528  71.9174644  56.6446379   8.6371550  71.2031607
  56.1057778   8.1200274  72.5200092  55.6207835   6.3154963  59.7524835
  55.8733356   5.7936485  58.9908298  54.6832394   6.1521109  59.8551519
  60.6651118   5.3190742  67.5599579  61.4514207   4.9010165  67.2089996
  60.9289822   6.2236834  67.7281227  60.8361195  10.7563592  62.2588235
  60.2007028  10.8298219  62.9709140  60.5058602  11.3457191  61.5807315
  66.0659545   5.2565975  68.4632557  66.7984717   4.6865192  68.6970387
  65.3098901   4.8687575  68.9039063  55.3404124   8.2183069  61.9549210
  55.2240382   7.5427973  62.6230295  55.4506384   7.7315443  61.1381363
  57.6835665   7.6793216  65.6595900  57.3193872   7.1523837  66.3708821
  58.5402781   7.2891686  65.4862385  63.5884966  -1.0312451  72.9227166
  63.2568290  -0.1617040  72.6988381  62.9930579  -1.3476167  73.6021196
  57.3241152   2.7083116  60.6557248  57.4915554   3.5763353  61.0227719
  57.1338321   2.8710398  59.7318537  60.0816485  11.1700095  72.3223079
  59.7817208  12.0725134  72.2138886  59.7367545  10.9032278  73.1744231
  53.5328967   7.6213892  68.3559783  52.6079463   7.4890106  68.5637475
  53.7813380   8.4008111  68.8529725  63.4813629   3.6882635  70.0020516
  62.5730506   3.6198044  69.7079277  63.4301225   4.1654580  70.8302341
  57.3030373   5.1640774  61.6403915  57.1829998   5.6097824  62.4789395
  56.6082961   5.5126091  61.0817453  50.8937778   7.2647165  69.1903572
  51.0230159   7.5181644  70.1042984  50.2135229   7.8574873  68.8708227
  57.5554495   5.1072281  77.9455413  56.7787829   5.6666201  77.9358278
  58.1945058   5.5929064  78.4670283  65.3475275   1.8899074  71.7798390
  64.7049656   2.1831607  71.1338184  64.8430204   1.7751994  72.5851586
  63.0015439   5.6362247  62.4684249  63.9133295   5.8689634  62.2931947
  62.4925086   6.2199291  61.9059328  55.8100867   7.9157734  77.5073380
  56.5515551   8.4542778  77.2308204  55.1037852   8.5424023  77.6644932
  61.2856207  10.0586875  76.1045542  61.6939563   9.6169285  75.3600174
  60.5633468   9.4839502  76.3579734  57.6387277   4.9959481  73.4779099
  58.4848472   5.4198895  73.6213748  57.5785914   4.3393106  74.1717662
  61.6085021  10.6188065  69.8597830  60.9793884  10.7833779  69.1573898
  61.2210683  11.0329675  70.6308795  65.4874253  11.5542503  67.2142194
  64.8025291  11.9341405  66.6639228  65.5718102  12.1637830  67.9474142
  60.7886722   2.6563850  75.1360272  60.5447654   3.4105910  74.5994548
  61.0646652   3.0349197  75.9707519  62.7425185   9.2002462  73.8137538
  62.9542080   9.8434222  73.1371919  62.6954933   8.3664779  73.3459468
  60.3451414   1.8120283  70.7174110  59.4835893   2.1101536  71.0090847
  60.3713848   2.0290682  69.7855143  57.1612983  10.3562473  67.1247916
  57.6251329  10.6350176  66.3352538  56.8969781   9.4545918  66.9421006
  54.0537064   9.9033955  70.0627679  54.6238421  10.3321223  69.4245163
  54.6445176   9.6216540  70.7611864  56.0981869   6.4785626  63.9337481
  56.8005913   6.9306669  64.4011407  55.7662498   5.8369445  64.5617374
  54.5462231   5.0697382  78.3088690  53.9160891   5.7513663  78.5424087
  54.4398319   4.9580464  77.3641828  49.8407203   4.7369178  69.2354614
  49.0506257   4.9926707  68.7594725  50.3318451   5.5517516  69.3406655
  63.8571013  12.0774418  71.9859895  64.6788456  11.6754605  71.7042577
  63.8533416  11.9742652  72.9376011  51.7921949   5.1013758  66.1938091
  50.9953112   5.2132452  66.7121587  51.5647541   5.4400410  65.3278981
  48.1244906   4.9899669  71.6669605  48.3752945   5.8746679  71.9327181
  48.6604455   4.8104270  70.8944697  71.9477006   8.4213166  68.3344867
  71.1940714   7.8520564  68.1788871  72.0824547   8.3875831  69.2815501
  53.8242973  -0.6281852  80.6713941  53.4309919  -1.1815653  81.3461585
  54.6409114  -0.3171273  81.0620459  56.7410934   0.7876027  78.2634198
  57.4820648   1.3883180  78.1838660  56.9728857   0.0453665  77.7052240
  51.8852272   5.9732395  76.5412427  51.7705788   5.0717652  76.8419526
  51.0296790   6.2196091  76.1897244  58.9644110  13.9150135  78.1399928
  58.5207964  13.1286513  77.8220833  59.6261324  14.1029285  77.4743819
  61.0625348  14.1952935  76.1681329  61.0443824  15.0161816  75.6761598
  61.9845268  14.0707010  76.3931470  60.6868097  -3.1842870  72.5398479
  60.3432367  -2.2941228  72.4637590  61.0547060  -3.3741212  71.6768064
  48.7553948   9.1390661  65.3587082  49.5929170   9.5487669  65.1420789
  48.9332216   8.1990103  65.3287275  60.6518380   6.8065741  61.0470915
  60.1365004   7.5770346  61.2859302  60.3795689   6.1330878  61.6703976
  58.2365491   1.6515442  66.1056153  57.3807087   1.2622293  65.9261792
  58.6492443   1.7307403  65.2455938  59.7664638  -0.8138215  70.5047713
  59.2629433  -0.8508079  69.6915518  60.0595245   0.0954528  70.5644369
  56.0107524  -0.7299485  69.5113894  56.8760520  -0.9256676  69.1519784
  56.0785033  -0.9589133  70.4383251  65.6252654   9.5598096  62.9824088
  64.8482097   9.2209256  62.5379250  66.3044135   9.5650719  62.3079053
  60.4404683   4.6792833  62.8730696  60.1354819   4.9938983  63.7240839
  61.3935125   4.7574253  62.9158029  58.8851115  10.8383057  64.5223650
  58.3572477  10.1035816  64.2096887  58.3838618  11.6157733  64.2763618
  63.8643961   9.0332077  69.6390696  63.2067636   9.7231339  69.7270825
  64.6684360   9.4228509  69.9824682  53.6169843   1.5002723  66.8830261
  54.1913595   1.2777905  66.1503454  54.2040825   1.5691418  67.6358862
  62.6749420   7.3876450  67.6894638  63.1881302   8.0206442  68.1916347
  63.3250644   6.7877645  67.3237998  53.9439430   3.5307184  60.9026146
  53.1076742   3.8681871  61.2235421  53.8044199   3.3956164  59.9653283
  55.9192510  -1.6256028  65.6105331  55.2656923  -1.9407011  64.9861945
  55.8772985  -2.2480288  66.3365154  57.0303715   8.6563267  57.5258623
  56.1230777   8.4252521  57.7249772  57.5274747   7.8600886  57.7132604
  59.9371794  17.3660774  60.4455309  59.2633493  17.6692471  61.0540267
  60.3237616  18.1689855  60.0960766  59.1530251   4.8625906  69.9352978
  58.2352812   5.0840853  69.7774666  59.5690394   4.9372216  69.0764686
  59.9365299   6.2617321  65.0655659  60.6837117   6.7738718  64.7562781
  60.2056888   5.9401374  65.9260052  58.2091949   8.7575862  62.0482613
  57.3003168   8.4734895  62.1455083  58.2387033   9.1774940  61.1885920
  63.4411216  12.3682451  65.8173780  62.9873543  11.5273361  65.8738971
  62.8105183  13.0043850  66.1548561  62.3844136   3.2974437  67.0474448
  61.6466893   2.7851824  67.3784690  62.6370909   2.8574819  66.2357725
  62.4855763  -3.9249311  67.6416217  62.7914640  -4.7851947  67.3542132
  63.2108368  -3.3331690  67.4415211  48.7780119   6.4781376  66.0297815
  48.5804519   5.8850737  65.3048882  48.2226783   6.1733586  66.7473754
  56.7576843   6.3704483  68.1492408  56.8125453   5.4178319  68.0734885
  55.9468045   6.5263922  68.6333707  57.9068037  10.2984606  59.3870691
  57.4687466   9.5820465  58.9276329  58.6478477  10.5260720  58.8255783
  54.6969203   4.9881542  65.9082787  53.8837068   5.2875713  66.3147979
  55.1928197   4.5937231  66.6257269  60.2943414   5.4523367  74.7397681
  60.6492802   5.6794840  75.5992147  60.9415546   5.7841744  74.1174936
  66.0241151   8.5741803  65.4447010  65.8859050   8.7643399  64.5168199
  65.6677370   9.3361185  65.9015061  54.1883277   2.5599898  71.5244022
  54.8282657   2.4188657  70.8266985  53.3560808   2.2734411  71.1482624
  66.0510531  10.6418330  70.4558281  66.4847038  10.5493619  71.3041335
  66.7642112  10.6175830  69.8178297  51.2726345   6.0045410  63.7138767
  50.3423933   5.9429865  63.9308729  51.3683817   5.4821363  62.9175408
  51.1911894   2.5300223  66.3017009  51.4518711   3.4445556  66.1926169
  52.0129066   2.0624665  66.4513622  52.6636819   3.9437980  73.4715833
  53.3359873   3.7355342  72.8228482  51.8366606   3.7460066  73.0321066
  66.9126080  10.6842030  72.9891167  67.1061971  11.5887841  73.2350442
  66.8126699  10.2249449  73.8229752  58.5662391   0.5699921  75.4881494
  57.9190306   1.2689871  75.3945971  59.3363407   1.0036065  75.8557742
  61.9741189  10.8348773  78.5632047  61.8226696  10.6059325  77.6462131
  61.9645869  11.7919374  78.5763392  58.7426526   8.4080686  73.5478314
  59.6718586   8.5591845  73.3747281  58.3217556   8.4964707  72.6926960
  53.0664316   7.2180583  74.2318270  52.9284114   6.4860822  74.8329810
  53.9769240   7.1289483  73.9502458  62.0279264   9.1568987  58.9802749
  61.4108435   8.4315815  58.8835802  61.5595753   9.9178348  58.6369823
  55.6946617   6.9300542  73.7201950  56.4046236   6.2893734  73.6788569
  55.6515925   7.1813437  74.6428131  63.6833396  13.8667896  76.6408529
  63.6245942  13.1827116  75.9739112  64.0852914  14.6086886  76.1889155
  54.4075551   3.9165760  75.5397590  53.8712908   3.4656499  76.1919186
  53.8192260   4.0511669  74.7968054  53.8177810   3.3754412  58.1024053
  52.9407276   3.2543212  57.7386300  54.2935563   2.5840490  57.8502942
  63.6850803  11.8307480  74.8722509  62.7977582  11.4933401  74.9948908
  64.2549354  11.0990511  75.1091274  45.3379950   8.1631571  68.1965560
  46.0250990   7.8493301  67.6086576  45.1828079   9.0672936  67.9232812
  50.1414672   3.0521768  72.6250584  50.0572861   2.4447437  71.8900994
  49.3197379   3.5430786  72.6260080  60.3138386   1.5375331  67.9920779
  60.8107086   0.7845294  67.6721849  59.5425368   1.5739648  67.4263988
  68.1668144   7.2415697  69.6339071  68.1558020   8.1240412  69.2633004
  67.2985523   6.8887248  69.4393608  61.3968167  10.2947019  65.5659203
  60.4624446  10.4148481  65.3963907  61.5744835   9.3919485  65.3019212
  56.8973355   3.6792714  67.7192464  56.5271142   3.1263755  68.4073369
  57.3932447   3.0750848  67.1667464  64.7840718   6.1364338  66.1009237
  65.2501170   6.9692329  66.0269539  65.2348219   5.6709319  66.8054495
  62.8516949  12.4808159  63.0995389  63.1276793  12.3664754  64.0089263
  61.9821448  12.0825644  63.0607562  62.7557381  -1.4955075  70.1400138
  61.8420461  -1.2650848  70.3082345  63.1850482  -1.4116631  70.9914170
  62.5263839   6.6934817  72.6400032  61.8735290   6.9410724  71.9852485
  62.9044219   5.8798955  72.3062509  58.5751413   7.4354628  79.1266069
  57.8992050   7.3348757  79.7968444  59.3979046   7.2793842  79.5902066
  44.9147926   6.2432165  70.4683028  44.9532026   5.7095755  71.2620146
  44.4088219   5.7167370  69.8494005  52.2938689   1.0896705  73.9645570
  52.3580015   1.9511536  73.5522968  52.2305809   0.4770707  73.2317928
  51.7690961   3.1619838  77.6118604  52.3963000   2.7796915  78.2256128
  50.9118880   2.9434040  77.9774297  62.1685070  13.5682813  79.2172340
  62.7124974  14.1812771  78.7227294  61.5871915  14.1262391  79.7339353
  48.5456504   4.9696267  63.5436959  48.8409945   4.0606945  63.4904013
  47.6444540   4.9484006  63.2217961  52.0750751   3.0452263  69.5264508
  51.3537337   3.6588231  69.3871981  52.8644007   3.5810028  69.4481153
  54.8777064   0.3806690  75.8005159  55.4011466   0.6268986  76.5631469
  54.6589398   1.2126725  75.3808297  50.2744345   2.6510364  63.6676284
  49.9457052   1.7707743  63.4851390  50.6283716   2.5958033  64.5552673
  53.3886169   2.9383334  64.0351762  53.7282241   3.4669255  63.3130370
  53.8358289   3.2763740  64.8110328  56.0829609   1.3220385  73.4854830
  55.7426430   0.5228198  73.8875510  55.3768616   1.6222096  72.9131663
  56.7346081  -1.5930303  71.9382153  57.5572151  -2.0669824  71.8161043
  56.9784145  -0.8139819  72.4380839  55.3754316   1.4357956  62.2345054
  56.0962678   1.8139209  61.7308771  54.7519620   2.1546833  62.3380032
  59.5185439   2.1403105  63.1703387  59.7349053   3.0227743  62.8692215
  59.0379506   1.7489318  62.4409029  54.2584660   5.0988818  69.7474131
  54.1129241   5.4129121  70.6398413  53.7809864   5.7173718  69.1945030
  56.1181043   2.0891366  69.7955021  56.1042612   1.1932459  69.4587319
  56.8353471   2.0962030  70.4293307  57.9707174   2.5228706  71.8408148
  57.7124951   3.4445777  71.8392479  57.4392214   2.1259141  72.5308613
  62.9153362  15.6279493  64.6198234  63.0890240  15.0625916  63.8672086
  63.4082254  16.4280388  64.4377724  48.7330322   7.6394162  72.6861793
  48.1883790   8.4153970  72.8182067  49.6109672   7.9864967  72.5280914
  55.5217939   0.9705746  65.0642591  55.6433850   0.0422392  65.2633479
  55.2319981   0.9844432  64.1520907  58.3909129  -1.3439343  68.2009311
  58.4130826  -1.2800010  67.2461291  58.8077188  -2.1834835  68.3949817
  68.7692754   8.3915916  66.2388534  69.2123900   7.6423241  65.8407657
  67.8919264   8.3826053  65.8562266  63.9028535  14.9446258  61.7195132
  64.5979440  15.5652950  61.9382447  64.2451685  14.0941609  61.9947510
  49.5196344   6.7664059  75.5791949  48.7778080   6.9146694  76.1656580
  49.1989088   7.0272324  74.7158699  65.8019958  12.3945963  63.2482463
  66.3271282  12.7333236  62.5231783  65.7142311  11.4592979  63.0645597
  55.0059018   2.4837744  79.2732524  55.0547174   3.3599866  78.8910293
  55.5481533   1.9415137  78.7004167  65.4913864  13.0278867  78.5533661
  64.7009408  13.0103006  78.0138160  65.2547219  13.5667161  79.3082697
  65.6111739   9.8771333  75.8666389  65.6609744   9.7121341  76.8081912
  65.5025662   9.0098592  75.4764270  62.9015502   5.8602261  77.1825696
  63.8025364   5.7208726  76.8909694  62.9763476   6.0256716  78.1223873
  57.2358307   3.2369116  76.0278882  56.3661616   3.5302682  75.7561471
  57.4717787   3.8209561  76.7486146  67.1129936  12.2968275  76.1108411
  66.8214744  12.6598255  76.9471872  66.5002067  11.5835283  75.9321743
  68.3125618   9.8621155  68.6310981  69.1472510  10.3010959  68.7948541
  68.4484747   9.3859808  67.8119227  65.3617124   7.4200889  74.5788469
  65.8371246   7.6128536  73.7707320  64.4382690   7.4760075  74.3331853
  52.2500631   8.5825057  64.1619547  52.0046673   7.6787387  64.3599757
  52.4196545   8.5842207  63.2199025  59.9397341  -0.5451267  73.5444303
  60.4579285   0.1909760  73.2190791  59.5852473  -0.2387274  74.3791062
  51.5196278   4.3153414  61.6605709  50.8265523   4.3897769  61.0045745
  51.2748030   3.5513758  62.1827226  60.1909935  -4.1250984  69.0645199
  60.4711689  -4.7927795  69.6905626  60.9760542  -3.9321889  68.5519863
  57.9943403  15.0508009  60.6270226  57.4217370  15.6698197  60.1740698
  58.5676197  15.6007371  61.1610148  64.0618793   4.2966650  72.8116774
  65.0136216   4.3964747  72.8328999  63.8922244   3.5044918  73.3214859
  62.0833173   1.3822233  72.9976175  61.4883105   1.6627245  72.3022664
  61.7982869   1.8716134  73.7692916  61.2140663  15.3345160  61.7578808
  62.1471336  15.2690721  61.9611683  61.1263876  16.1701426  61.2993341
  63.8428680  14.6511030  58.7182756  63.7642311  14.3170894  59.6118513
  64.6638347  15.1432798  58.7174228  66.5406871   7.5172769  71.9259074
  66.5083191   6.5788770  72.1118758  67.1507495   7.5956806  71.1924899
  58.3790202   6.3868822  57.9686278  59.3249307   6.2575030  58.0374696
  58.0004447   5.6483484  58.4455706  66.6901359   4.3083813  71.9717357
  66.1740408   3.5242269  71.7847286  67.5741308   3.9802529  72.1363877
  64.3512086  -1.9475172  67.9313170  64.1536908  -2.2560084  68.8156502
  64.9611792  -1.2213533  68.0611100  72.3583421   8.5788776  71.0665111
  73.0886809   8.3174064  71.6272814  71.7490366   7.8417498  71.1067179
  70.4398718   6.7196639  71.6639562  69.7131882   6.5852604  71.0556054
  70.0246005   7.0273467  72.4696280  58.2628894  10.4386568  79.4286935
  59.1831904  10.6165167  79.6226982  58.2278477   9.4942614  79.2766634
  56.5633119   4.3118799  57.9041163  55.6564574   4.0151911  57.9803877
  56.8409100   4.0148617  57.0375450  47.4811059   5.6325162  68.3540210
  47.1613844   4.7790470  68.0614584  46.9344488   5.8473740  69.1098177
  51.2590967   8.3487603  72.0709716  51.4776977   9.2804711  72.0897750
  51.6716741   7.9895577  72.8564520  58.1795185  -1.1444312  64.0585405
  57.3695913  -1.4897227  64.4340651  58.8679602  -1.4536768  64.6473016
  60.1085733  -2.0666265  65.6809701  60.6616772  -1.6470811  66.3399724
  60.3455819  -2.9930517  65.7232657  56.1318832   3.9220809  81.4612465
  56.0315559   4.8715166  81.3924556  55.9140374   3.5939048  80.5888535
  55.3331904   1.1705734  58.0453143  56.1951068   1.4960632  58.3048960
  55.5182248   0.3837230  57.5326208  47.3499319   9.2528073  70.3233331
  46.6562791   8.8382026  69.8103286  48.0972310   9.2948610  69.7266750
  63.4864540   0.0434260  65.1888366  62.9063209   0.7019064  64.8066418
  63.2200473  -0.7788395  64.7775783  61.9368106  -0.5560682  67.3909686
  62.4367885  -0.4444148  66.5824005  62.5803714  -0.8599629  68.0310494
  55.9950102   7.3517948  80.2777527  55.5117184   8.1518308  80.4841416
  56.0811041   7.3625892  79.3244971  49.2636062   9.1846327  68.1999346
  49.2406750   9.2834015  67.2481229  49.5736698  10.0311478  68.5216512
  62.2689418   2.2034351  64.2444714  61.3815273   2.4884001  64.0264909
  62.6843407   2.0428114  63.3971991  65.6203954   2.2280872  67.9599053
  66.3964344   2.7177324  68.2323670  64.8952088   2.6538926  68.4170923
  68.0576513   2.9408491  69.0172994  68.6521004   2.7004227  68.3066302
  68.1303097   2.2215621  69.6446530  61.4132632  11.9679025  58.3392734
  62.1168482  12.1729028  58.9550389  60.6895280  12.5355787  58.6041817
  62.2430442   7.7188887  64.4595004  62.1865643   8.1757438  63.6202636
  62.7958784   6.9579571  64.2817847  66.0535248   3.5078618  65.2845123
  65.7972182   3.1075254  66.1153331  65.4288116   4.2222412  65.1595263
  70.3647586   6.2474692  67.7916415  69.8047144   6.3167881  68.5647977
  69.7591089   6.0715676  67.0715911  63.3219329  12.4061555  60.3891194
  64.1564933  11.9742753  60.2068669  63.1603672  12.2343568  61.3168088
  62.9765221   8.9093668  61.7547533  62.9214025   8.7437939  60.8135977
  62.3511276   9.6169701  61.9109723  47.7657736   4.1461732  75.5808955
  48.4116600   3.6360686  76.0696181  47.5574887   4.8830414  76.1552381
  60.2911128  11.2142580  81.0801096  61.1602288  11.3883232  80.7187731
  59.8117880  12.0336996  80.9576825  56.2861347  -1.5898223  61.3332852
  56.2740016  -0.6456383  61.4901122  57.1784769  -1.7728078  61.0392313
  60.1013466  -4.9955447  65.5878788  59.3345862  -5.5496960  65.7335471
  60.5124171  -4.9233578  66.4492940  52.1055227   1.2929349  79.6783970
  52.9686689   0.9366154  79.8887294  51.5320638   0.9543244  80.3659374
  71.9503604  22.9231206  70.4846371  72.5882014  22.8037953  69.7809711
  71.8324447  23.8712050  70.5434323  68.7593310  22.8758634  70.4207895
  68.4211822  22.7599698  69.5328430  69.6283079  22.4749799  70.4008901
  69.2413093  24.0293485  76.3794101  69.2301734  23.6346284  75.5074605
  69.4033733  23.2959558  76.9727872  70.1979685  28.3965078  61.7219251
  69.5467665  28.9819158  61.3353265  70.9924048  28.9271273  61.7814289
  64.1235312  25.4854215  62.1206386  64.8966188  24.9383202  61.9819261
  64.4760711  26.3498464  62.3320847  66.8876561  24.1907446  71.9174644
  67.4840134  23.9663468  71.2031607  66.9451533  23.4492191  72.5200092
  66.4601590  21.6446881  59.7524835  66.7127110  21.1228402  58.9908298
  65.5226149  21.4813027  59.8551519  71.5044873  20.6482659  67.5599579
  72.2907962  20.2302083  67.2089996  71.7683577  21.5528752  67.7281227
  71.6754950  26.0855510  62.2588235  71.0400783  26.1590136  62.9709140
  71.3452356  26.6749109  61.5807315  76.9053300  20.5857893  68.4632557
  77.6378472  20.0157109  68.6970387  76.1492655  20.1979493  68.9039063
  66.1797878  23.5474987  61.9549210  66.0634137  22.8719890  62.6230295
  66.2900138  23.0607361  61.1381363  68.5229419  23.0085134  65.6595900
  68.1587627  22.4815755  66.3708821  69.3796535  22.6183603  65.4862385
  74.4278720  14.2979467  72.9227166  74.0962045  15.1674878  72.6988381
  73.8324333  13.9815751  73.6021196  68.1634906  18.0375034  60.6557248
  68.3309309  18.9055270  61.0227719  67.9732075  18.2002316  59.7318537
  70.9210240  26.4992013  72.3223079  70.6210963  27.4017052  72.2138886
  70.5761299  26.2324196  73.1744231  74.3207383  19.0174553  70.0020516
  73.4124261  18.9489961  69.7079277  74.2694979  19.4946498  70.8302341
  68.1424127  20.4932691  61.6403915  68.0223752  20.9389742  62.4789395
  67.4476716  20.8418009  61.0817453  65.9031019  33.2636333  65.2894046
  65.8255049  34.2144158  65.3682527  65.2992663  32.9182206  65.9468973
  68.3948249  20.4364199  77.9455413  67.6181583  20.9958119  77.9358278
  69.0338812  20.9220982  78.4670283  76.1869030  17.2190991  71.7798390
  75.5443410  17.5123525  71.1338184  75.6823958  17.1043912  72.5851586
  73.8409193  20.9654165  62.4684249  74.7527050  21.1981551  62.2931947
  73.3318841  21.5491209  61.9059328  72.1249961  25.3878792  76.1045542
  72.5333317  24.9461203  75.3600174  71.4027223  24.8131420  76.3579734
  68.4781031  20.3251399  73.4779099  69.3242226  20.7490813  73.6213748
  68.4179669  19.6685023  74.1717662  72.4478776  25.9479983  69.8597830
  71.8187638  26.1125697  69.1573898  72.0604438  26.3621593  70.6308795
  76.3268008  26.8834421  67.2142194  75.6419046  27.2633322  66.6639228
  76.4111857  27.4929747  67.9474142  71.6280476  17.9855767  75.1360272
  71.3841408  18.7397828  74.5994548  71.9040407  18.3641115  75.9707519
  73.5818939  24.5294380  73.8137538  73.7935834  25.1726140  73.1371919
  73.5348687  23.6956696  73.3459468  71.1845168  17.1412201  70.7174110
  70.3229647  17.4393454  71.0090847  71.2107603  17.3582599  69.7855143
  68.0006738  25.6854391  67.1247916  68.4645083  25.9642094  66.3352538
  67.7363536  24.7837836  66.9421006  66.9375624  21.8077543  63.9337481
  67.6399667  22.2598587  64.4011407  66.6056252  21.1661362  64.5617374
  65.3855985  20.3989300  78.3088690  64.7554646  21.0805581  78.5424087
  65.2792073  20.2872382  77.3641828  74.6964767  27.4066335  71.9859895
  75.5182211  27.0046523  71.7042577  74.6927170  27.3034569  72.9376011
  68.4621371  26.9550379  74.1420606  68.5265803  27.4170786  74.9778777
  67.7532295  26.3247743  74.2702915  82.7870760  23.7505084  68.3344867
  82.0334469  23.1812482  68.1788871  82.9218301  23.7167748  69.2815501
  68.1769388  28.6218486  64.0099586  68.0415063  29.4670022  64.4384434
  68.7179201  28.8237764  63.2465520  64.6636728  14.7010066  80.6713941
  64.2703673  14.1476264  81.3461585  65.4802868  15.0120644  81.0620459
  61.6298786  26.1393924  64.5827511  62.1423306  26.9337174  64.7333076
  62.2821499  25.4420215  64.5161112  67.5804689  16.1167945  78.2634198
  68.3214402  16.7175098  78.1838660  67.8122612  15.3745583  77.7052240
  71.5261852  12.1449048  72.5398479  71.1826121  13.0350690  72.4637590
  71.8940814  11.9550706  71.6768064  71.4912135  22.1357659  61.0470915
  70.9758758  22.9062264  61.2859302  71.2189443  21.4622795  61.6703976
  69.0759246  16.9807360  66.1056153  68.2200842  16.5914210  65.9261792
  69.4886197  17.0599321  65.2455938  70.6058392  14.5153703  70.5047713
  70.1023188  14.4783838  69.6915518  70.8988999  15.4246446  70.5644369
  66.8501278  14.5992433  69.5113894  67.7154275  14.4035242  69.1519784
  66.9178787  14.3702785  70.4383251  76.4646409  24.8890014  62.9824088
  75.6875851  24.5501173  62.5379250  77.1437890  24.8942637  62.3079053
  71.2798438  20.0084751  62.8730696  70.9748573  20.3230900  63.7240839
  72.2328880  20.0866171  62.9158029  69.7244870  26.1674974  64.5223650
  69.1966231  25.4327734  64.2096887  69.2232372  26.9449651  64.2763618
  74.7037716  24.3623995  69.6390696  74.0461390  25.0523256  69.7270825
  75.5078115  24.7520427  69.9824682  73.5143174  22.7168368  67.6894638
  74.0275056  23.3498359  68.1916347  74.1644398  22.1169563  67.3237998
  64.7833184  18.8599102  60.9026146  63.9470497  19.1973788  61.2235421
  64.6437954  18.7248082  59.9653283  66.7586265  13.7035890  65.6105331
  66.1050677  13.3884907  64.9861945  66.7166739  13.0811630  66.3365154
  67.8697470  23.9855185  57.5258623  66.9624532  23.7544438  57.7249772
  68.3668502  23.1892804  57.7132604  70.7765549  32.6952692  60.4455309
  70.1027247  32.9984389  61.0540267  71.1631371  33.4981772  60.0960766
  69.9924005  20.1917823  69.9352978  69.0746567  20.4132770  69.7774666
  70.4084149  20.2664134  69.0764686  70.7759053  21.5909239  65.0655659
  71.5230872  22.1030636  64.7562781  71.0450643  21.2693292  65.9260052
  69.0485703  24.0867780  62.0482613  68.1396922  23.8026812  62.1455083
  69.0780787  24.5066858  61.1885920  74.2804971  27.6974369  65.8173780
  73.8267298  26.8565279  65.8738971  73.6498937  28.3335767  66.1548561
  73.2237890  18.6266355  67.0474448  72.4860647  18.1143741  67.3784690
  73.4764664  18.1866737  66.2357725  72.7237910  29.5350866  66.7523598
  73.0160884  30.0955923  66.0335964  73.2336530  29.8279427  67.5076758
  73.3249518  11.4042607  67.6416217  73.6308394  10.5439971  67.3542132
  74.0502122  11.9960227  67.4415211  68.7461791  25.6276523  59.3870691
  68.3081221  24.9112382  58.9276329  69.4872232  25.8552638  58.8255783
  67.6871535  30.3131217  67.8417052  67.6447714  30.5392063  66.9125584
  68.6034234  30.0794591  67.9902853  71.1337169  20.7815284  74.7397681
  71.4886557  21.0086758  75.5992147  71.7809300  21.1133661  74.1174936
  76.8634906  23.9033720  65.4447010  76.7252804  24.0935316  64.5168199
  76.5071125  24.6653103  65.9015061  76.8904285  25.9710247  70.4558281
  77.3240792  25.8785536  71.3041335  77.6035866  25.9467748  69.8178297
  65.8037336  27.1894246  67.6379014  66.5977934  26.6944566  67.4361589
  65.0929028  26.6612109  67.2746720  70.6232180  29.5712341  71.9891382
  70.6769203  30.1403278  72.7569098  69.7546962  29.7414226  71.6245419
  77.7519835  26.0133948  72.9891167  77.9455725  26.9179758  73.2350442
  77.6520453  25.5541367  73.8229752  69.4056146  15.8991839  75.4881494
  68.7584061  16.5981788  75.3945971  70.1757161  16.3327982  75.8557742
  72.8134944  26.1640691  78.5632047  72.6620450  25.9351242  77.6462131
  72.8039623  27.1211292  78.5763392  69.5820280  23.7372603  73.5478314
  70.5112340  23.8883763  73.3747281  69.1611310  23.8256624  72.6926960
  68.9756764  32.8632364  62.6602388  69.1508519  32.3920408  63.4748011
  68.2889552  33.4898131  62.8883649  69.9313827  27.1404871  68.7065689
  69.5963660  27.1005641  69.6023339  69.4317773  26.4749586  68.2336100
  72.8673019  24.4860905  58.9802749  72.2502189  23.7607733  58.8835802
  72.3989507  25.2470265  58.6369823  74.5227150  29.1959813  76.6408529
  74.4639696  28.5119033  75.9739112  74.9246669  29.9378803  76.1889155
  65.2469306  19.2457678  75.5397590  64.7106663  18.7948416  76.1919186
  64.6586014  19.3803587  74.7968054  64.6571565  18.7046329  58.1024053
  63.7801031  18.5835130  57.7386300  65.1329318  17.9132408  57.8502942
  74.5244558  27.1599397  74.8722509  73.6371336  26.8225319  74.9948908
  75.0943109  26.4282428  75.1091274  67.8435491  31.0572620  65.3486574
  67.0603012  31.5994300  65.4424798  68.5428236  31.5746599  65.7480815
  71.1532141  16.8667249  67.9920779  71.6500840  16.1137211  67.6721849
  70.3819122  16.9031566  67.4263988  79.0061898  22.5707615  69.6339071
  78.9951774  23.4532330  69.2633004  78.1379278  22.2179165  69.4393608
  72.2361921  25.6238936  65.5659203  71.3018200  25.7440399  65.3963907
  72.4138590  24.7211403  65.3019212  67.7367109  19.0084632  67.7192464
  67.3664897  18.4555672  68.4073369  68.2326202  18.4042766  67.1667464
  75.6234473  21.4656256  66.1009237  76.0894925  22.2984247  66.0269539
  76.0741973  21.0001237  66.8054495  73.6910704  27.8100077  63.0995389
  73.9670548  27.6956671  64.0089263  72.8215203  27.4117562  63.0607562
  73.5951135  13.8336843  70.1400138  72.6814215  14.0641069  70.3082345
  74.0244237  13.9175287  70.9914170  73.3657594  22.0226734  72.6400032
  72.7129044  22.2702642  71.9852485  73.7437974  21.2090873  72.3062509
  70.3264768  32.0586428  66.7428202  70.5087162  31.2408084  67.2055955
  71.1497754  32.2754120  66.3053092  70.6606933  30.9854613  64.0043251
  71.1894700  30.4747067  63.3913413  70.9235153  30.6697143  64.8688784
  71.2936337  32.0195449  70.3487367  71.1687477  31.2185188  69.8398313
  71.9515428  32.5141642  69.8601337  73.3571246  29.8204469  71.9766917
  72.4101581  29.7009820  71.9045244  73.7054019  28.9326967  72.0593179
  65.7170819  15.7098608  75.8005159  66.2405221  15.9560904  76.5631469
  65.4983152  16.5418642  75.3808297  70.3617679  29.6157185  68.1771270
  70.2142641  28.6873892  68.3578840  71.1871172  29.6377276  67.6928345
  64.2279923  18.2675252  64.0351762  64.5675996  18.7961173  63.3130370
  64.6752044  18.6055658  64.8110328  73.9651801  30.4385744  69.2636142
  74.8898348  30.2328605  69.1260593  73.7967104  30.1902145  70.1725484
  66.9223364  16.6512303  73.4854830  66.5820184  15.8520116  73.8875510
  66.2162370  16.9514013  72.9131663  67.5739836  13.7361615  71.9382153
  68.3965905  13.2622093  71.8161043  67.8177899  14.5152099  72.4380839
  66.2148070  16.7649874  62.2345054  66.9356433  17.1431126  61.7308771
  65.5913374  17.4838750  62.3380032  70.3579193  17.4695022  63.1703387
  70.5742808  18.3519660  62.8692215  69.8773260  17.0781236  62.4409029
  66.9574797  17.4183284  69.7955021  66.9436366  16.5224377  69.4587319
  67.6747226  17.4253947  70.4293307  68.8100928  17.8520624  71.8408148
  68.5518706  18.7737695  71.8392479  68.2785969  17.4551058  72.5308613
  73.7547117  30.9571411  64.6198234  73.9283994  30.3917833  63.8672086
  74.2476008  31.7572306  64.4377724  66.3611693  16.2997664  65.0642591
  66.4827605  15.3714310  65.2633479  66.0713736  16.3136350  64.1520907
  69.2302884  13.9852574  68.2009311  69.2524581  14.0491907  67.2461291
  69.6470943  13.1457083  68.3949817  79.6086508  23.7207834  66.2388534
  80.0517654  22.9715159  65.8407657  78.7313018  23.7117970  65.8562266
  74.7422289  30.2738175  61.7195132  75.4373194  30.8944868  61.9382447
  75.0845440  29.4233527  61.9947510  76.6413713  27.7237881  63.2482463
  77.1665037  28.0625154  62.5231783  76.5536065  26.7884896  63.0645597
  68.3254373  33.7909864  67.6077716  67.8859364  33.2986243  68.3010573
  69.0762490  33.2482832  67.3669791  65.8452773  17.8129661  79.2732524
  65.8940928  18.6891784  78.8910293  66.3875287  17.2707054  78.7004167
  76.3307619  28.3570785  78.5533661  75.5403162  28.3394923  78.0138160
  76.0940973  28.8959078  79.3082697  76.4505494  25.2063251  75.8666389
  76.5003499  25.0413258  76.8081912  76.3419417  24.3390510  75.4764270
  65.3341752  27.8851797  63.1558478  65.4829873  28.5687261  62.5025151
  66.1408196  27.8656887  63.6707934  73.7409256  21.1894179  77.1825696
  74.6419119  21.0500644  76.8909694  73.8157231  21.3548634  78.1223873
  68.0752061  18.5661034  76.0278882  67.2055371  18.8594600  75.7561471
  68.3111542  19.1501479  76.7486146  77.9523690  27.6260192  76.1108411
  77.6608499  27.9890173  76.9471872  77.3395822  26.9127201  75.9321743
  79.1519373  25.1913072  68.6310981  79.9866264  25.6302876  68.7948541
  79.2878502  24.7151725  67.8119227  76.2010879  22.7492807  74.5788469
  76.6765000  22.9420453  73.7707320  75.2776444  22.8051993  74.3331853
  70.7791095  14.7840651  73.5444303  71.2973039  15.5201678  73.2190791
  70.4246228  15.0904644  74.3791062  62.3590033  19.6445332  61.6605709
  61.6659278  19.7189687  61.0045745  62.1141785  18.8805676  62.1827226
  71.0303689  11.2040933  69.0645199  71.3105443  10.5364122  69.6905626
  71.8154296  11.3970029  68.5519863  68.8337158  30.3799927  60.6270226
  68.2611125  30.9990114  60.1740698  69.4069952  30.9299289  61.1610148
  74.9012548  19.6258567  72.8116774  75.8529971  19.7256665  72.8328999
  74.7315998  18.8336836  73.3214859  72.9226927  16.7114150  72.9976175
  72.3276859  16.9919163  72.3022664  72.6376624  17.2008051  73.7692916
  72.0534418  30.6637077  61.7578808  72.9865091  30.5982639  61.9611683
  71.9657630  31.4993344  61.2993341  74.6822434  29.9802948  58.7182756
  74.6036066  29.6462811  59.6118513  75.5032101  30.4724715  58.7174228
  77.3800625  22.8464687  71.9259074  77.3476946  21.9080688  72.1118758
  77.9901249  22.9248724  71.1924899  69.2183956  21.7160740  57.9686278
  70.1643061  21.5866948  58.0374696  68.8398201  20.9775402  58.4455706
  77.5295114  19.6375730  71.9717357  77.0134163  18.8534187  71.7847286
  78.4135062  19.3094447  72.1363877  75.1905841  13.3816746  67.9313170
  74.9930662  13.0731834  68.8156502  75.8005546  14.1078385  68.0611100
  83.1977175  23.9080694  71.0665111  83.9280564  23.6465982  71.6272814
  82.5884121  23.1709416  71.1067179  81.2792472  22.0488556  71.6639562
  80.5525636  21.9144521  71.0556054  80.8639759  22.3565385  72.4696280
  67.4026873  19.6410716  57.9041163  66.4958329  19.3443829  57.9803877
  67.6802854  19.3440534  57.0375450  69.0188939  14.1847606  64.0585405
  68.2089668  13.8394691  64.4340651  69.7073356  13.8755150  64.6473016
  70.9479487  13.2625653  65.6809701  71.5010526  13.6821106  66.3399724
  71.1849574  12.3361401  65.7232657  66.1725658  16.4997651  58.0453143
  67.0344822  16.8252550  58.3048960  66.3576002  15.7129147  57.5326208
  74.3258295  15.3726178  65.1888366  73.7456964  16.0310982  64.8066418
  74.0594227  14.5503523  64.7775783  72.7761861  14.7731236  67.3909686
  73.2761639  14.8847770  66.5824005  73.4197469  14.4692288  68.0310494
  73.1083173  17.5326268  64.2444714  72.2209028  17.8175919  64.0264909
  73.5237162  17.3720032  63.3971991  76.4597709  17.5572789  67.9599053
  77.2358099  18.0469242  68.2323670  75.7345843  17.9830843  68.4170923
  78.8970267  18.2700409  69.0172994  79.4914758  18.0296144  68.3066302
  78.9696851  17.5507539  69.6446530  72.2526386  27.2970943  58.3392734
  72.9562236  27.5020945  58.9550389  71.5289035  27.8647705  58.6041817
  73.0824196  23.0480804  64.4595004  73.0259398  23.5049356  63.6202636
  73.6352539  22.2871489  64.2817847  76.8929002  18.8370536  65.2845123
  76.6365936  18.4367172  66.1153331  76.2681870  19.5514330  65.1595263
  81.2041340  21.5766609  67.7916415  80.6440898  21.6459799  68.5647977
  80.5984843  21.4007594  67.0715911  74.1613083  27.7353472  60.3891194
  74.9958687  27.3034671  60.2068669  73.9997426  27.5635486  61.3168088
  73.8158976  24.2385585  61.7547533  73.7607779  24.0729857  60.8135977
  73.1905031  24.9461618  61.9109723  67.1255101  13.7393694  61.3332852
  67.1133771  14.6835534  61.4901122  68.0178523  13.5563840  61.0392313
  70.9407221  10.3336471  65.5878788  70.1739616   9.7794958  65.7335471
  71.3517926  10.4058340  66.4492940  62.9448982  16.6221267  79.6783970
  63.8080443  16.2658072  79.8887294  62.3714392  16.2835162  80.3659374
  80.0806848  39.3585403  76.3794101  80.0695489  38.9638201  75.5074605
  80.2427487  38.6251476  76.9727872  76.8014109  42.1422515  75.3273285
  76.5103975  43.0468146  75.2119951  77.4371093  42.1839043  76.0417354
  82.3438627  35.9774577  67.5599579  83.1301716  35.5594000  67.2089996
  82.6077331  36.8820669  67.7281227  87.7447054  35.9149810  68.4632557
  88.4772226  35.3449027  68.6970387  86.9886410  35.5271411  68.9039063
  85.2672475  29.6271384  72.9227166  84.9355799  30.4966795  72.6988381
  84.6718088  29.3107668  73.6021196  79.0028661  33.3666952  60.6557248
  79.1703063  34.2347188  61.0227719  78.8125830  33.5294233  59.7318537
  85.1601138  34.3466471  70.0020516  84.2518015  34.2781879  69.7079277
  85.1088734  34.8238416  70.8302341  87.0262784  32.5482909  71.7798390
  86.3837165  32.8415442  71.1338184  86.5217713  32.4335829  72.5851586
  84.6802948  36.2946082  62.4684249  85.5920804  36.5273469  62.2931947
  84.1712595  36.8783126  61.9059328  82.9643716  40.7170710  76.1045542
  83.3727072  40.2753121  75.3600174  82.2420977  40.1423338  76.3579734
  79.3174786  35.6543317  73.4779099  80.1635981  36.0782730  73.6213748
  79.2573423  34.9976941  74.1717662  82.4674231  33.3147685  75.1360272
  82.2235163  34.0689746  74.5994548  82.7434161  33.6933033  75.9707519
  84.4212694  39.8586298  73.8137538  84.6329589  40.5018057  73.1371919
  84.3742442  39.0248614  73.3459468  82.0238923  32.4704118  70.7174110
  81.1623402  32.7685372  71.0090847  82.0501357  32.6874517  69.7855143
  85.5358522  42.7358253  71.9859895  86.3575965  42.3338440  71.7042577
  85.5320925  42.6326487  72.9376011  93.6264515  39.0797001  68.3344867
  92.8728223  38.5104400  68.1788871  93.7612056  39.0459666  69.2815501
  78.4198443  31.4459863  78.2634198  79.1608157  32.0467016  78.1838660
  78.6516366  30.7037500  77.7052240  82.7412857  44.8536770  76.1681329
  82.7231333  45.6745651  75.6761598  83.6632777  44.7290845  76.3931470
  79.1985911  42.3680900  77.0104838  79.7314248  41.6069188  76.7804146
  78.6699992  42.0754551  77.7528992  82.3655606  27.4740966  72.5398479
  82.0219876  28.3642607  72.4637590  82.7334569  27.2842623  71.6768064
  82.3305889  37.4649577  61.0470915  81.8152513  38.2354181  61.2859302
  82.0583198  36.7914713  61.6703976  79.9153000  32.3099278  66.1056153
  79.0594596  31.9206128  65.9261792  80.3279952  32.3891238  65.2455938
  81.4452147  29.8445621  70.5047713  80.9416942  29.8075756  69.6915518
  81.7382754  30.7538363  70.5644369  77.6895033  29.9284351  69.5113894
  78.5548029  29.7327159  69.1519784  77.7572542  29.6994702  70.4383251
  87.3040163  40.2181931  62.9824088  86.5269606  39.8793091  62.5379250
  87.9831644  40.2234555  62.3079053  82.1192192  35.3376669  62.8730696
  81.8142328  35.6522818  63.7240839  83.0722634  35.4158089  62.9158029
  85.5431470  39.6915913  69.6390696  84.8855145  40.3815174  69.7270825
  86.3471869  40.0812345  69.9824682  75.2957352  32.1586558  66.8830261
  75.8701104  31.9361740  66.1503454  75.8828334  32.2275253  67.6358862
  84.3536929  38.0460285  67.6894638  84.8668811  38.6790277  68.1916347
  85.0038153  37.4461481  67.3237998  75.6226939  34.1891019  60.9026146
  74.7864251  34.5265706  61.2235421  75.4831708  34.0539999  59.9653283
  77.5980019  29.0327807  65.6105331  76.9444432  28.7176825  64.9861945
  77.5560494  28.4103548  66.3365154  84.0631645  33.9558273  67.0474448
  83.3254401  33.4435659  67.3784690  84.3158418  33.5158654  66.2357725
  84.1643272  26.7334525  67.6416217  84.4702149  25.8731888  67.3542132
  84.8895877  27.3252145  67.4415211  81.9730923  36.1107202  74.7397681
  82.3280311  36.3378675  75.5992147  82.6203055  36.4425579  74.1174936
  87.7028660  39.2325638  65.4447010  87.5646559  39.4227234  64.5168199
  87.3464879  39.9945021  65.9015061  75.8670786  33.2183733  71.5244022
  76.5070166  33.0772492  70.8266985  75.0348317  32.9318247  71.1482624
  87.7298040  41.3002165  70.4558281  88.1634547  41.2077454  71.3041335
  88.4429621  41.2759665  69.8178297  88.5913589  41.3425866  72.9891167
  88.7849480  42.2471676  73.2350442  88.4914208  40.8833285  73.8229752
  80.2449900  31.2283756  75.4881494  79.5977815  31.9273706  75.3945971
  81.0150916  31.6619900  75.8557742  83.6528698  41.4932608  78.5632047
  83.5014205  41.2643160  77.6462131  83.6433378  42.4503210  78.5763392
  83.7066773  39.8152823  58.9802749  83.0895944  39.0899651  58.8835802
  83.2383262  40.5762183  58.6369823  85.3620905  44.5251731  76.6408529
  85.3033451  43.8410951  75.9739112  85.7640423  45.2670721  76.1889155
  75.4965319  34.0338247  58.1024053  74.6194785  33.9127048  57.7386300
  75.9723072  33.2424325  57.8502942  85.3638312  42.4891315  74.8722509
  84.4765091  42.1517237  74.9948908  85.9336863  41.7574346  75.1091274
  81.9925895  32.1959167  67.9920779  82.4894595  31.4429129  67.6721849
  81.2212877  32.2323483  67.4263988  89.8455653  37.8999532  69.6339071
  89.8345529  38.7824248  69.2633004  88.9773032  37.5471083  69.4393608
  86.4628227  36.7948173  66.1009237  86.9288679  37.6276165  66.0269539
  86.9135728  36.3293155  66.8054495  84.4344890  29.1628760  70.1400138
  83.5207970  29.3932987  70.3082345  84.8637991  29.2467204  70.9914170
  84.2051348  37.3518652  72.6400032  83.5522799  37.5994560  71.9852485
  84.5831728  36.5382790  72.3062509  73.9726198  31.7480540  73.9645570
  74.0367524  32.6095371  73.5522968  73.9093318  31.1354542  73.2317928
  73.7538260  33.7036099  69.5264508  73.0324846  34.3172066  69.3871981
  74.5431516  34.2393864  69.4481153  76.5564573  31.0390525  75.8005159
  77.0798975  31.2852822  76.5631469  76.3376907  31.8710560  75.3808297
  71.9531854  33.3094200  63.6676284  71.6244561  32.4291579  63.4851390
  72.3071225  33.2541868  64.5552673  77.7617118  31.9804220  73.4854830
  77.4213939  31.1812033  73.8875510  77.0556125  32.2805931  72.9131663
  78.4133590  29.0653533  71.9382153  79.2359660  28.5914011  71.8161043
  78.6571654  29.8444016  72.4380839  77.0541825  32.0941791  62.2345054
  77.7750187  32.4723044  61.7308771  76.4307129  32.8130668  62.3380032
  81.1972948  32.7986940  63.1703387  81.4136562  33.6811578  62.8692215
  80.7167015  32.4073154  62.4409029  77.7968552  32.7475201  69.7955021
  77.7830121  31.8516295  69.4587319  78.5140980  32.7545865  70.4293307
  79.6494683  33.1812542  71.8408148  79.3912460  34.1029612  71.8392479
  79.1179723  32.7842976  72.5308613  77.2005448  31.6289582  65.0642591
  77.3221359  30.7006228  65.2633479  76.9107490  31.6428268  64.1520907
  80.0696638  29.3144492  68.2009311  80.0918335  29.3783825  67.2461291
  80.4864697  28.4749001  68.3949817  90.4480263  39.0499752  66.2388534
  90.8911409  38.3007077  65.8407657  89.5706773  39.0409888  65.8562266
  87.1701373  43.6862702  78.5533661  86.3796917  43.6686841  78.0138160
  86.9334728  44.2250996  79.3082697  87.2899248  40.5355169  75.8666389
  87.3397253  40.3705176  76.8081912  87.1813171  39.6682428  75.4764270
  84.5803011  36.5186097  77.1825696  85.4812873  36.3792562  76.8909694
  84.6550985  36.6840552  78.1223873  88.7917445  42.9552110  76.1108411
  88.5002253  43.3182091  76.9471872  88.1789576  42.2419118  75.9321743
  89.9913127  40.5204990  68.6310981  90.8260019  40.9594794  68.7948541
  90.1272256  40.0443643  67.8119227  87.0404633  38.0784725  74.5788469
  87.5158755  38.2712371  73.7707320  86.1170199  38.1343911  74.3331853
  81.6184850  30.1132568  73.5444303  82.1366794  30.8493595  73.2190791
  81.2639982  30.4196562  74.3791062  81.8697444  26.5332851  69.0645199
  82.1499198  25.8656040  69.6905626  82.6548051  26.7261946  68.5519863
  85.7406302  34.9550485  72.8116774  86.6923725  35.0548583  72.8328999
  85.5709753  34.1628753  73.3214859  83.7620682  32.0406068  72.9976175
  83.1670614  32.3211081  72.3022664  83.4770378  32.5299969  73.7692916
  85.5216189  45.3094865  58.7182756  85.4429820  44.9754729  59.6118513
  86.3425856  45.8016633  58.7174228  88.2194380  38.1756605  71.9259074
  88.1870700  37.2372605  72.1118758  88.8295004  38.2540641  71.1924899
  88.3688868  34.9667648  71.9717357  87.8527917  34.1826105  71.7847286
  89.2528817  34.6386365  72.1363877  86.0299595  28.7108664  67.9313170
  85.8324417  28.4023752  68.8156502  86.6399301  29.4370302  68.0611100
  94.0370930  39.2372611  71.0665111  94.7674318  38.9757900  71.6272814
  93.4277875  38.5001333  71.1067179  92.1186227  37.3780474  71.6639562
  91.3919391  37.2436439  71.0556054  91.7033514  37.6857303  72.4696280
  79.8582694  29.5139524  64.0585405  79.0483422  29.1686609  64.4340651
  80.5467111  29.2047067  64.6473016  81.7873242  28.5917570  65.6809701
  82.3404281  29.0113024  66.3399724  82.0243328  27.6653319  65.7232657
  77.0119413  31.8289569  58.0453143  77.8738577  32.1544467  58.3048960
  77.1969757  31.0421065  57.5326208  85.1652049  30.7018096  65.1888366
  84.5850718  31.3602900  64.8066418  84.8987982  29.8795440  64.7775783
  83.6155615  30.1023153  67.3909686  84.1155394  30.2139688  66.5824005
  84.2591223  29.7984206  68.0310494  83.9476927  32.8618186  64.2444714
  83.0602782  33.1467837  64.0264909  84.3630916  32.7011949  63.3971991
  87.2991463  32.8864707  67.9599053  88.0751853  33.3761159  68.2323670
  86.5739597  33.3122761  68.4170923  89.7364022  33.5992326  69.0172994
  90.3308513  33.3588062  68.3066302  89.8090606  32.8799457  69.6446530
  83.0920141  42.6262861  58.3392734  83.7955991  42.8312863  58.9550389
  82.3682789  43.1939623  58.6041817  83.9217951  38.3772722  64.4595004
  83.8653152  38.8341273  63.6202636  84.4746293  37.6163407  64.2817847
  87.7322757  34.1662454  65.2845123  87.4759691  33.7659089  66.1153331
  87.1075625  34.8806248  65.1595263  92.0435095  36.9058527  67.7916415
  91.4834653  36.9751716  68.5647977  91.4378598  36.7299512  67.0715911
  85.0006838  43.0645390  60.3891194  85.8352442  42.6326588  60.2068669
  84.8391181  42.8927404  61.3168088  84.6552730  39.5677503  61.7547533
  84.6001534  39.4021775  60.8135977  84.0298785  40.2753536  61.9109723
  77.9648856  29.0685612  61.3332852  77.9527525  30.0127452  61.4901122
  78.8572277  28.8855758  61.0392313  81.7800975  25.6628389  65.5878788
  81.0133371  25.1086876  65.7335471  82.1911680  25.7350258  66.4492940
  90.9200602  54.6877321  76.3794101  90.9089243  54.2930119  75.5074605
  91.0821242  53.9543393  76.9727872  87.6407863  57.4714433  75.3273285
  87.3497729  58.3760063  75.2119951  88.2764848  57.5130960  76.0417354
  88.5664070  54.8491281  71.9174644  89.1627643  54.6247304  71.2031607
  88.6239042  54.1076027  72.5200092  98.5840809  51.2441728  68.4632557
  99.3165981  50.6740945  68.6970387  97.8280164  50.8563328  68.9039063
  96.1066229  44.9563302  72.9227166  95.7749554  45.8258713  72.6988381
  95.5111842  44.6399586  73.6021196  95.9994892  49.6758388  70.0020516
  95.0911770  49.6073797  69.7079277  95.9482488  50.1530333  70.8302341
  90.0735758  51.0948034  77.9455413  89.2969092  51.6541954  77.9358278
  90.7126321  51.5804817  78.4670283  97.8656539  47.8774827  71.7798390
  97.2230919  48.1707360  71.1338184  97.3611467  47.7627747  72.5851586
  88.3282130  53.9033487  77.5073380  89.0696815  54.4418531  77.2308204
  87.6219116  54.5299776  77.6644932  93.8037470  56.0462628  76.1045542
  94.2120826  55.6045038  75.3600174  93.0814732  55.4715255  76.3579734
  90.1568540  50.9835234  73.4779099  91.0029735  51.4074648  73.6213748
  90.0967178  50.3268859  74.1717662  94.1266285  56.6063818  69.8597830
  93.4975147  56.7709532  69.1573898  93.7391947  57.0205428  70.6308795
  98.0055517  57.5418256  67.2142194  97.3206555  57.9217158  66.6639228
  98.0899366  58.1513583  67.9474142  93.3067985  48.6439603  75.1360272
  93.0628917  49.3981663  74.5994548  93.5827916  49.0224950  75.9707519
  95.2606448  55.1878215  73.8137538  95.4723343  55.8309975  73.1371919
  95.2136196  54.3540532  73.3459468  92.8632677  47.7996036  70.7174110
  92.0017156  48.0977289  71.0090847  92.8895112  48.0166435  69.7855143
  96.3752276  58.0650171  71.9859895  97.1969720  57.6630358  71.7042577
  96.3714679  57.9618405  72.9376011  90.1408880  57.6134214  74.1420606
  90.2053312  58.0754621  74.9778777  89.4319803  56.9831579  74.2702915
 104.4658269  54.4088919  68.3344867 103.7121978  53.8396317  68.1788871
 104.6005810  54.3751584  69.2815501  86.3424237  45.3593901  80.6713941
  85.9491182  44.8060100  81.3461585  87.1590377  45.6704480  81.0620459
  89.2592198  46.7751780  78.2634198  90.0001911  47.3758933  78.1838660
  89.4910121  46.0329418  77.7052240  91.4825374  59.9025888  78.1399928
  91.0389228  59.1162266  77.8220833  92.1442587  60.0905038  77.4743819
  86.2412495  61.4321690  72.6660607  86.7919920  61.3038753  71.8937600
  85.4023971  61.7316579  72.3155499  93.5806612  60.1828688  76.1681329
  93.5625087  61.0037569  75.6761598  94.5026532  60.0582763  76.3931470
  90.0379666  57.6972817  77.0104838  90.5708003  56.9361106  76.7804146
  89.5093747  57.4046469  77.7528992  93.2049361  42.8032883  72.5398479
  92.8613630  43.6934525  72.4637590  93.5728323  42.6134541  71.6768064
  92.2845901  45.1737538  70.5047713  91.7810697  45.1367674  69.6915518
  92.5776508  46.0830281  70.5644369  98.1433918  55.5473849  62.9824088
  97.3663360  55.2085009  62.5379250  98.8225399  55.5526472  62.3079053
  96.3825225  55.0207830  69.6390696  95.7248899  55.7107092  69.7270825
  97.1865624  55.4104262  69.9824682  95.1930683  53.3752203  67.6894638
  95.7062565  54.0082195  68.1916347  95.8431907  52.7753399  67.3237998
  95.9592480  58.3558204  65.8173780  95.5054807  57.5149114  65.8738971
  95.3286446  58.9919603  66.1548561  94.9025399  49.2850190  67.0474448
  94.1648156  48.7727577  67.3784690  95.1552173  48.8450572  66.2357725
  95.0037026  42.0626442  67.6416217  95.3095903  41.2023806  67.3542132
  95.7289631  42.6544063  67.4415211  92.8124678  51.4399120  74.7397681
  93.1674066  51.6670593  75.5992147  93.4596809  51.7717497  74.1174936
  98.5422415  54.5617556  65.4447010  98.4040313  54.7519152  64.5168199
  98.1858634  55.3236938  65.9015061  98.5691794  56.6294083  70.4558281
  99.0028301  56.5369372  71.3041335  99.2823375  56.6051583  69.8178297
  92.3019689  60.2296177  71.9891382  92.3556712  60.7987113  72.7569098
  91.4334471  60.3998062  71.6245419  85.1818083  49.9313733  73.4715833
  85.8541136  49.7231095  72.8228482  84.3547869  49.7335819  73.0321066
  99.4307344  56.6717783  72.9891167  99.6243234  57.5763594  73.2350442
  99.3307962  56.2125202  73.8229752  91.0843655  46.5575674  75.4881494
  90.4371570  47.2565624  75.3945971  91.8544670  46.9911818  75.8557742
  94.4922453  56.8224526  78.5632047  94.3407959  56.5935078  77.6462131
  94.4827132  57.7795127  78.5763392  91.2607789  54.3956439  73.5478314
  92.1899849  54.5467598  73.3747281  90.8398819  54.4840460  72.6926960
  90.0596121  58.4207103  71.3176852  89.9207207  58.0525888  72.1902790
  89.2710717  58.9354743  71.1460809  85.5845580  53.2056336  74.2318270
  85.4465378  52.4736575  74.8329810  86.4950503  53.1165236  73.9502458
  88.2127881  52.9176295  73.7201950  88.9227499  52.2769487  73.6788569
  88.1697189  53.1689190  74.6428131  96.2014659  59.8543649  76.6408529
  96.1427205  59.1702869  75.9739112  96.6034178  60.5962639  76.1889155
  86.9256815  49.9041513  75.5397590  86.3894172  49.4532252  76.1919186
  86.3373523  50.0387422  74.7968054  96.2032067  57.8183233  74.8722509
  95.3158845  57.4809154  74.9948908  96.7730618  57.0866264  75.1091274
 100.6849407  53.2291450  69.6339071 100.6739283  54.1116165  69.2633004
  99.8166787  52.8763001  69.4393608  93.9149430  56.2822772  65.5659203
  92.9805709  56.4024234  65.3963907  94.0926099  55.3795238  65.3019212
  97.3021982  52.1240091  66.1009237  97.7682434  52.9568082  66.0269539
  97.7529482  51.6585072  66.8054495  87.2443817  60.1265962  74.8147482
  87.9453276  60.7602445  74.9676876  86.7738932  60.4680694  74.0543121
  95.3698213  58.4683912  63.0995389  95.6458057  58.3540507  64.0089263
  94.5002712  58.0701397  63.0607562  95.2738644  44.4920678  70.1400138
  94.3601724  44.7224905  70.3082345  95.7031746  44.5759122  70.9914170
  95.0445103  52.6810570  72.6400032  94.3916553  52.9286477  71.9852485
  95.4225483  51.8674708  72.3062509  91.0932676  53.4230381  79.1266069
  90.4173313  53.3224510  79.7968444  91.9160310  53.2669595  79.5902066
  84.8119952  47.0772458  73.9645570  84.8761279  47.9387289  73.5522968
  84.7487072  46.4646460  73.2317928  94.6866333  59.5558566  79.2172340
  95.2306237  60.1688524  78.7227294  94.1053178  60.1138144  79.7339353
  95.0358755  60.4788304  71.9766917  94.0889090  60.3593655  71.9045244
  95.3841528  59.5910802  72.0593179  87.3958328  46.3682443  75.8005159
  87.9192730  46.6144739  76.5631469  87.1770661  47.2002478  75.3808297
  95.6439310  61.0969579  69.2636142  96.5685857  60.8912440  69.1260593
  95.4754613  60.8485980  70.1725484  88.6010873  47.3096138  73.4854830
  88.2607693  46.5103951  73.8875510  87.8949879  47.6097849  72.9131663
  89.2527345  44.3945450  71.9382153  90.0753414  43.9205929  71.8161043
  89.4965408  45.1735934  72.4380839  90.4888437  48.5104459  71.8408148
  90.2306215  49.4321530  71.8392479  89.9573477  48.1134894  72.5308613
 101.2874017  54.3791669  66.2388534 101.7305163  53.6298995  65.8407657
 100.4100527  54.3701806  65.8562266  98.3201221  58.3821716  63.2482463
  98.8452546  58.7208989  62.5231783  98.2323574  57.4468732  63.0645597
  89.9821270  62.2955790  75.3772339  90.2908397  62.0504937  76.2495039
  90.7796752  62.5002428  74.8891210  87.5240282  48.4713497  79.2732524
  87.5728437  49.3475619  78.8910293  88.0662796  47.9290890  78.7004167
  98.0095128  59.0154620  78.5533661  97.2190671  58.9978759  78.0138160
  97.7728482  59.5542914  79.3082697  98.1293003  55.8647086  75.8666389
  98.1791008  55.6997094  76.8081912  98.0206926  54.9974345  75.4764270
  95.4196765  51.8478014  77.1825696  96.3206628  51.7084479  76.8909694
  95.4944739  52.0132469  78.1223873  89.7539570  49.2244869  76.0278882
  88.8842880  49.5178435  75.7561471  89.9899051  49.8085314  76.7486146
  99.6311199  58.2844028  76.1108411  99.3396008  58.6474008  76.9471872
  99.0183331  57.5711036  75.9321743 100.8306882  55.8496908  68.6310981
 101.6653773  56.2886712  68.7948541 100.9666011  55.3735561  67.8119227
  97.8798388  53.4076642  74.5788469  98.3552509  53.6004289  73.7707320
  96.9563953  53.4635828  74.3331853  92.4578604  45.4424486  73.5444303
  92.9760548  46.1785513  73.2190791  92.1033737  45.7488479  74.3791062
  92.7091198  41.8624769  69.0645199  92.9892952  41.1947958  69.6905626
  93.4941805  42.0553864  68.5519863  96.5800057  50.2842403  72.8116774
  97.5317480  50.3840500  72.8328999  96.4103507  49.4920671  73.3214859
  94.6014436  47.3697986  72.9976175  94.0064368  47.6502998  72.3022664
  94.3164133  47.8591887  73.7692916  99.0588134  53.5048522  71.9259074
  99.0264455  52.5664523  72.1118758  99.6688758  53.5832559  71.1924899
  99.2082623  50.2959566  71.9717357  98.6921672  49.5118022  71.7847286
 100.0922571  49.9678282  72.1363877  96.8693350  44.0400581  67.9313170
  96.6718171  43.7315669  68.8156502  97.4793055  44.7662220  68.0611100
 104.8764684  54.5664529  71.0665111 105.6068073  54.3049817  71.6272814
 104.2671630  53.8293251  71.1067179 102.9579981  52.7072392  71.6639562
 102.2313145  52.5728357  71.0556054 102.5427268  53.0149220  72.4696280
  88.6500096  49.9096562  81.4612465  88.5496823  50.8590919  81.3924556
  88.4321638  49.5814801  80.5888535  96.0045804  46.0310013  65.1888366
  95.4244473  46.6894817  64.8066418  95.7381736  45.2087358  64.7775783
  94.4549370  45.4315071  67.3909686  94.9549148  45.5431606  66.5824005
  95.0984978  45.1276124  68.0310494  94.7870682  48.1910104  64.2444714
  93.8996537  48.4759754  64.0264909  95.2024671  48.0303867  63.3971991
  98.1385218  48.2156625  67.9599053  98.9145608  48.7053077  68.2323670
  97.4133352  48.6414679  68.4170923 100.5757776  48.9284244  69.0172994
 101.1702267  48.6879980  68.3066302 100.6484360  48.2091374  69.6446530
  94.7611705  53.7064640  64.4595004  94.7046907  54.1633191  63.6202636
  95.3140048  52.9455324  64.2817847  98.5716511  49.4954371  65.2845123
  98.3153445  49.0951007  66.1153331  97.9469379  50.2098165  65.1595263
 102.8828849  52.2350445  67.7916415 102.3228407  52.3043634  68.5647977
 102.2772352  52.0591429  67.0715911  95.8400592  58.3937308  60.3891194
  96.6746196  57.9618506  60.2068669  95.6784935  58.2219321  61.3168088
  92.8092392  57.2018333  81.0801096  93.6783551  57.3758985  80.7187731
  92.3299143  58.0212750  80.9576825  92.6194730  40.9920306  65.5878788
  91.8527125  40.4378793  65.7335471  93.0305435  41.0642175  66.4492940
 104.4684868  68.9106959  70.4846371 105.1063278  68.7913706  69.7809711
 104.3505710  69.8587803  70.5434323 101.7594357  70.0169238  76.3794101
 101.7482998  69.6222037  75.5074605 101.9214996  69.2835311  76.9727872
 104.0226136  66.6358412  67.5599579 104.8089225  66.2177836  67.2089996
 104.2864840  67.5404505  67.7281227 109.4234563  66.5733646  68.4632557
 110.1559735  66.0032862  68.6970387 108.6673919  66.1855246  68.9039063
 106.9459984  60.2855220  72.9227166 106.6143308  61.1550631  72.6988381
 106.3505597  59.9691504  73.6021196 106.8388647  65.0050306  70.0020516
 105.9305524  64.9365714  69.7079277 106.7876243  65.4822251  70.8302341
 100.9129513  66.4239952  77.9455413 100.1362847  66.9833872  77.9358278
 101.5520076  66.9096735  78.4670283 108.7050293  63.2066744  71.7798390
 108.0624673  63.4999278  71.1338184 108.2005222  63.0919665  72.5851586
  99.1675885  69.2325405  77.5073380  99.9090569  69.7710449  77.2308204
  98.4612870  69.8591694  77.6644932 104.6431225  71.3754545  76.1045542
 105.0514581  70.9336956  75.3600174 103.9208486  70.8007173  76.3579734
 104.9660039  71.9355736  69.8597830 104.3368902  72.1001450  69.1573898
 104.5785701  72.3497346  70.6308795 104.1461740  63.9731521  75.1360272
 103.9022672  64.7273581  74.5994548 104.4221670  64.3516868  75.9707519
 106.1000203  70.5170133  73.8137538 106.3117098  71.1601893  73.1371919
 106.0529951  69.6832449  73.3459468 103.7026432  63.1287954  70.7174110
 102.8410911  63.4269207  71.0090847 103.7288866  63.3458352  69.7855143
  97.1817991  60.6885819  80.6713941  96.7884937  60.1352017  81.3461585
  97.9984132  60.9996397  81.0620459 100.0985952  62.1043698  78.2634198
 100.8395666  62.7050851  78.1838660 100.3303875  61.3621336  77.7052240
 104.0443115  58.1324801  72.5398479 103.7007385  59.0226443  72.4637590
 104.4122078  57.9426459  71.6768064 101.5940509  62.9683113  66.1056153
 100.7382105  62.5789963  65.9261792 102.0067461  63.0475074  65.2455938
 103.1239656  60.5029456  70.5047713 102.6204451  60.4659591  69.6915518
 103.4170263  61.4122199  70.5644369  99.3682542  60.5868186  69.5113894
 100.2335538  60.3910995  69.1519784  99.4360051  60.3578538  70.4383251
  99.2767528  59.6911643  65.6105331  98.6231941  59.3760660  64.9861945
  99.2348003  59.0687383  66.3365154 102.5105269  66.1793576  69.9352978
 101.5927830  66.4008523  69.7774666 102.9265412  66.2539887  69.0764686
 105.8430781  57.3918360  67.6416217 106.1489658  56.5315724  67.3542132
 106.5683386  57.9835980  67.4415211 101.9237409  61.8867592  75.4881494
 101.2765324  62.5857541  75.3945971 102.6938425  62.3203735  75.8557742
 105.3316207  72.1516444  78.5632047 105.1801714  71.9226995  77.6462131
 105.3220887  73.1087045  78.5763392 103.6713404  62.8543002  67.9920779
 104.1682104  62.1012964  67.6721849 102.9000386  62.8907319  67.4263988
 106.1132399  59.8212596  70.1400138 105.1995479  60.0516822  70.3082345
 106.5425500  59.9051040  70.9914170 105.8838857  68.0102488  72.6400032
 105.2310308  68.2578395  71.9852485 106.2619237  67.1966626  72.3062509
 101.9326430  68.7522299  79.1266069 101.2567067  68.6516428  79.7968444
 102.7554064  68.5961512  79.5902066  98.2352082  61.6974361  75.8005159
  98.7586484  61.9436657  76.5631469  98.0164416  62.5294395  75.3808297
 100.0921099  59.7237368  71.9382153 100.9147169  59.2497846  71.8161043
 100.3359163  60.5027852  72.4380839  99.4756061  63.4059037  69.7955021
  99.4617630  62.5100130  69.4587319 100.1928489  63.4129700  70.4293307
 101.3282192  63.8396377  71.8408148 101.0699969  64.7613448  71.8392479
 100.7967232  63.4426811  72.5308613 101.7484147  59.9728327  68.2009311
 101.7705844  60.0367661  67.2461291 102.1652206  59.1332836  68.3949817
  98.3634036  63.8005414  79.2732524  98.4122192  64.6767537  78.8910293
  98.9056551  63.2582807  78.7004167 108.8488882  74.3446538  78.5533661
 108.0584426  74.3270676  78.0138160 108.6122237  74.8834831  79.3082697
 108.9686757  71.1939004  75.8666389 109.0184762  71.0289011  76.8081912
 108.8600680  70.3266263  75.4764270 106.2590519  67.1769932  77.1825696
 107.1600382  67.0376397  76.8909694 106.3338494  67.3424387  78.1223873
 110.4704954  73.6135946  76.1108411 110.1789762  73.9765926  76.9471872
 109.8577085  72.9002954  75.9321743 108.7192142  68.7368560  74.5788469
 109.1946264  68.9296206  73.7707320 107.7957708  68.7927746  74.3331853
 103.2972359  60.7716404  73.5444303 103.8154303  61.5077431  73.2190791
 102.9427491  61.0780397  74.3791062 103.5484953  57.1916686  69.0645199
 103.8286707  56.5239875  69.6905626 104.3335560  57.3845782  68.5519863
 107.4193811  65.6134320  72.8116774 108.3711234  65.7132418  72.8328999
 107.2497262  64.8212589  73.3214859 105.4408191  62.6989903  72.9976175
 104.8458123  62.9794916  72.3022664 105.1557887  63.1883804  73.7692916
 109.8981889  68.8340440  71.9259074 109.8658209  67.8956441  72.1118758
 110.5082513  68.9124477  71.1924899 110.0476377  65.6251483  71.9717357
 109.5315426  64.8409940  71.7847286 110.9316326  65.2970200  72.1363877
 107.7087104  59.3692499  67.9313170 107.5111925  59.0607587  68.8156502
 108.3186810  60.0954138  68.0611100 115.7158439  69.8956447  71.0665111
 116.4461827  69.6341735  71.6272814 115.1065384  69.1585169  71.1067179
 113.7973736  68.0364309  71.6639562 113.0706899  67.9020274  71.0556054
 113.3821023  68.3441138  72.4696280 101.6203912  71.7554239  79.4286935
 102.5406922  71.9332838  79.6226982 101.5853495  70.8110284  79.2766634
 101.5370203  60.1723359  64.0585405 100.7270931  59.8270444  64.4340651
 102.2254620  59.8630903  64.6473016 103.4660751  59.2501406  65.6809701
 104.0191790  59.6696859  66.3399724 103.7030837  58.3237154  65.7232657
  99.4893850  65.2388479  81.4612465  99.3890577  66.1882836  81.3924556
  99.2715392  64.9106718  80.5888535 106.8439558  61.3601931  65.1888366
 106.2638227  62.0186735  64.8066418 106.5775491  60.5379276  64.7775783
 105.2943124  60.7606989  67.3909686 105.7942903  60.8723523  66.5824005
 105.9378732  60.4568042  68.0310494  99.3525120  68.6685618  80.2777527
  98.8692202  69.4685978  80.4841416  99.4386059  68.6793563  79.3244971
 105.6264436  63.5202021  64.2444714 104.7390291  63.8051672  64.0264909
 106.0418425  63.3595785  63.3971991 108.9778972  63.5448542  67.9599053
 109.7539362  64.0344995  68.2323670 108.2527106  63.9706597  68.4170923
 111.4151531  64.2576162  69.0172994 112.0096022  64.0171897  68.3066302
 111.4878115  63.5383292  69.6446530 113.7222604  67.5642362  67.7916415
 113.1622162  67.6335552  68.5647977 113.1166107  67.3883347  67.0715911
 103.6486146  72.5310250  81.0801096 104.5177306  72.7050903  80.7187731
 103.1692898  73.3504667  80.9576825 103.4588484  56.3212224  65.5878788
 102.6920880  55.7670711  65.7335471 103.8699189  56.3934093  66.4492940
  95.4630245  62.6097020  79.6783970  96.3261707  62.2533825  79.8887294
  94.8895656  62.2710915  80.3659374 105.5219576  87.5412972  69.2489007
 106.3140868  87.2003797  68.8335306 105.7616226  87.6507947  70.1691160
 109.2606037  94.5804004  65.2894046 109.1830067  95.5311829  65.3682527
 108.6567681  94.2349876  65.9468973 111.7523267  81.7531869  77.9455413
 110.9756601  82.3125789  77.9358278 112.3913830  82.2388652  78.4670283
 110.0069639  84.5617323  77.5073380 110.7484324  85.1002367  77.2308204
 109.3006625  85.1883611  77.6644932 118.0539785  88.7234006  71.9859895
 118.8757229  88.3214193  71.7042577 118.0502188  88.6202240  72.9376011
 111.5344406  89.9386157  64.0099586 111.3990081  90.7837693  64.4384434
 112.0754219  90.1405434  63.2465520 108.0211746  76.0177737  80.6713941
 107.6278691  75.4643935  81.3461585 108.8377886  76.3288315  81.0620459
 106.7968688  90.5727351  66.6650264 106.9735317  91.4945316  66.4771248
 107.5925522  90.2585770  67.0944644 110.9379707  77.4335616  78.2634198
 111.6789420  78.0342769  78.1838660 111.1697630  76.6913254  77.7052240
 113.1612883  90.5609723  78.1399928 112.7176737  89.7746102  77.8220833
 113.8230096  90.7488874  77.4743819 116.0812928  90.8518536  66.7523598
 116.3735902  91.4123594  66.0335964 116.5911548  91.1447097  67.5076758
 111.0446553  91.6298888  67.8417052 111.0022732  91.8559734  66.9125584
 111.9609252  91.3962262  67.9902853 121.1094853  87.3301619  72.9891167
 121.3030743  88.2347429  73.2350442 121.0095471  86.8709038  73.8229752
 116.1709962  87.4808361  78.5632047 116.0195468  87.2518913  77.6462131
 116.1614641  88.4378963  78.5763392 112.3331782  94.1800035  62.6602388
 112.5083537  93.7088078  63.4748011 111.6464570  94.8065801  62.8883649
 117.8802168  90.5127484  76.6408529 117.8214714  89.8286704  75.9739112
 118.2821687  91.2546474  76.1889155 117.8819576  88.4767068  74.8722509
 116.9946354  88.1392990  74.9948908 118.4518127  87.7450099  75.1091274
 111.4120729  93.1368520  71.8383752 111.3390900  93.9423492  72.3503057
 110.9698122  93.3360486  71.0131774 111.2010509  92.3740290  65.3486574
 110.4178030  92.9161970  65.4424798 111.9003254  92.8914270  65.7480815
 113.6839786  93.3754098  66.7428202 113.8662180  92.5575754  67.2055955
 114.5072772  93.5921791  66.3053092 112.7720185  84.0814216  79.1266069
 112.0960822  83.9808346  79.7968444 113.5947819  83.9253430  79.5902066
 107.3737699  93.3537400  66.7641027 106.7048075  93.8383528  66.2805067
 107.2350569  93.6006621  67.6784405 116.3653842  90.2142401  79.2172340
 116.9093746  90.8272359  78.7227294 115.7840687  90.7721980  79.7339353
 113.7192697  90.9324856  68.1771270 113.5717659  90.0041563  68.3578840
 114.5446190  90.9544946  67.6928345 117.3226819  91.7553414  69.2636142
 118.2473366  91.5496276  69.1260593 117.1542122  91.5069815  70.1725484
 111.6829391  95.1077535  67.6077716 111.2434382  94.6153914  68.3010573
 112.4337508  94.5650503  67.3669791 109.1303263  90.6515544  69.6800018
 108.5083273  89.9886249  69.3802246 109.8008130  90.6776676  68.9973665
 119.6882637  89.6738455  78.5533661 118.8978180  89.6562594  78.0138160
 119.4515991  90.2126749  79.3082697 119.8080512  86.5230922  75.8666389
 119.8578517  86.3580929  76.8081912 119.6994435  85.6558181  75.4764270
 117.0984274  82.5061850  77.1825696 117.9994137  82.3668315  76.8909694
 117.1732248  82.6716305  78.1223873 121.3098708  88.9427863  76.1108411
 121.0183517  89.3057844  76.9471872 120.6970840  88.2294871  75.9321743
 119.5585897  84.0660478  74.5788469 120.0340018  84.2588124  73.7707320
 118.6351462  84.1219664  74.3331853 120.7375643  84.1632358  71.9259074
 120.7051964  83.2248358  72.1118758 121.3476267  84.2416394  71.1924899
 110.3287605  80.5680397  81.4612465 110.2284332  81.5174754  81.3924556
 110.1109147  80.2398636  80.5888535 110.4119683  93.7330256  69.4200608
 109.4615314  93.7332117  69.3064981 110.7152169  92.9862990  68.9036643
 126.1472377  99.5690794  70.4846371 126.7850786  99.4497541  69.7809711
 126.0293219 100.5171638  70.5434323 122.9562083  99.5218222  70.4207895
 122.6180594  99.4059287  69.5328430 123.8251851  99.1209387  70.4008901
 118.8148898 101.3753699  66.4104786 118.2513764 101.2843635  65.6421074
 118.7001294 100.5553603  66.8907279 123.4381866 100.6753074  76.3794101
 123.4270507 100.2805872  75.5074605 123.6002505  99.9419146  76.9727872
 124.3948457 105.0424666  61.7219251 123.7436437 105.6278747  61.3353265
 125.1892820 105.5730861  61.7814289 118.3204084 102.1313803  62.1206386
 119.0934960 101.5842790  61.9819261 118.6729483 102.9958053  62.3320847
 121.0845334 100.8367034  71.9174644 121.6808906 100.6123057  71.2031607
 121.1420305 100.0951780  72.5200092 120.6570362  98.2906469  59.7524835
 120.9095883  97.7687991  58.9908298 119.7194921  98.1272615  59.8551519
 125.7013645  97.2942248  67.5599579 126.4876734  96.8761671  67.2089996
 125.9652349  98.1988340  67.7281227 125.8723722 102.7315098  62.2588235
 125.2369555 102.8049725  62.9709140 125.5421129 103.3208697  61.5807315
 131.1022072  97.2317481  68.4632557 131.8347244  96.6616698  68.6970387
 130.3461428  96.8439081  68.9039063 120.3766651 100.1934575  61.9549210
 120.2602909  99.5179479  62.6230295 120.4868911  99.7066949  61.1381363
 122.7198192  99.6544723  65.6595900 122.3556399  99.1275344  66.3708821
 123.5765308  99.2643192  65.4862385 128.6247492  90.9439055  72.9227166
 128.2930817  91.8134466  72.6988381 128.0293106  90.6275339  73.6021196
 122.3603679  94.6834622  60.6557248 122.5278081  95.5514859  61.0227719
 122.1700848  94.8461904  59.7318537 125.1179012 103.1451601  72.3223079
 124.8179735 104.0476640  72.2138886 124.7730072 102.8783784  73.1744231
 128.5176156  95.6634141  70.0020516 127.6093033  95.5949550  69.7079277
 128.4663752  96.1406086  70.8302341 122.3392900  97.1392280  61.6403915
 122.2192525  97.5849331  62.4789395 121.6445488  97.4877597  61.0817453
 120.0999792 109.9095921  65.2894046 120.0223822 110.8603747  65.3682527
 119.4961435 109.5641794  65.9468973 122.5917022  97.0823787  77.9455413
 121.8150356  97.6417707  77.9358278 123.2307585  97.5680570  78.4670283
 130.3837802  93.8650580  71.7798390 129.7412182  94.1583113  71.1338184
 129.8792731  93.7503500  72.5851586 128.0377966  97.6113753  62.4684249
 128.9495822  97.8441140  62.2931947 127.5287613  98.1950797  61.9059328
 126.3218734 102.0338381  76.1045542 126.7302090 101.5920791  75.3600174
 125.5995995 101.4591008  76.3579734 122.6749804  96.9710988  73.4779099
 123.5210999  97.3950401  73.6213748 122.6148441  96.3144612  74.1717662
 126.6447548 102.5939571  69.8597830 126.0156411 102.7585286  69.1573898
 126.2573210 103.0081181  70.6308795 130.5236780 103.5294009  67.2142194
 129.8387818 103.9092911  66.6639228 130.6080629 104.1389336  67.9474142
 125.8249249  94.6315356  75.1360272 125.5810181  95.3857416  74.5994548
 126.1009179  95.0100703  75.9707519 127.7787712 101.1753968  73.8137538
 127.9904607 101.8185728  73.1371919 127.7317460 100.3416285  73.3459468
 125.3813941  93.7871789  70.7174110 124.5198420  94.0853042  71.0090847
 125.4076375  94.0042188  69.7855143 122.1975510 102.3313979  67.1247916
 122.6613856 102.6101682  66.3352538 121.9332308 101.4297424  66.9421006
 121.1344396  98.4537132  63.9337481 121.8368439  98.9058175  64.4011407
 120.8025025  97.8120951  64.5617374 114.8769730  96.7120684  69.2354614
 114.0868784  96.9678213  68.7594725 115.3680977  97.5269022  69.3406655
 128.8933540 104.0525924  71.9859895 129.7150983 103.6506111  71.7042577
 128.8895943 103.9494158  72.9376011 116.8284475  97.0765264  66.1938091
 116.0315639  97.1883958  66.7121587 116.6010068  97.4151916  65.3278981
 136.9839533 100.3964672  68.3344867 136.2303241  99.8272070  68.1788871
 137.1187074 100.3627337  69.2815501 122.3738161 105.2678074  64.0099586
 122.2383836 106.1129610  64.4384434 122.9147973 105.4697352  63.2465520
 118.8605500  91.3469654  80.6713941 118.4672446  90.7935853  81.3461585
 119.6771641  91.6580233  81.0620459 115.8267558 102.7853512  64.5827511
 116.3392079 103.5796763  64.7333076 116.4790271 102.0879803  64.5161112
 121.7773461  92.7627533  78.2634198 122.5183175  93.3634687  78.1838660
 122.0091384  92.0205171  77.7052240 124.0006637 105.8901641  78.1399928
 123.5570491 105.1038020  77.8220833 124.6623851 106.0780791  77.4743819
 126.0987875 106.1704441  76.1681329 126.0806351 106.9913322  75.6761598
 127.0207795 106.0458516  76.3931470 122.5560929 103.6848570  77.0104838
 123.0889266 102.9236859  76.7804146 122.0275010 103.3922222  77.7528992
 125.7230624  88.7908636  72.5398479 125.3794894  89.6810278  72.4637590
 126.0909587  88.6010294  71.6768064 113.7916475 101.1142167  65.3587082
 114.6291697 101.5239175  65.1420789 113.9694743 100.1741609  65.3287275
 125.6880907  98.7817247  61.0470915 125.1727530  99.5521852  61.2859302
 125.4158215  98.1082384  61.6703976 123.2728018  93.6266948  66.1056153
 122.4169614  93.2373799  65.9261792 123.6854970  93.7058909  65.2455938
 121.0470051  91.2452021  69.5113894 121.9123047  91.0494830  69.1519784
 121.1147559  91.0162373  70.4383251 130.6615181 101.5349602  62.9824088
 129.8844624 101.1960762  62.5379250 131.3406662 101.5402225  62.3079053
 125.4767210  96.6544340  62.8730696 125.1717346  96.9690489  63.7240839
 126.4297652  96.7325759  62.9158029 123.9213642 102.8134563  64.5223650
 123.3935004 102.0787322  64.2096887 123.4201145 103.5909239  64.2763618
 128.9006488 101.0083583  69.6390696 128.2430163 101.6982845  69.7270825
 129.7046887 101.3980015  69.9824682 118.6532370  93.4754229  66.8830261
 119.2276122  93.2529411  66.1503454 119.2403352  93.5442924  67.6358862
 127.7111947  99.3627956  67.6894638 128.2243829  99.9957948  68.1916347
 128.3613171  98.7629152  67.3237998 118.9801957  95.5058690  60.9026146
 118.1439269  95.8433377  61.2235421 118.8406726  95.3707670  59.9653283
 122.0666242 100.6314773  57.5258623 121.1593304 100.4004027  57.7249772
 122.5637274  99.8352392  57.7132604 124.9734321 109.3412280  60.4455309
 124.2996020 109.6443977  61.0540267 125.3600143 110.1441361  60.0960766
 124.1892778  96.8377412  69.9352978 123.2715339  97.0592359  69.7774666
 124.6052921  96.9123722  69.0764686 124.9727825  98.2368827  65.0655659
 125.7199644  98.7490224  64.7562781 125.2419415  97.9152880  65.9260052
 123.2454476 100.7327368  62.0482613 122.3365695 100.4486401  62.1455083
 123.2749559 101.1526447  61.1885920 128.4773743 104.3433957  65.8173780
 128.0236070 103.5024867  65.8738971 127.8467710 104.9795356  66.1548561
 127.4206663  95.2725944  67.0474448 126.6829419  94.7603330  67.3784690
 127.6733436  94.8326325  66.2357725 126.9206682 106.1810454  66.7523598
 127.2129657 106.7415511  66.0335964 127.4305303 106.4739015  67.5076758
 127.5218290  88.0502196  67.6416217 127.8277167  87.1899559  67.3542132
 128.2470895  88.6419816  67.4415211 113.8142646  98.4532882  66.0297815
 113.6167046  97.8602243  65.3048882 113.2589310  98.1485092  66.7473754
 121.7939370  98.3455989  68.1492408 121.8487979  97.3929825  68.0734885
 120.9830572  98.5015428  68.6333707 122.9430563 102.2736112  59.3870691
 122.5049993 101.5571971  58.9276329 123.6841004 102.5012226  58.8255783
 119.7331730  96.9633048  65.9082787 118.9199595  97.2627219  66.3147979
 120.2290724  96.5688737  66.6257269 125.3305941  97.4274873  74.7397681
 125.6855329  97.6546346  75.5992147 125.9778073  97.7593250  74.1174936
 131.0603678 100.5493309  65.4447010 130.9221577 100.7394905  64.5168199
 130.7039897 101.3112692  65.9015061 119.2245804  94.5351404  71.5244022
 119.8645184  94.3940163  70.8266985 118.3923335  94.2485917  71.1482624
 131.0873058 102.6169836  70.4558281 131.5209565 102.5245125  71.3041335
 131.8004639 102.5927336  69.8178297 124.8200953 106.2171930  71.9891382
 124.8737975 106.7862866  72.7569098 123.9515734 106.3873815  71.6245419
 116.3088872  97.9796916  63.7138767 115.3786460  97.9181371  63.9308729
 116.4046344  97.4572869  62.9175408 116.2274421  94.5051729  66.3017009
 116.4881238  95.4197062  66.1926169 117.0491593  94.0376171  66.4513622
 117.6999346  95.9189486  73.4715833 118.3722400  95.7106848  72.8228482
 116.8729133  95.7211572  73.0321066 131.9488607 102.6593536  72.9891167
 132.1424498 103.5639347  73.2350442 131.8489226 102.2000955  73.8229752
 123.6024918  92.5451427  75.4881494 122.9552833  93.2441377  75.3945971
 124.3725934  92.9787571  75.8557742 127.0103716 102.8100279  78.5632047
 126.8589223 102.5810831  77.6462131 127.0008396 103.7670881  78.5763392
 123.7789053 100.3832192  73.5478314 124.7081113 100.5343351  73.3747281
 123.3580083 100.4716213  72.6926960 123.1725536 109.5091953  62.6602388
 123.3477292 109.0379996  63.4748011 122.4858324 110.1357719  62.8883649
 124.1282599 103.7864459  68.7065689 123.7932432 103.7465229  69.6023339
 123.6286545 103.1209175  68.2336100 127.0641791 101.1320493  58.9802749
 126.4470962 100.4067321  58.8835802 126.5958280 101.8929854  58.6369823
 120.7309144  98.9052048  73.7201950 121.4408763  98.2645241  73.6788569
 120.6878452  99.1564943  74.6428131 128.7195923 105.8419402  76.6408529
 128.6608469 105.1578622  75.9739112 129.1215441 106.5838392  76.1889155
 119.4438078  95.8917266  75.5397590 118.9075435  95.4408005  76.1919186
 118.8554786  96.0263175  74.7968054 117.7386622 112.6581315  69.4342248
 117.9783220 113.2899840  70.1121267 116.8955818 112.3069356  69.7207607
 118.8540337  95.3505918  58.1024053 117.9769803  95.2294718  57.7386300
 119.3298090  94.5591996  57.8502942 128.7213330 103.8058986  74.8722509
 127.8340109 103.4684907  74.9948908 129.2911881 103.0742017  75.1091274
 122.0404263 107.7032208  65.3486574 121.2571785 108.2453888  65.4424798
 122.7397008 108.2206188  65.7480815 125.3500913  93.5126837  67.9920779
 125.8469613  92.7596800  67.6721849 124.5787895  93.5491154  67.4263988
 133.2030671  99.2167203  69.6339071 133.1920547 100.0991918  69.2633004
 132.3348050  98.8638754  69.4393608 124.7113167 108.3647272  73.9941911
 125.4241139 108.9994737  73.9217812 124.2203196 108.4611138  73.1781913
 126.4330694 102.2698525  65.5659203 125.4986973 102.3899987  65.3963907
 126.6107362 101.3670991  65.3019212 121.9335882  95.6544220  67.7192464
 121.5633669  95.1015261  68.4073369 122.4294974  95.0502354  67.1667464
 129.8203245  98.1115844  66.1009237 130.2863697  98.9443836  66.0269539
 130.2710746  97.6460825  66.8054495 127.8879476 104.4559665  63.0995389
 128.1639320 104.3416260  64.0089263 127.0183975 104.0577150  63.0607562
 127.7919908  90.4796431  70.1400138 126.8782988  90.7100658  70.3082345
 128.2213009  90.5634875  70.9914170 127.5626366  98.6686323  72.6400032
 126.9097817  98.9162230  71.9852485 127.9406746  97.8550461  72.3062509
 124.5233540 108.7046016  66.7428202 124.7055935 107.8867672  67.2055955
 125.3466526 108.9213708  66.3053092 124.8575706 107.6314201  64.0043251
 125.3863472 107.1206656  63.3913413 125.1203925 107.3156731  64.8688784
 123.6113939  99.4106134  79.1266069 122.9354576  99.3100263  79.7968444
 124.4341573  99.2545348  79.5902066 122.3536722 110.7173061  73.3623685
 122.9055030 110.8804683  74.1272770 122.6942916 111.3077499  72.6903710
 127.2047597 105.5434319  79.2172340 127.7487501 106.1564277  78.7227294
 126.6234441 106.1013897  79.7339353 113.5819031  96.9447773  63.5436959
 113.8772472  96.0358451  63.4904013 112.6807067  96.9235512  63.2217961
 125.4905110 108.6655037  70.3487367 125.3656249 107.8644777  69.8398313
 126.1484201 109.1601230  69.8601337 117.1113278  95.0203769  69.5264508
 116.3899864  95.6339737  69.3871981 117.9006534  95.5561534  69.4481153
 127.5540018 106.4664057  71.9766917 126.6070354 106.3469408  71.9045244
 127.9022791 105.5786555  72.0593179 119.9139591  92.3558196  75.8005159
 120.4373993  92.6020492  76.5631469 119.6951925  93.1878231  75.3808297
 124.5586451 106.2616773  68.1771270 124.4111414 105.3333481  68.3578840
 125.3839945 106.2836864  67.6928345 118.4248696  94.9134840  64.0351762
 118.7644768  95.4420762  63.3130370 118.8720816  95.2515246  64.8110328
 128.1620573 107.0845332  69.2636142 129.0867121 106.8788193  69.1260593
 127.9935877 106.8361733  70.1725484 121.1192136  93.2971891  73.4854830
 120.7788957  92.4979704  73.8875510 120.4131143  93.5973602  72.9131663
 120.4116843  93.4109462  62.2345054 121.1325205  93.7890715  61.7308771
 119.7882147  94.1298339  62.3380032 124.5547966  94.1154611  63.1703387
 124.7711580  94.9979249  62.8692215 124.0742033  93.7240824  62.4409029
 119.2947187  97.0740324  69.7474131 119.1491768  97.3880627  70.6398413
 118.8172391  97.6925224  69.1945030 121.1543570  94.0642872  69.7955021
 121.1405139  93.1683965  69.4587319 121.8715998  94.0713536  70.4293307
 123.0069701  94.4980212  71.8408148 122.7487478  95.4197283  71.8392479
 122.4754741  94.1010647  72.5308613 127.9515889 107.6030999  64.6198234
 128.1252767 107.0377422  63.8672086 128.4444781 108.4031894  64.4377724
 120.5580466  92.9457252  65.0642591 120.6796377  92.0173899  65.2633479
 120.2682508  92.9595938  64.1520907 133.8055281 100.3667422  66.2388534
 134.2486427  99.6174748  65.8407657 132.9281791 100.3577559  65.8562266
 128.9391062 106.9197764  61.7195132 129.6341966 107.5404456  61.9382447
 129.2814212 106.0693115  61.9947510 130.8382485 104.3697469  63.2482463
 131.3633809 104.7084742  62.5231783 130.7504838 103.4344485  63.0645597
 122.5002534 108.2831543  75.3772339 122.8089660 108.0380690  76.2495039
 123.2978016 108.4878181  74.8891210 122.5223146 110.4369453  67.6077716
 122.0828136 109.9445831  68.3010573 123.2731263 109.8942420  67.3669791
 120.0421545  94.4589250  79.2732524 120.0909701  95.3351373  78.8910293
 120.5844060  93.9166643  78.7004167 130.5276391 105.0030373  78.5533661
 129.7371935 104.9854512  78.0138160 130.2909746 105.5418667  79.3082697
 130.6474266 101.8522839  75.8666389 130.6972271 101.6872847  76.8081912
 130.5388189 100.9850098  75.4764270 119.5310525 104.5311385  63.1558478
 119.6798645 105.2146849  62.5025151 120.3376968 104.5116475  63.6707934
 127.9378028  97.8353767  77.1825696 128.8387891  97.6960232  76.8909694
 128.0126003  98.0008222  78.1223873 122.2720834  95.2120622  76.0278882
 121.4024143  95.5054188  75.7561471 122.5080314  95.7961067  76.7486146
 132.1492463 104.2719781  76.1108411 131.8577271 104.6349761  76.9471872
 131.5364594 103.5586789  75.9321743 133.3488145 101.8372661  68.6310981
 134.1835037 102.2762465  68.7948541 133.4847274 101.3611314  67.8119227
 130.3979651  99.3952395  74.5788469 130.8733773  99.5880042  73.7707320
 129.4745217  99.4511581  74.3331853 117.2863158 100.5576563  64.1619547
 117.0409200  99.6538893  64.3599757 117.4559072 100.5593713  63.2199025
 124.9759868  91.4300239  73.5444303 125.4941811  92.1661266  73.2190791
 124.6215000  91.7364232  74.3791062 116.5558805  96.2904920  61.6605709
 115.8628050  96.3649275  61.0045745 116.3110557  95.5265264  62.1827226
 123.0305930 107.0259515  60.6270226 122.4579897 107.6449703  60.1740698
 123.6038724 107.5758877  61.1610148 129.0981320  96.2718156  72.8116774
 130.0498743  96.3716253  72.8328999 128.9284771  95.4796424  73.3214859
 127.1195700  93.3573739  72.9976175 126.5245632  93.6378752  72.3022664
 126.8345396  93.8467640  73.7692916 126.2503190 107.3096666  61.7578808
 127.1833863 107.2442227  61.9611683 126.1626403 108.1452932  61.2993341
 128.8791207 106.6262536  58.7182756 128.8004838 106.2922400  59.6118513
 129.7000874 107.1184304  58.7174228 131.5769398  99.4924275  71.9259074
 131.5445718  98.5540276  72.1118758 132.1870022  99.5708312  71.1924899
 123.4152729  98.3620328  57.9686278 124.3611834  98.2326536  58.0374696
 123.0366974  97.6234990  58.4455706 131.7263886  96.2835319  71.9717357
 131.2102935  95.4993775  71.7847286 132.6103835  95.9554035  72.1363877
 129.3874613  90.0276334  67.9313170 129.1899434  89.7191422  68.8156502
 129.9974319  90.7537973  68.0611100 135.4761245  98.6948145  71.6639562
 134.7494408  98.5604110  71.0556054 135.0608532  99.0024973  72.4696280
 123.2991421 102.4138074  79.4286935 124.2194431 102.5916673  79.6226982
 123.2641004 101.4694120  79.2766634 121.5995646  96.2870305  57.9041163
 120.6927101  95.9903417  57.9803877 121.8771627  95.9900123  57.0375450
 112.5173586  97.6076668  68.3540210 112.1976371  96.7541976  68.0614584
 111.9707015  97.8225246  69.1098177 121.1681359  95.8972315  81.4612465
 121.0678086  96.8466672  81.3924556 120.9502901  95.5690554  80.5888535
 120.3694431  93.1457240  58.0453143 121.2313595  93.4712138  58.3048960
 120.5544775  92.3588736  57.5326208 128.5227067  92.0185766  65.1888366
 127.9425736  92.6770570  64.8066418 128.2563000  91.1963111  64.7775783
 126.9730633  91.4190824  67.3909686 127.4730412  91.5307359  66.5824005
 127.6166241  91.1151877  68.0310494 121.0312629  99.3269454  80.2777527
 120.5479711 100.1269814  80.4841416 121.1173568  99.3377398  79.3244971
 127.3051945  94.1785857  64.2444714 126.4177800  94.4635507  64.0264909
 127.7205934  94.0179620  63.3971991 130.6566481  94.2032378  67.9599053
 131.4326871  94.6928830  68.2323670 129.9314615  94.6290432  68.4170923
 133.0939040  94.9159997  69.0172994 133.6883531  94.6755733  68.3066302
 133.1665624  94.1967127  69.6446530 126.4495159 103.9430531  58.3392734
 127.1531009 104.1480534  58.9550389 125.7257807 104.5107293  58.6041817
 127.2792969  99.6940393  64.4595004 127.2228170 100.1508944  63.6202636
 127.8321311  98.9331077  64.2817847 131.0897775  95.4830124  65.2845123
 130.8334709  95.0826760  66.1153331 130.4650643  96.1973918  65.1595263
 135.4010113  98.2226198  67.7916415 134.8409671  98.2919387  68.5647977
 134.7953616  98.0467182  67.0715911 128.3581856 104.3813061  60.3891194
 129.1927460 103.9494259  60.2068669 128.1966199 104.2095074  61.3168088
 128.0127748 100.8845174  61.7547533 127.9576552 100.7189445  60.8135977
 127.3873803 101.5921207  61.9109723 125.3273655 103.1894086  81.0801096
 126.1964815 103.3634738  80.7187731 124.8480407 104.0088503  80.9576825
 117.1417754  93.2680855  79.6783970 118.0049216  92.9117660  79.8887294
 116.5683165  92.9294750  80.3659374 133.7955837 114.8510140  70.4207895
 133.4574349 114.7351204  69.5328430 134.6645605 114.4501305  70.4008901
 129.6542653 116.7045616  66.4104786 129.0907518 116.6135553  65.6421074
 129.5395048 115.8845521  66.8907279 134.2775620 116.0044992  76.3794101
 134.2664261 115.6097790  75.5074605 134.4396260 115.2711064  76.9727872
 127.2007085 118.1996808  69.2489007 127.9928377 117.8587632  68.8335306
 127.4403735 118.3091783  70.1691160 129.1597839 117.4605721  62.1206386
 129.9328715 116.9134708  61.9819261 129.5123238 118.3249970  62.3320847
 130.9982881 118.7882103  75.3273285 130.7072747 119.6927734  75.2119951
 131.6339866 118.8298631  76.0417354 131.9239088 116.1658952  71.9174644
 132.5202661 115.9414974  71.2031607 131.9814060 115.4243697  72.5200092
 131.4964117 113.6198387  59.7524835 131.7489637 113.0979908  58.9908298
 130.5588676 113.4564533  59.8551519 136.5407400 112.6234166  67.5599579
 137.3270489 112.2053589  67.2089996 136.8046104 113.5280258  67.7281227
 131.2160405 115.5226493  61.9549210 131.0996664 114.8471396  62.6230295
 131.3262665 115.0358867  61.1381363 133.5591946 114.9836640  65.6595900
 133.1950154 114.4567261  66.3708821 134.4159062 114.5935109  65.4862385
 133.1997433 110.0126540  60.6557248 133.3671836 110.8806776  61.0227719
 133.0094602 110.1753822  59.7318537 129.4085248 114.9257316  68.3559783
 128.4835744 114.7933530  68.5637475 129.6569661 115.7051535  68.8529725
 133.1786654 112.4684197  61.6403915 133.0586279 112.9141248  62.4789395
 132.4839243 112.8169515  61.0817453 126.7694059 114.5690589  69.1903572
 126.8986440 114.8225068  70.1042984 126.0891510 115.1618297  68.8708227
 133.4310776 112.4115705  77.9455413 132.6544110 112.9709625  77.9358278
 134.0701339 112.8972488  78.4670283 131.6857148 115.2201158  77.5073380
 132.4271833 115.7586202  77.2308204 130.9794134 115.8467447  77.6644932
 137.1612488 117.3630298  76.1045542 137.5695844 116.9212709  75.3600174
 136.4389750 116.7882926  76.3579734 133.5143558 112.3002905  73.4779099
 134.3604753 112.7242319  73.6213748 133.4542196 111.6436530  74.1717662
 136.6643003 109.9607274  75.1360272 136.4203935 110.7149334  74.5994548
 136.9402934 110.3392621  75.9707519 136.2207695 109.1163707  70.7174110
 135.3592174 109.4144960  71.0090847 136.2470130 109.3334105  69.7855143
 133.0369265 117.6605897  67.1247916 133.5007610 117.9393600  66.3352538
 132.7726063 116.7589342  66.9421006 129.9293346 117.2077379  70.0627679
 130.4994703 117.6364647  69.4245163 130.5201457 116.9259963  70.7611864
 131.9738151 113.7829050  63.9337481 132.6762194 114.2350093  64.4011407
 131.6418779 113.1412868  64.5617374 130.4218512 112.3740806  78.3088690
 129.7917173 113.0557087  78.5424087 130.3154600 112.2623888  77.3641828
 125.7163485 112.0412602  69.2354614 124.9262539 112.2970131  68.7594725
 126.2074732 112.8560940  69.3406655 127.6678230 112.4057181  66.1938091
 126.8709393 112.5175876  66.7121587 127.4403822 112.7443834  65.3278981
 133.4983898 118.9301885  74.1420606 133.5628330 119.3922292  74.9778777
 132.7894821 118.2999250  74.2702915 124.0001188 112.2943093  71.6669605
 124.2509226 113.1790103  71.9327181 124.5360736 112.1147694  70.8944697
 129.6999255 106.6761572  80.6713941 129.3066200 106.1227771  81.3461585
 130.5165395 106.9872150  81.0620459 126.6661313 118.1145430  64.5827511
 127.1785833 118.9088680  64.7333076 127.3184025 117.4171721  64.5161112
 128.4756197 121.2311186  66.6650264 128.6522826 122.1529151  66.4771248
 129.2713031 120.9169606  67.0944644 132.6167216 108.0919451  78.2634198
 133.3576929 108.6926604  78.1838660 132.8485139 107.3497089  77.7052240
 127.7608554 113.2775818  76.5412427 127.6462069 112.3761076  76.8419526
 126.9053072 113.5239515  76.1897244 129.5987513 122.7489360  72.6660607
 130.1494938 122.6206424  71.8937600 128.7598989 123.0484249  72.3155499
 133.3954684 119.0140488  77.0104838 133.9283021 118.2528776  76.7804146
 132.8668765 118.7214140  77.7528992 136.5624379 104.1200554  72.5398479
 136.2188648 105.0102196  72.4637590 136.9303341 103.9302212  71.6768064
 124.6310229 116.4434084  65.3587082 125.4685451 116.8531093  65.1420789
 124.8088497 115.5033527  65.3287275 136.5274662 114.1109165  61.0470915
 136.0121285 114.8813770  61.2859302 136.2551970 113.4374301  61.6703976
 134.1121773 108.9558866  66.1056153 133.2563369 108.5665716  65.9261792
 134.5248724 109.0350827  65.2455938 135.6420919 106.4905209  70.5047713
 135.1385715 106.4535344  69.6915518 135.9351526 107.3997952  70.5644369
 131.8863805 106.5743939  69.5113894 132.7516802 106.3786748  69.1519784
 131.9541314 106.3454291  70.4383251 136.3160965 111.9836257  62.8730696
 136.0111100 112.2982406  63.7240839 137.2691407 112.0617677  62.9158029
 134.7607397 118.1426481  64.5223650 134.2328758 117.4079240  64.2096887
 134.2594899 118.9201157  64.2763618 129.4926124 108.8046147  66.8830261
 130.0669876 108.5821328  66.1503454 130.0797107 108.8734841  67.6358862
 129.8195711 110.8350608  60.9026146 128.9833024 111.1725294  61.2235421
 129.6800481 110.6999588  59.9653283 131.7948792 105.6787396  65.6105331
 131.1413204 105.3636413  64.9861945 131.7529266 105.0563136  66.3365154
 132.9059997 115.9606691  57.5258623 131.9987058 115.7295944  57.7249772
 133.4031029 115.1644310  57.7132604 135.0286532 112.1669329  69.9352978
 134.1109094 112.3884276  69.7774666 135.4446676 112.2415640  69.0764686
 135.8121580 113.5660745  65.0655659 136.5593399 114.0782142  64.7562781
 136.0813170 113.2444798  65.9260052 134.0848230 116.0619286  62.0482613
 133.1759449 115.7778318  62.1455083 134.1143314 116.4818364  61.1885920
 124.6536401 113.7824800  66.0297815 124.4560800 113.1894160  65.3048882
 124.0983065 113.4777010  66.7473754 132.6333124 113.6747906  68.1492408
 132.6881734 112.7221743  68.0734885 131.8224326 113.8307345  68.6333707
 133.7824318 117.6028029  59.3870691 133.3443748 116.8863888  58.9276329
 134.5234759 117.8304144  58.8255783 130.5725484 112.2924966  65.9082787
 129.7593350 112.5919137  66.3147979 131.0684478 111.8980655  66.6257269
 136.1699696 112.7566790  74.7397681 136.5249084 112.9838264  75.5992147
 136.8171827 113.0885167  74.1174936 130.0639559 109.8643322  71.5244022
 130.7038938 109.7232081  70.8266985 129.2317089 109.5777835  71.1482624
 130.8399863 119.1645752  67.6379014 131.6340461 118.6696072  67.4361589
 130.1291555 118.6363615  67.2746720 127.1482626 113.3088834  63.7138767
 126.2180214 113.2473289  63.9308729 127.2440098 112.7864786  62.9175408
 127.0668175 109.8343647  66.3017009 127.3274993 110.7488980  66.1926169
 127.8885348 109.3668089  66.4513622 128.5393101 111.2481404  73.4715833
 129.2116154 111.0398766  72.8228482 127.7122887 111.0503490  73.0321066
 134.4418673 107.8743345  75.4881494 133.7946588 108.5733294  75.3945971
 135.2119688 108.3079489  75.8557742 134.6182807 115.7124110  73.5478314
 135.5474867 115.8635269  73.3747281 134.1973837 115.8008130  72.6926960
 133.4171139 119.7374774  71.3176852 133.2782224 119.3693558  72.1902790
 132.6285735 120.2522413  71.1460809 134.9676354 119.1156377  68.7065689
 134.6326187 119.0757147  69.6023339 134.4680300 118.4501093  68.2336100
 128.9420598 114.5224007  74.2318270 128.8040396 113.7904245  74.8329810
 129.8525521 114.4332907  73.9502458 131.5702899 114.2343966  73.7201950
 132.2802517 113.5937158  73.6788569 131.5272207 114.4856861  74.6428131
 130.2831833 111.2209184  75.5397590 129.7469190 110.7699922  76.1919186
 129.6948541 111.3555093  74.7968054 129.6934091 110.6797835  58.1024053
 128.8163558 110.5586636  57.7386300 130.1691845 109.8883914  57.8502942
 121.2136232 115.4674995  68.1965560 121.9007271 115.1536725  67.6086576
 121.0584360 116.3716360  67.9232812 126.0170954 110.3565192  72.6250584
 125.9329142 109.7490861  71.8900994 125.1953660 110.8474210  72.6260080
 136.1894668 108.8418755  67.9920779 136.6863367 108.0888717  67.6721849
 135.4181649 108.8783072  67.4263988 137.2724448 117.5990442  65.5659203
 136.3380727 117.7191905  65.3963907 137.4501117 116.6962909  65.3019212
 132.7729636 110.9836138  67.7192464 132.4027424 110.4307178  68.4073369
 133.2688729 110.3794272  67.1667464 134.4507694 114.7398052  79.1266069
 133.7748331 114.6392181  79.7968444 135.2735328 114.5837265  79.5902066
 126.1986553 120.9769988  71.7478584 126.7839990 120.2313676  71.8806489
 126.0011391 121.2873945  72.6315248 120.7904208 113.5475588  70.4683028
 120.8288307 113.0139179  71.2620146 120.2844501 113.0210794  69.8494005
 128.1694970 108.3940129  73.9645570 128.2336297 109.2554960  73.5522968
 128.1062090 107.7814131  73.2317928 127.6447243 110.4663261  77.6118604
 128.2719281 110.0840339  78.2256128 126.7875161 110.2477463  77.9774297
 124.4212785 112.2739691  63.5436959 124.7166226 111.3650369  63.4904013
 123.5200821 112.2527430  63.2217961 127.9507032 110.3495687  69.5264508
 127.2293618 110.9631655  69.3871981 128.7400288 110.8853452  69.4481153
 130.7533346 107.6850114  75.8005159 131.2767748 107.9312410  76.5631469
 130.5345679 108.5170148  75.3808297 126.1500627 109.9553788  63.6676284
 125.8213333 109.0751167  63.4851390 126.5039998 109.9001457  64.5552673
 129.2642450 110.2426758  64.0351762 129.6038523 110.7712679  63.3130370
 129.7114571 110.5807164  64.8110328 131.9585891 108.6263809  73.4854830
 131.6182711 107.8271622  73.8875510 131.2524897 108.9265520  72.9131663
 132.6102363 105.7113121  71.9382153 133.4328432 105.2373599  71.8161043
 132.8540426 106.4903605  72.4380839 131.2510597 108.7401380  62.2345054
 131.9718960 109.1182632  61.7308771 130.6275901 109.4590256  62.3380032
 135.3941720 109.4446529  63.1703387 135.6105334 110.3271166  62.8692215
 134.9135787 109.0532742  62.4409029 130.1340941 112.4032242  69.7474131
 129.9885522 112.7172545  70.6398413 129.6566145 113.0217142  69.1945030
 131.9937324 109.3934790  69.7955021 131.9798893 108.4975883  69.4587319
 132.7109752 109.4005453  70.4293307 133.8463455 109.8272130  71.8408148
 133.5881233 110.7489201  71.8392479 133.3148495 109.4302564  72.5308613
 124.6086604 114.9437586  72.6861793 124.0640072 115.7197394  72.8182067
 125.4865954 115.2908391  72.5280914 131.3974220 108.2749170  65.0642591
 131.5190131 107.3465816  65.2633479 131.1076263 108.2887856  64.1520907
 134.2665411 105.9604080  68.2009311 134.2887107 106.0243414  67.2461291
 134.6833470 105.1208589  68.3949817 125.3952626 114.0707482  75.5791949
 124.6534362 114.2190118  76.1656580 125.0745370 114.3315748  74.7158699
 125.8409239 121.9572911  67.6102344 126.6667259 121.6576683  67.2300988
 125.4903291 121.1880534  68.0592133 130.8090772 121.3099379  69.6800018
 130.1870782 120.6470084  69.3802246 131.4795639 121.3360511  68.9973665
 124.0417844 119.8759238  68.5691278 123.2049753 119.4481412  68.3875279
 124.0141490 120.0691681  69.5062069 130.8815300 109.7881167  79.2732524
 130.9303455 110.6643290  78.8910293 131.4237814 109.2458560  78.7004167
 130.3704279 119.8603303  63.1558478 130.5192400 120.5438767  62.5025151
 131.1770723 119.8408393  63.6707934 133.1114588 110.5412540  76.0278882
 132.2417898 110.8346106  75.7561471 133.3474069 111.1252985  76.7486146
 128.1256912 115.8868480  64.1619547 127.8802954 114.9830810  64.3599757
 128.2952827 115.8885631  63.2199025 135.8153622 106.7592157  73.5444303
 136.3335566 107.4953184  73.2190791 135.4608755 107.0656150  74.3791062
 127.3952560 111.6196838  61.6605709 126.7021805 111.6941193  61.0045745
 127.1504312 110.8557182  62.1827226 136.0666216 103.1792439  69.0645199
 136.3467970 102.5115628  69.6905626 136.8516823 103.3721535  68.5519863
 134.2546483 113.6912246  57.9686278 135.2005588 113.5618454  58.0374696
 133.8760728 112.9526908  58.4455706 134.1385176 117.7429992  79.4286935
 135.0588185 117.9208591  79.6226982 134.1034759 116.7986037  79.2766634
 132.4389400 111.6162222  57.9041163 131.5320856 111.3195335  57.9803877
 132.7165381 111.3192040  57.0375450 123.3567341 112.9368586  68.3540210
 123.0370125 112.0833894  68.0614584 122.8100769 113.1517164  69.1098177
 127.1347248 115.6531027  72.0709716 127.3533258 116.5848135  72.0897750
 127.5473022 115.2939001  72.8564520 134.0551466 106.1599112  64.0585405
 133.2452194 105.8146197  64.4340651 134.7435883 105.8506656  64.6473016
 135.9842014 105.2377159  65.6809701 136.5373053 105.6572612  66.3399724
 136.2212101 104.3112907  65.7232657 132.0075114 111.2264232  81.4612465
 131.9071841 112.1758589  81.3924556 131.7896656 110.8982471  80.5888535
 131.2088185 108.4749158  58.0453143 132.0707349 108.8004056  58.3048960
 131.3938529 107.6880653  57.5326208 123.2255601 116.5571497  70.3233331
 122.5319072 116.1425450  69.8103286 123.9728592 116.5992034  69.7266750
 131.8706384 114.6561371  80.2777527 131.3873465 115.4561731  80.4841416
 131.9567323 114.6669316  79.3244971 125.1392343 116.4889751  68.1999346
 125.1163031 116.5877438  67.2481229 125.4492980 117.3354902  68.5216512
 127.7979721 118.5465906  72.3145961 128.7522975 118.5149848  72.2475892
 127.5992245 118.0856530  73.1296187 128.3879103 117.1167022  74.8816758
 129.2071992 117.6111101  74.9051596 128.6615911 116.1998990  74.8534326
 126.1529950 124.0885526  69.3316159 126.0184418 123.3285926  68.7654157
 125.7362012 124.8126425  68.8644947 123.6414018 111.4505156  75.5808955
 124.2872881 110.9404110  76.0696181 123.4331169 112.1873838  76.1552381
 132.1617628 105.7145201  61.3332852 132.1496298 106.6587040  61.4901122
 133.0541050 105.5315346  61.0392313 135.9769748 102.3087977  65.5878788
 135.2102143 101.7546464  65.7335471 136.3880452 102.3809846  66.4492940
 127.9811509 108.5972773  79.6783970 128.8442970 108.2409578  79.8887294
 127.4076919 108.2586668  80.3659374  55.0637266  -5.0593462  52.0139353
  54.9861296  -4.1085637  52.0927833  54.4598910  -5.4047589  52.6714279
  53.7231233  -7.5491941  59.3905913  54.2738658  -7.6774878  58.6182907
  52.8842709  -7.2497052  59.0400806  59.9371795  -5.6277103  47.1700616
  59.2633494  -5.3245406  47.7785573  60.3237617  -4.8248023  46.8206073
  58.1363011  -5.4597431  49.3847695  58.3114766  -5.9309388  50.1993317
  57.4495799  -4.8331665  49.6128955  52.7024096  -2.3108068  56.1587555
  52.9420694  -1.6789544  56.8366573  51.8593292  -2.6620028  56.4452914
  57.2151958  -6.5028946  58.5629059  57.1422129  -5.6973974  59.0748363
  56.7729351  -6.3036980  57.7377080  57.0041737  -7.2657176  52.0731880
  56.2209259  -6.7235495  52.1670105  57.7034483  -6.7483196  52.4726122
  59.6750641  -6.6042112  60.7187217  60.3878613  -5.9694647  60.6463119
  59.1840670  -6.5078246  59.9027219  50.3230273  -9.3211313  58.4723891
  50.9083710 -10.0667625  58.6051795  50.1255111  -9.0107356  59.3560555
  53.1768928  -6.2860066  53.4886333  52.5079303  -5.8013938  53.0050373
  53.0381798  -6.0390845  54.4029712  57.3174197  -4.2516322  60.0868992
  57.8692505  -4.0884701  60.8518077  57.6580390  -3.6611884  59.4149017
  57.4640008  -6.6857840  62.1017646  57.7727134  -6.9308694  62.9740346
  58.2615490  -6.4811202  61.6136516  57.4860620  -4.5319931  54.3323023
  57.0465610  -5.0243552  55.0255879  58.2368737  -5.0746963  54.0915098
  49.9652959  -8.3408390  54.3347651  50.7910979  -8.6404618  53.9546294
  49.6147011  -9.1100768  54.7837439  48.1661564 -10.4222064  55.2936584
  47.3293472 -10.8499889  55.1120586  48.1385209 -10.2289620  56.2307376
  50.2773670  -6.2095776  56.0561465  50.1428138  -6.9695375  55.4899463
  49.8605732  -5.4854876  55.5890254  53.4342796  -5.3126459  56.2679908
  53.3175180  -4.3681026  56.1658598  52.6135242  -5.6152897  56.6565707
  54.4597310  -4.6598197  59.4835836  55.3624557  -4.6274586  59.8002331
  54.2334680  -5.5897746  59.4982172  56.2150912  -5.9067210  56.1445915
  55.2646543  -5.9065349  56.0310287  56.5183398  -6.6534476  55.6281949
  71.9503605  -0.0706672  57.2091677  72.5882015  -0.1899924  56.5055017
  71.8324448   0.8774172  57.2679629  68.7593312  -0.1179244  57.1453202
  68.4211823  -0.2338179  56.2573737  69.6283080  -0.5188079  57.1254208
  64.6180127   1.7356233  53.1350093  64.0544992   1.6446170  52.3666381
  64.5032522   0.9156137  53.6152585  69.2413095   1.0355608  63.1039407
  69.2301735   0.6408406  62.2319911  69.4033734   0.3021681  63.6973179
  62.1644559   3.2307424  55.9734313  62.9565851   2.8898249  55.5580613
  62.4041209   3.3402399  56.8936467  70.1979686   5.4027200  48.4464558
  69.5467666   5.9881281  48.0598572  70.9924049   5.9333395  48.5059595
  64.1235313   2.4916338  48.8451692  64.8966189   1.9445325  48.7064568
  64.4760712   3.3560587  49.0566154  65.9620356   3.8192720  62.0518591
  65.6710222   4.7238351  61.9365258  66.5977340   3.8609247  62.7662661
  66.8876563   1.1969568  58.6419951  67.4840135   0.9725591  57.9276914
  66.9451534   0.4554314  59.2445399  66.4601591  -1.3490996  46.4770142
  66.7127112  -1.8709475  45.7153605  65.5226150  -1.5124851  46.5796826
  71.6754951   3.0917632  48.9833542  71.0400784   3.1652259  49.6954447
  71.3452358   3.6811231  48.3052621  66.1797880   0.5537110  48.6794517
  66.0634138  -0.1217987  49.3475601  66.2900140   0.0669484  47.8626670
  68.5229421   0.0147257  52.3841206  68.1587628  -0.5122122  53.0954128
  69.3796537  -0.3754274  52.2107692  70.9210241   3.5054135  59.0468385
  70.6210964   4.4079174  58.9384192  70.5761300   3.2386319  59.8989538
  64.3722722  -0.0432068  55.0805090  63.4473219  -0.1755854  55.2882781
  64.6207136   0.7362151  55.5775032  68.1424129  -2.5005186  48.3649222
  68.0223754  -2.0548135  49.2034702  67.4476717  -2.1519868  47.8062760
  61.7331533  -0.3998794  55.9148879  61.8623915  -0.1464315  56.8288290
  61.0528985   0.1928914  55.5953534  65.9031021  10.2698456  52.0139353
  65.8255050  11.2206281  52.0927833  65.2992664   9.9244328  52.6714279
  68.3948250  -2.5573679  64.6700720  67.6181584  -1.9979759  64.6603584
  69.0338813  -2.0716896  65.1915590  66.6494623   0.2511774  64.2318687
  67.3909307   0.7896818  63.9553510  65.9431608   0.8778063  64.3890239
  72.1249962   2.3940915  62.8290848  72.5333318   1.9523325  62.0845481
  71.4027224   1.8193542  63.0825041  68.4781032  -2.6686478  60.2024405
  69.3242228  -2.2447065  60.3459054  68.4179670  -3.3252854  60.8962968
  72.4478777   2.9542106  56.5843137  71.8187639   3.1187820  55.8819205
  72.0604439   3.3683715  57.3554101  76.3268009   3.8896543  53.9387501
  75.6419047   4.2695445  53.3884534  76.4111858   4.4991870  54.6719449
  73.5818941   1.5356502  60.5382844  73.7935836   2.1788262  59.8617225
  73.5348689   0.7018819  60.0704774  68.0006739   2.6916514  53.8493222
  68.4645084   2.9704217  53.0597845  67.7363537   1.7899958  53.6666313
  64.8930820   2.2387995  56.7872985  65.4632177   2.6675264  56.1490470
  65.4838932   1.9570580  57.4857171  66.9375625  -1.1860334  50.6582787
  67.6399668  -0.7339290  51.1256714  66.6056253  -1.8276515  51.2862680
  65.3855986  -2.5948577  65.0333997  64.7554647  -1.9132296  65.2669394
  65.2792074  -2.7065496  64.0887135  60.6800959  -2.9276781  55.9599921
  59.8900013  -2.6719253  55.4840032  61.1712206  -2.1128443  56.0651961
  74.6964768   4.4128458  58.7105202  75.5182212   4.0108645  58.4287883
  74.6927171   4.3096692  59.6621318  62.6315704  -2.5632202  52.9183398
  61.8346868  -2.4513508  53.4366893  62.4041296  -2.2245550  52.0524288
  68.4621372   3.9612501  60.8665912  68.5265804   4.4232908  61.7024084
  67.7532296   3.3309866  60.9948222  58.9638662  -2.6746291  58.3914912
  59.2146700  -1.7899281  58.6572488  59.4998210  -2.8541689  57.6190004
  68.1769390   5.6280609  50.7344893  68.0415064   6.4732144  51.1629740
  68.7179202   5.8299886  49.9710826  61.6298787   3.1456047  51.3072818
  62.1423308   3.9399297  51.4578382  62.2821500   2.4482337  51.2406419
  63.4393672   6.2621803  53.3895571  63.6160300   7.1839768  53.2016555
  64.2350505   5.9480222  53.8189951  62.7246028  -1.6913565  63.2657734
  62.6099543  -2.5928308  63.5664833  61.8690546  -1.4449868  62.9142551
  69.8037866   6.2504175  64.8645235  69.3601720   5.4640554  64.5466139
  70.4655080   6.4383326  64.1989125  64.5624987   7.7799977  59.3905913
  65.1132412   7.6517040  58.6182907  63.7236463   8.0794866  59.0400806
  71.9019104   6.5306975  62.8926636  71.8837579   7.3515856  62.4006905
  72.8239024   6.4061050  63.1176777  68.3592158   4.0451105  63.7350144
  68.8920495   3.2839393  63.5049452  67.8306239   3.7524756  64.4774299
  59.5947704   1.4744701  52.0832388  60.4322926   1.8841709  51.8666096
  59.7725971   0.5344143  52.0532582  71.4912136  -0.8580218  47.7716221
  70.9758759  -0.0875614  48.0104609  71.2189444  -1.5315082  48.3949283
  76.4646410   1.8952136  49.7069395  75.6875853   1.5563296  49.2624557
  77.1437891   1.9004759  49.0324360  69.7244871   3.1737097  51.2468956
  69.1966232   2.4389857  50.9342194  69.2232374   3.9511773  51.0008925
  74.7037717   1.3686118  56.3636003  74.0461391   2.0585379  56.4516131
  75.5078116   1.7582549  56.7069989  73.5143176  -0.2769510  54.4139944
  74.0275057   0.3560482  54.9161654  74.1644400  -0.8768314  54.0483304
  64.7833186  -4.1338776  47.6271453  63.9470498  -3.7964089  47.9480728
  64.6437955  -4.2689796  46.6898590  67.8697471   0.9917307  44.2503929
  66.9624533   0.7606561  44.4495078  68.3668503   0.1954927  44.4377911
  70.7765550   9.7014815  47.1700616  70.1027249  10.0046511  47.7785573
  71.1631372  10.5043895  46.8206073  69.9924007  -2.8020054  56.6598285
  69.0746568  -2.5805107  56.5019973  70.4084150  -2.7273744  55.8009992
  70.7759054  -1.4028639  51.7900965  71.5230873  -0.8907241  51.4808087
  71.0450644  -1.7244586  52.6505359  69.0485704   1.0929902  48.7727919
  68.1396924   0.8088935  48.8700389  69.0780788   1.5128981  47.9131226
  74.2804972   4.7036492  52.5419087  73.8267299   3.8627402  52.5984277
  73.6498939   5.3397890  52.8793867  72.7237911   6.5412988  53.4768905
  73.0160886   7.1018045  52.7581271  73.2336532   6.8341549  54.2322064
  59.6173875  -1.1864584  52.7543122  59.4198275  -1.7795223  52.0294188
  59.0620539  -1.4912373  53.4719060  67.5970599  -1.2941477  54.8737715
  67.6519208  -2.2467641  54.7980191  66.7861801  -1.1382038  55.3579013
  68.7461792   2.6338646  46.1115998  68.3081222   1.9174505  45.6521635
  69.4872233   2.8614761  45.5501089  65.5362958  -2.6764417  52.6328094
  64.7230824  -2.3770247  53.0393286  66.0321953  -3.0708729  53.3502576
  67.6871536   7.3193339  54.5662358  67.6447715   7.5454186  53.6370890
  68.6034235   7.0856714  54.7148159  71.1337170  -2.2122593  61.4642988
  71.4886558  -1.9851120  62.3237453  71.7809301  -1.8804216  60.8420243
  76.8634907   0.9095843  52.1692317  76.7252806   1.0997439  51.2413506
  76.5071126   1.6715226  52.6260368  76.8904287   2.9772370  57.1803588
  77.3240793   2.8847659  58.0286642  77.6035867   2.9529870  56.5423604
  65.8037337   4.1956368  54.3624321  66.5977936   3.7006689  54.1606896
  65.0929029   3.6674232  53.9992027  70.6232182   6.5774464  58.7136689
  70.6769204   7.1465400  59.4814405  69.7546963   6.7476349  58.3490726
  62.1120101  -1.6600550  50.4384074  61.1817689  -1.7216094  50.6554036
  62.2077573  -2.1824597  49.6420715  62.0305650  -5.1345737  53.0262315
  62.2912467  -4.2200404  52.9171476  62.8522822  -5.6021294  53.1758928
  63.5030575  -3.7207980  60.1961140  64.1753628  -3.9290618  59.5473789
  62.6760361  -3.9185894  59.7566372  77.7519836   3.0196071  59.7136473
  77.9455726   3.9241881  59.9595748  77.6520454   2.5603490  60.5475059
  72.8134945   3.1702813  65.2877354  72.6620451   2.9413365  64.3707438
  72.8039624   4.1273415  65.3008699  69.5820281   0.7434726  60.2723621
  70.5112341   0.8945886  60.0992588  69.1611311   0.8318747  59.4172267
  68.3808613   4.7685390  58.0422158  68.2419699   4.4004175  58.9148096
  67.5923209   5.2833030  57.8706116  68.9756765   9.8694487  49.3847695
  69.1508521   9.3982530  50.1993317  68.2889553  10.4960253  49.6128955
  69.9313828   4.1466993  55.4310996  69.5963661   4.1067763  56.3268646
  69.4317774   3.4811709  54.9581406  63.9058072  -0.4465377  60.9563577
  63.7677870  -1.1785138  61.5575116  64.8162996  -0.5356477  60.6747765
  72.8673020   1.4923028  45.7048056  72.2502191   0.7669856  45.6081108
  72.3989508   2.2532388  45.3615130  66.5340373  -0.7345417  60.4447257
  67.2439991  -1.3752225  60.4033875  66.4909681  -0.4832523  61.3673438
  74.5227152   6.2021936  63.3653836  74.4639698   5.5181156  62.6984419
  74.9246670   6.9440926  62.9134462  65.2469307  -3.7480200  62.2642896
  64.7106664  -4.1989461  62.9164493  64.6586015  -3.6134291  61.5213361
  63.5417850  13.0183850  56.1587555  63.7814449  13.6502374  56.8366573
  62.6987047  12.6671890  56.4452914  64.6571566  -4.2891548  44.8269360
  63.7801032  -4.4102747  44.4631607  65.1329319  -5.0805470  44.5748249
  74.5244559   4.1661520  61.5967816  73.6371338   3.8287442  61.7194214
  75.0943110   3.4344551  61.8336581  56.1773706   0.4985612  54.9210867
  56.8644746   0.1847342  54.3331882  56.0221835   1.4026976  54.6478118
  60.9808428  -4.6124192  59.3495891  60.8966617  -5.2198522  58.6146301
  60.1591134  -4.1215174  59.3505387  68.0545712   8.8262972  58.5629059
  67.9815884   9.6317944  59.0748363  67.6123105   9.0254938  57.7377080
  67.8435492   8.0634742  52.0731880  67.0603014   8.6056422  52.1670105
  68.5428237   8.5808722  52.4726122  70.5144396   8.7249806  60.7187217
  71.2272368   9.3597271  60.6463119  70.0234424   8.8213672  59.9027219
  72.2361923   2.6301059  52.2904509  71.3018201   2.7502521  52.1209213
  72.4138591   1.7273526  52.0264519  65.5656309   6.4744250  61.5392788
  66.2665769   7.1080733  61.6922183  65.0951424   6.8158981  60.7788428
  73.6910705   4.8162199  49.8240695  73.9670549   4.7018794  50.7334569
  72.8215204   4.4179684  49.7852868  73.3657595  -0.9711143  59.3645339
  72.7129045  -0.7235235  58.7097791  73.7437975  -1.7847005  59.0307816
  70.3264769   9.0648550  53.4673509  70.5087164   8.2470206  53.9301261
  71.1497755   9.2816243  53.0298399  70.6606935   7.9916735  50.7288557
  71.1894701   7.4809190  50.1158720  70.9235154   7.6759266  51.5934090
  69.4145168  -0.2291332  65.8511376  68.7385805  -0.3297203  66.5213751
  70.2372802  -0.3852118  66.3147373  61.1624027   6.0080605  58.4723891
  61.7477464   5.2624293  58.6051795  60.9648866   6.3184561  59.3560555
  64.0162683   9.0431852  53.4886333  63.3473058   9.5277980  53.0050373
  63.8775552   9.2901073  54.4029712  55.7541682  -1.4213795  57.1928334
  55.7925782  -1.9550204  57.9865452  55.2481975  -1.9478590  56.5739311
  68.1567951  11.0775596  60.0868992  68.7086259  11.2407217  60.8518077
  68.4974145  11.6680033  59.4149017  62.6084717  -4.5026122  64.3363911
  63.2356756  -4.8849045  64.9501435  61.7512636  -4.7211920  64.7019603
  73.0078825   5.9036853  65.9417646  73.5518729   6.5166811  65.4472601
  72.4265670   6.4616432  66.4584659  59.3850260  -2.6949693  50.2682266
  59.6803701  -3.6039015  50.2149319  58.4838295  -2.7161953  49.9463268
  71.2936338   9.0257571  57.0732674  71.1687478   8.2247311  56.5643619
  71.9515430   9.5203764  56.5846644  62.9144507  -4.6193696  56.2509814
  62.1931092  -4.0057729  56.1117287  63.7037762  -4.0835932  56.1726460
  73.3571247   6.8266591  58.7012224  72.4101582   6.7071942  58.6290551
  73.7054020   5.9389089  58.7838485  61.1138101  -5.0135595  50.3921591
  60.7850807  -5.8938216  50.2096697  61.4677472  -5.0687927  51.2797980
  70.3617680   6.6219307  54.9016576  70.2142643   5.6936015  55.0824146
  71.1871174   6.6439398  54.4173651  64.2279924  -4.7262625  50.7597068
  64.5675997  -4.1976704  50.0375677  64.6752045  -4.3882219  51.5355635
  73.9651802   7.4447866  55.9881449  74.8898349   7.2390728  55.8505900
  73.7967105   7.1964267  56.8970790  65.0978416  -2.5657142  56.4719438
  64.9522997  -2.2516839  57.3643720  64.6203619  -1.9472241  55.9190337
  73.7547118   7.9633534  51.3443540  73.9283996   7.3979956  50.5917393
  74.2476009   8.7634428  51.1623030  59.5724078  -0.0251797  59.4107099
  59.0277546   0.7508011  59.5427374  60.4503428   0.3219007  59.2526221
  74.7422291   7.2800298  48.4440439  75.4373195   7.9006991  48.6627753
  75.0845441   6.4295649  48.7192817  60.3590100  -0.8981901  62.3037256
  59.6171836  -0.7499266  62.8901887  60.0382844  -0.6373635  61.4404006
  76.6413714   4.7300004  49.9727769  77.1665038   5.0687276  49.2477089
  76.5536066   3.7947019  49.7890904  68.3033762   8.6434077  62.1017646
  68.6120889   8.3983224  62.9740346  69.1009244   8.8480716  61.6136516
  68.3254375  10.7971987  54.3323023  67.8859365  10.3048366  55.0255879
  69.0762491  10.2544954  54.0915098  60.8046713   6.9883528  54.3347651
  61.6304733   6.6887300  53.9546294  60.4540765   6.2191150  54.7837439
  65.7728247   6.3409996  56.4045324  65.1508256   5.6780701  56.1047552
  66.4433114   6.3671128  55.7218972  59.0055319   4.9069854  55.2936584
  58.1687227   4.4792028  55.1120586  58.9778964   5.1002297  56.2307376
  76.3307620   5.3632907  65.2778967  75.5403164   5.3457046  64.7383467
  76.0940974   5.9021201  66.0328004  76.4505495   2.2125374  62.5911696
  76.5003500   2.0475381  63.5327219  76.3419418   1.3452633  62.2009577
  65.3341754   4.8913919  49.8803785  65.4829874   5.5749384  49.2270458
  66.1408197   4.8719009  50.3953241  77.9523692   4.6322315  62.8353718
  77.6608500   4.9952296  63.6717178  77.3395823   3.9189323  62.6567050
  79.1519374   2.1975195  55.3556288  79.9866265   2.6364999  55.5193848
  79.2878503   1.7213848  54.5364534  76.2010880  -0.2445070  61.3033775
  76.6765002  -0.0517424  60.4952627  75.2776445  -0.1885884  61.0577159
  63.0894387   0.9179097  50.8864854  62.8440428   0.0141427  51.0845064
  63.2590301   0.9196247  49.9444332  62.3590034  -3.3492546  48.3851015
  61.6659279  -3.2748191  47.7291051  62.1141786  -4.1132202  48.9072532
  68.8337159   7.3862050  47.3515532  68.2611126   8.0052237  46.8986004
  69.4069953   7.9361411  47.8855454  72.0534419   7.6699200  48.4824115
  72.9865092   7.6044762  48.6856990  71.9657632   8.5055467  48.0238647
  74.6822436   6.9865070  45.4428062  74.6036067   6.6524934  46.3363820
  75.5032102   7.4786838  45.4419534  69.2183958  -1.2777138  44.6931585
  70.1643062  -1.4070929  44.7620003  68.8398203  -2.0162476  45.1701013
  69.1022650   2.7740609  66.1532242  70.0225660   2.9519208  66.3472288
  69.0672233   1.8296654  66.0011941  67.4026875  -3.3527161  44.6286470
  66.4958330  -3.6494048  44.7049184  67.6802856  -3.6497343  43.7620756
  58.3204815  -2.0320798  55.0785516  58.0007599  -2.8855490  54.7859890
  57.7738243  -1.8172220  55.8343484  62.0984723   0.6841643  58.7955023
  62.3170732   1.6158751  58.8143057  62.5110496   0.3249618  59.5809827
  66.9712588  -3.7425151  68.1857772  66.8709315  -2.7930794  68.1169863
  66.7534130  -4.0706912  67.3133842  58.1893075   1.5882114  57.0478638
  57.4956547   1.1736067  56.5348592  58.9366066   1.6302650  56.4512057
  66.8343858  -0.3128012  67.0022834  66.3510940   0.4872348  67.2086723
  66.9204797  -0.3020067  66.0490277  60.1029818   1.5200368  54.9244653
  60.0800506   1.6188055  53.9726536  60.4130454   2.3665518  55.2461819
  62.7617196   3.5776523  59.0391267  63.7160449   3.5460465  58.9721199
  62.5629719   3.1167146  59.8541493  63.3516578   2.1477639  61.6062065
  64.1709467   2.6421717  61.6296902  63.6253385   1.2309607  61.5779632
  61.1167424   9.1196142  56.0561465  60.9821892   8.3596543  55.4899463
  60.6999487   9.8437042  55.5890254  72.2526387   4.3033066  45.0638040
  72.9562237   4.5083068  45.6795696  71.5289036   4.8709827  45.3287124
  73.0824198   0.0542927  51.1840311  73.0259399   0.5111478  50.3447943
  73.6352540  -0.7066389  51.0063153  64.2736550  10.0165459  56.2679908
  64.1568934  10.9610892  56.1658598  63.4528996   9.7139021  56.6565707
  74.1613085   4.7415595  47.1136501  74.9958689   4.3096793  46.9313975
  73.9997428   4.5697608  48.0413395  73.8158977   1.2447708  48.4792840
  73.7607781   1.0791980  47.5381284  73.1905032   1.9523741  48.6355030
  58.6051492  -3.5184228  62.3054262  59.2510356  -4.0285274  62.7941487
  58.3968643  -2.7815546  62.8797687  71.1304884   3.5496620  67.8046403
  71.9996044   3.7237272  67.4433038  70.6511636   4.3691037  67.6822132
  65.2991064  10.6693721  59.4835836  66.2018311  10.7017331  59.8002331
  65.0728434   9.7394172  59.4982172  67.0544666   9.4224707  56.1445915
  66.1040297   9.4226569  56.0310287  67.3577152   8.6757442  55.6281949
  82.7897360  15.2585246  57.2091677  83.4275770  15.1391993  56.5055017
  82.6718203  16.2066090  57.2679629  79.5987066  15.2112674  57.1453202
  79.2605578  15.0953739  56.2573737  80.4676834  14.8103839  57.1254208
  75.4573882  17.0648150  53.1350093  74.8938747  16.9738087  52.3666381
  75.3426277  16.2448055  53.6152585  80.0806849  16.3647526  63.1039407
  80.0695490  15.9700324  62.2319911  80.2427489  15.6313598  63.6973179
  73.0038314  18.5599342  55.9734313  73.7959606  18.2190167  55.5580613
  73.2434964  18.6694317  56.8936467  81.0373441  20.7319118  48.4464558
  80.3861420  21.3173199  48.0598572  81.8317803  21.2625313  48.5059595
  74.9629068  17.8208255  48.8451692  75.7359944  17.2737242  48.7064568
  75.3154467  18.6852505  49.0566154  76.8014110  19.1484638  62.0518591
  76.5103976  20.0530268  61.9365258  77.4371095  19.1901165  62.7662661
  77.7270317  16.5261486  58.6419951  78.3233889  16.3017508  57.9276914
  77.7845289  15.7846232  59.2445399  77.2995346  13.9800921  46.4770142
  77.5520866  13.4582443  45.7153605  76.3619905  13.8167067  46.5796826
  82.3438628  12.9836700  54.2844885  83.1301718  12.5656123  53.9335302
  82.6077333  13.8882792  54.4526534  82.5148706  18.4209550  48.9833542
  81.8794539  18.4944177  49.6954447  82.1846112  19.0103149  48.3052621
  87.7447055  12.9211933  55.1877864  88.4772227  12.3511150  55.4215693
  86.9886411  12.5333533  55.6284369  77.0191634  15.8829027  48.6794517
  76.9027892  15.2073931  49.3475601  77.1293894  15.3961401  47.8626670
  79.3623175  15.3439174  52.3841206  78.9981382  14.8169795  53.0954128
  80.2190291  14.9537643  52.2107692  85.2672476   6.6333507  59.6472472
  84.9355801   7.5028918  59.4233687  84.6718089   6.3169791  60.3266503
  79.0028662  10.3729074  47.3802555  79.1703064  11.2409311  47.7473026
  78.8125831  10.5356356  46.4563844  81.7603995  18.8346053  59.0468385
  81.4604718  19.7371092  58.9384192  81.4155055  18.5678236  59.8989538
  75.2116477  15.2859850  55.0805090  74.2866973  15.1536064  55.2882781
  75.4600890  16.0654069  55.5775032  85.1601139  11.3528593  56.7265822
  84.2518016  11.2844002  56.4324583  85.1088735  11.8300538  57.5547648
  78.9817883  12.8286732  48.3649222  78.8617508  13.2743782  49.2034702
  78.2870471  13.1772049  47.8062760  72.5725288  14.9293123  55.9148879
  72.7017669  15.1827602  56.8288290  71.8922739  15.5220831  55.5953534
  76.7424775  25.5990373  52.0139353  76.6648805  26.5498198  52.0927833
  76.1386419  25.2536246  52.6714279  79.2342005  12.7718239  64.6700720
  78.4575339  13.3312159  64.6603584  79.8732568  13.2575022  65.1915590
  87.0262786   9.5545032  58.5043696  86.3837166   9.8477565  57.8583491
  86.5217714   9.4397952  59.3096893  84.6802949  13.3008205  49.1929556
  85.5920805  13.5335592  49.0177253  84.1712596  13.8845249  48.6304634
  77.4888377  15.5803692  64.2318687  78.2303062  16.1188736  63.9553510
  76.7825363  16.2069981  64.3890239  82.9643717  17.7232833  62.8290848
  83.3727073  17.2815243  62.0845481  82.2420978  17.1485460  63.0825041
  79.3174787  12.6605439  60.2024405  80.1635982  13.0844853  60.3459054
  79.2573425  12.0039064  60.8962968  83.2872531  18.2834023  56.5843137
  82.6581394  18.4479737  55.8819205  82.8998194  18.6975633  57.3554101
  87.1661763  19.2188461  53.9387501  86.4812802  19.5987362  53.3884534
  87.2505613  19.8283788  54.6719449  82.4674232  10.3209808  61.8605579
  82.2235164  11.0751868  61.3239855  82.7434163  10.6995155  62.6952826
  84.4212695  16.8648420  60.5382844  84.6329590  17.5080180  59.8617225
  84.3742443  16.0310737  60.0704774  82.0238924   9.4766241  57.4419417
  81.1623403   9.7747494  57.7336154  82.0501359   9.6936640  56.5100449
  78.8400493  18.0208431  53.8493222  79.3038839  18.2996134  53.0597845
  78.5757291  17.1191876  53.6666313  75.7324574  17.5679913  56.7872985
  76.3025931  17.9967181  56.1490470  76.3232686  17.2862498  57.4857171
  77.7769379  14.1431584  50.6582787  78.4793423  14.5952627  51.1256714
  77.4450008  13.5015403  51.2862680  76.2249741  12.7343340  65.0333997
  75.5948402  13.4159621  65.2669394  76.1185829  12.6226422  64.0887135
  71.5194713  12.4015136  55.9599921  70.7293767  12.6572665  55.4840032
  72.0105961  13.2163474  56.0651961  85.5358523  19.7420376  58.7105202
  86.3575967  19.3400563  58.4287883  85.5320926  19.6388610  59.6621318
  73.4709459  12.7659716  52.9183398  72.6740622  12.8778410  53.4366893
  73.2435051  13.1046368  52.0524288  79.3015126  19.2904419  60.8665912
  79.3659559  19.7524826  61.7024084  78.5926050  18.6601784  60.9948222
  69.8032416  12.6545627  58.3914912  70.0540455  13.5392637  58.6572488
  70.3391965  12.4750228  57.6190004  93.6264516  16.0859124  55.0590173
  92.8728224  15.5166522  54.9034178  93.7612057  16.0521789  56.0060808
  79.0163144  20.9572526  50.7344893  78.8808819  21.8024062  51.1629740
  79.5572957  21.1591804  49.9710826  75.5030484   7.0364106  67.3959248
  75.1097429   6.4830305  68.0706892  76.3196624   7.3474685  67.7865765
  72.4692541  18.4747964  51.3072818  72.9817062  19.2691215  51.4578382
  73.1215254  17.7774255  51.2406419  74.2787426  21.5913721  53.3895571
  74.4554054  22.5131685  53.2016555  75.0744260  21.2772140  53.8189951
  78.4198445   8.4521985  64.9879504  79.1608158   9.0529138  64.9083967
  78.6516367   7.7099623  64.4297547  73.5639783  13.6378353  63.2657734
  73.4493298  12.7363610  63.5664833  72.7084300  13.8842049  62.9142551
  80.6431620  21.5796093  64.8645235  80.1995475  20.7932471  64.5466139
  81.3048834  21.7675243  64.1989125  75.4018742  23.1091894  59.3905913
  75.9526167  22.9808958  58.6182907  74.5630217  23.4086783  59.0400806
  82.7412858  21.8598893  62.8926636  82.7231334  22.6807774  62.4006905
  83.6632779  21.7352968  63.1176777  79.1985913  19.3743022  63.7350144
  79.7314249  18.6131310  63.5049452  78.6699994  19.0816674  64.4774299
  82.3655608   4.4803088  59.2643786  82.0219877   5.3704730  59.1882897
  82.7334570   4.2904746  58.4013371  70.4341458  16.8036619  52.0832388
  71.2716680  17.2133627  51.8666096  70.6119726  15.8636061  52.0532582
  82.3305890  14.4711699  47.7716221  81.8152514  15.2416304  48.0104609
  82.0583199  13.7976835  48.3949283  79.9153001   9.3161400  52.8301460
  79.0594598   8.9268251  52.6507098  80.3279953   9.3953361  51.9701245
  81.4452148   6.8507743  57.2293019  80.9416944   6.8137879  56.4160825
  81.7382755   7.7600486  57.2889676  77.6895034   6.9346473  56.2359201
  78.5548031   6.7389282  55.8765090  77.7572543   6.7056825  57.1628558
  87.3040164  17.2244054  49.7069395  86.5269607  16.8855213  49.2624557
  87.9831645  17.2296677  49.0324360  82.1192193  12.3438791  49.5976002
  81.8142329  12.6584941  50.4486146  83.0722636  12.4220211  49.6403335
  80.5638625  18.5029015  51.2468956  80.0359987  17.7681774  50.9342194
  80.0626128  19.2803691  51.0008925  85.5431471  16.6978035  56.3636003
  84.8855146  17.3877297  56.4516131  86.3471871  17.0874467  56.7069989
  75.2957353   9.1648681  53.6075568  75.8701105   8.9423863  52.8748761
  75.8828335   9.2337376  54.3604169  84.3536930  15.0522408  54.4139944
  84.8668812  15.6852400  54.9161654  85.0038154  14.4523603  54.0483304
  75.6226940  11.1953142  47.6271453  74.7864252  11.5327829  47.9480728
  75.4831710  11.0602122  46.6898590  77.5980021   6.0389930  52.3350637
  76.9444433   5.7238947  51.7107252  77.5560495   5.4165670  53.0610460
  78.7091226  16.3209225  44.2503929  77.8018287  16.0898478  44.4495078
  79.2062258  15.5246844  44.4377911  81.6159304  25.0306732  47.1700616
  80.9421003  25.3338429  47.7785573  82.0025126  25.8335813  46.8206073
  80.8317761  12.5271863  56.6598285  79.9140322  12.7486810  56.5019973
  81.2477905  12.6018174  55.8009992  81.6152809  13.9263279  51.7900965
  82.3624628  14.4384676  51.4808087  81.8844398  13.6047332  52.6505359
  79.8879459  16.4221820  48.7727919  78.9790678  16.1380853  48.8700389
  79.9174543  16.8420898  47.9131226  85.1198726  20.0328409  52.5419087
  84.6661053  19.1919319  52.5984277  84.4892693  20.6689808  52.8793867
  84.0631646  10.9620395  53.7719754  83.3254403  10.4497782  54.1029997
  84.3158419  10.5220777  52.9603031  83.5631666  21.8704906  53.4768905
  83.8554640  22.4309963  52.7581271  84.0730286  22.1633467  54.2322064
  84.1643273   3.7396647  54.3661524  84.4702150   2.8794011  54.0787439
  84.8895878   4.3314268  54.1660518  70.4567629  14.1427334  52.7543122
  70.2592029  13.5496695  52.0294188  69.9014293  13.8379544  53.4719060
  78.4364353  14.0350440  54.8737715  78.4912963  13.0824277  54.7980191
  77.6255555  14.1909880  55.3579013  79.5855547  17.9630564  46.1115998
  79.1474977  17.2466422  45.6521635  80.3265988  18.1906678  45.5501089
  76.3756713  12.6527500  52.6328094  75.5624578  12.9521671  53.0393286
  76.8715707  12.2583189  53.3502576  78.5265291  22.6485257  54.5662358
  78.4841470  22.8746103  53.6370890  79.4427990  22.4148632  54.7148159
  81.9730925  13.1169325  61.4642988  82.3280312  13.3440798  62.3237453
  82.6203056  13.4487701  60.8420243  87.7028662  16.2387761  52.1692317
  87.5646560  16.4289357  51.2413506  87.3464880  17.0007143  52.6260368
  75.8670788  10.2245856  58.2489329  76.5070167  10.0834615  57.5512292
  75.0348318   9.9380369  57.8727931  87.7298041  18.3064288  57.1803588
  88.1634548  18.2139577  58.0286642  88.4429622  18.2821788  56.5423604
  76.6431092  19.5248286  54.3624321  77.4371690  19.0298606  54.1606896
  75.9322784  18.9966149  53.9992027  81.4625936  21.9066382  58.7136689
  81.5162958  22.4757318  59.4814405  80.5940717  22.0768267  58.3490726
  72.9513855  13.6691368  50.4384074  72.0211443  13.6075823  50.6554036
  73.0471327  13.1467321  49.6420715  72.8699404  10.1946181  53.0262315
  73.1306221  11.1091514  52.9171476  73.6916576   9.7270623  53.1758928
  74.3424329  11.6083938  60.1961140  75.0147383  11.4001300  59.5473789
  73.5154116  11.4106024  59.7566372  88.5913591  18.3487988  59.7136473
  88.7849481  19.2533799  59.9595748  88.4914209  17.8895407  60.5475059
  80.2449901   8.2345879  62.2126801  79.5977816   8.9335828  62.1191277
  81.0150917   8.6682023  62.5803049  83.6528699  18.4994731  65.2877354
  83.5014206  18.2705283  64.3707438  83.6433379  19.4565332  65.3008699
  80.4214036  16.0726644  60.2723621  81.3506096  16.2237803  60.0992588
  80.0005066  16.1610665  59.4172267  79.2202368  20.0977308  58.0422158
  79.0813453  19.7296093  58.9148096  78.4316964  20.6124948  57.8706116
  79.8150520  25.1986405  49.3847695  79.9902275  24.7274448  50.1993317
  79.1283308  25.8252171  49.6128955  80.7707583  19.4758911  55.4310996
  80.4357415  19.4359681  56.3268646  80.2711528  18.8103627  54.9581406
  74.7451827  14.8826541  60.9563577  74.6071625  14.1506780  61.5575116
  75.6556750  14.7935441  60.6747765  83.7066774  16.8214945  45.7048056
  83.0895945  16.0961773  45.6081108  83.2383263  17.5824305  45.3615130
  77.3734127  14.5946500  60.4447257  78.0833746  13.9539692  60.4033875
  77.3303436  14.8459395  61.3673438  85.3620906  21.5313854  63.3653836
  85.3033452  20.8473074  62.6984419  85.7640424  22.2732844  62.9134462
  76.0863061  11.5811718  62.2642896  75.5500418  11.1302457  62.9164493
  75.4979770  11.7157627  61.5213361  74.3811605  28.3475767  56.1587555
  74.6208203  28.9794292  56.8366573  73.5380801  27.9963807  56.4452914
  75.4965320  11.0400369  44.8269360  74.6194787  10.9189170  44.4631607
  75.9723073  10.2486448  44.5748249  85.3638313  19.4953437  61.5967816
  84.4765092  19.1579359  61.7194214  85.9336864  18.7636469  61.8336581
  67.0167460  15.8277529  54.9210867  67.7038500  15.5139259  54.3331882
  66.8615589  16.7318894  54.6478118  71.8202183  10.7167726  59.3495891
  71.7360371  10.1093395  58.6146301  70.9984889  11.2076744  59.3505387
  78.8939467  24.1554890  58.5629059  78.8209638  24.9609861  59.0748363
  78.4516860  24.3546856  57.7377080  78.6829246  23.3926660  52.0731880
  77.8996768  23.9348340  52.1670105  79.3821991  23.9100639  52.4726122
  81.9925896   9.2021289  54.7166086  82.4894596   8.4491252  54.3967156
  81.2212878   9.2385606  54.1509295  89.8455654  14.9061655  56.3584377
  89.8345530  15.7886370  55.9878310  88.9773033  14.5533206  56.1638914
  81.3538150  24.0541724  60.7187217  82.0666122  24.6889189  60.6463119
  80.8628179  24.1505590  59.9027219  83.0755677  17.9592977  52.2904509
  82.1411956  18.0794439  52.1209213  83.2532346  17.0565443  52.0264519
  78.5760865  11.3438672  54.4437770  78.2058653  10.7909713  55.1318676
  79.0719958  10.7396806  53.8912770  86.4628228  13.8010296  52.8254543
  86.9288681  14.6338287  52.7514846  86.9135729  13.3355277  53.5299802
  76.4050064  21.8036167  61.5392788  77.1059523  22.4372650  61.6922183
  75.9345179  22.1450899  60.7788428  84.5304460  20.1454117  49.8240695
  84.8064303  20.0310712  50.7334569  83.6608958  19.7471602  49.7852868
  84.4344891   6.1690883  56.8645445  83.5207971   6.3995110  57.0327652
  84.8637993   6.2529327  57.7159477  84.2051350  14.3580775  59.3645339
  83.5522800  14.6056682  58.7097791  84.5831730  13.5444913  59.0307816
  81.1658524  24.3940468  53.4673509  81.3480918  23.5762124  53.9301261
  81.9891510  24.6108160  53.0298399  81.5000689  23.3208653  50.7288557
  82.0288456  22.8101108  50.1158720  81.7628909  23.0051183  51.5934090
  80.2538923  15.1000586  65.8511376  79.5779560  14.9994715  66.5213751
  81.0766557  14.9439800  66.3147373  72.0017782  21.3372522  58.4723891
  72.5871219  20.5916210  58.6051795  71.8042620  21.6476479  59.3560555
  74.8556437  24.3723770  53.4886333  74.1866812  24.8569897  53.0050373
  74.7169307  24.6192990  54.4029712  66.5935437  13.9078123  57.1928334
  66.6319536  13.3741713  57.9865452  66.0875729  13.3813328  56.5739311
  78.9961706  26.4067513  60.0868992  79.5480014  26.5699135  60.8518077
  79.3367899  26.9971951  59.4149017  73.9726199   8.7542663  60.6890876
  74.0367525   9.6157494  60.2768274  73.9093319   8.1416665  59.9563235
  73.4478471  10.8265796  64.3363911  74.0750510  10.4442873  64.9501435
  72.5906390  10.6079998  64.7019603  83.8472580  21.2328771  65.9417646
  84.3912484  21.8458729  65.4472601  83.2659425  21.7908349  66.4584659
  70.2244014  12.6342225  50.2682266  70.5197455  11.7252903  50.2149319
  69.3232050  12.6129964  49.9463268  82.1330093  24.3549489  57.0732674
  82.0081232  23.5539229  56.5643619  82.7909184  24.8495682  56.5846644
  73.7538261  10.7098221  56.2509814  73.0324847  11.3234189  56.1117287
  74.5431517  11.2455986  56.1726460  84.1965001  22.1558509  58.7012224
  83.2495337  22.0363860  58.6290551  84.5447774  21.2681007  58.7838485
  76.5564575   8.0452648  62.5250466  77.0798976   8.2914944  63.2876775
  76.3376908   8.8772683  62.1053603  71.9531856  10.3156322  50.3921591
  71.6244562   9.4353701  50.2096697  72.3071226  10.2603991  51.2797980
  81.2011435  21.9511225  54.9016576  81.0536397  21.0227933  55.0824146
  82.0264928  21.9731316  54.4173651  75.0673679  10.6029292  50.7597068
  75.4069751  11.1315213  50.0375677  75.5145799  10.9409698  51.5355635
  84.8045556  22.7739784  55.9881449  85.7292104  22.5682645  55.8505900
  84.6360860  22.5256185  56.8970790  77.7617120   8.9866343  60.2100136
  77.4213940   8.1874156  60.6120816  77.0556126   9.2868054  59.6376970
  78.4133592   6.0715655  58.6627459  79.2359661   5.5976134  58.5406350
  78.6571655   6.8506139  59.1626146  77.0541826   9.1003914  48.9590361
  77.7750189   9.4785167  48.4554078  76.4307130   9.8192791  49.0625339
  81.1972949   9.8049063  49.8948693  81.4136563  10.6873701  49.5937522
  80.7167016   9.4135276  49.1654335  75.9372170  12.7634776  56.4719438
  75.7916751  13.0775079  57.3643720  75.4597374  13.3819676  55.9190337
  77.7968553   9.7537324  56.5200328  77.7830122   8.8578417  56.1832626
  78.5140981   9.7607988  57.1538614  79.6494684  10.1874664  58.5653455
  79.3912462  11.1091735  58.5637785  79.1179724   9.7905099  59.2553919
  84.5940873  23.2925451  51.3443540  84.7677750  22.7271874  50.5917393
  85.0869764  24.0926346  51.1623030  70.4117832  15.3040120  59.4107099
  69.8671301  16.0799928  59.5427374  71.2897182  15.6510925  59.2526221
  77.2005449   8.6351704  51.7887898  77.3221360   7.7068350  51.9878785
  76.9107491   8.6490390  50.8766213  80.0696639   6.3206615  54.9254618
  80.0918336   6.3845948  53.9706597  80.4864698   5.4811123  55.1195124
  90.4480264  16.0561874  52.9633840  90.8911410  15.3069199  52.5652963
  89.5706774  16.0472011  52.5807572  85.5816045  22.6092216  48.4440439
  86.2766950  23.2298908  48.6627753  85.9239195  21.7587567  48.7192817
  71.1983854  14.4310017  62.3037256  70.4565590  14.5792652  62.8901887
  70.8776599  14.6918282  61.4404006  87.4807468  20.0591921  49.9727769
  88.0058792  20.3979194  49.2477089  87.3929821  19.1238937  49.7890904
  79.1427517  23.9725995  62.1017646  79.4514643  23.7275142  62.9740346
  79.9402999  24.1772633  61.6136516  79.1648129  26.1263905  54.3323023
  78.7253119  25.6340283  55.0255879  79.9156246  25.5836872  54.0915098
  71.6440468  22.3175445  54.3347651  72.4698488  22.0179217  53.9546294
  71.2934520  21.5483068  54.7837439  76.6122001  21.6701914  56.4045324
  75.9902010  21.0072619  56.1047552  77.2826868  21.6963045  55.7218972
  69.8449073  20.2361772  55.2936584  69.0080981  19.8083946  55.1120586
  69.8172718  20.4294215  56.2307376  76.6846529  10.1483702  65.9977830
  76.7334684  11.0245824  65.6155600  77.2269043   9.6061095  65.4249474
  87.1701374  20.6924825  65.2778967  86.3796918  20.6748964  64.7383467
  86.9334729  21.2313119  66.0328004  87.2899249  17.5417291  62.5911696
  87.3397254  17.3767299  63.5327219  87.1813173  16.6744550  62.2009577
  76.1735508  20.2205837  49.8803785  76.3223628  20.9041301  49.2270458
  76.9801952  20.2010927  50.3953241  84.5803012  13.5248219  63.9071003
  85.4812875  13.3854684  63.6155000  84.6550986  13.6902674  64.8469180
  78.9145817  10.9015074  62.7524189  78.0449126  11.1948640  62.4806778
  79.1505297  11.4855519  63.4731453  88.7917446  19.9614233  62.8353718
  88.5002254  20.3244213  63.6717178  88.1789577  19.2481241  62.6567050
  89.9913129  17.5267113  55.3556288  90.8260020  17.9656917  55.5193848
  90.1272257  17.0505766  54.5364534  87.0404634  15.0846847  61.3033775
  87.5158756  15.2774494  60.4952627  86.1170200  15.1406033  61.0577159
  73.9288141  16.2471015  50.8864854  73.6834183  15.3433345  51.0845064
  74.0984056  16.2488165  49.9444332  81.6184851   7.1194691  60.2689609
  82.1366795   7.8555718  59.9436098  81.2639984   7.4258684  61.1036369
  73.1983789  11.9799372  48.3851015  72.5053034  12.0543727  47.7291051
  72.9535540  11.2159716  48.9072532  81.8697445   3.5394973  55.7890506
  82.1499199   2.8718163  56.4150933  82.6548052   3.7324069  55.2765170
  79.6730914  22.7153967  47.3515532  79.1004881  23.3344155  46.8986004
  80.2463707  23.2653329  47.8855454  85.7406303  11.9612607  59.5362081
  86.6923726  12.0610705  59.5574305  85.5709754  11.1690876  60.0460165
  83.7620683   9.0468191  59.7221482  83.1670615   9.3273203  59.0267971
  83.4770380   9.5362092  60.4938223  82.8928173  22.9991118  48.4824115
  83.8258847  22.9336679  48.6856990  82.8051386  23.8347384  48.0238647
  85.5216190  22.3156988  45.4428062  85.4429822  21.9816851  46.3363820
  86.3425857  22.8078756  45.4419534  88.2194381  15.1818727  58.6504381
  88.1870701  14.2434728  58.8364065  88.8295005  15.2602764  57.9170206
  80.0577712  14.0514780  44.6931585  81.0036817  13.9220988  44.7620003
  79.6791957  13.3129442  45.1701013  88.3688870  11.9729771  58.6962664
  87.8527918  11.1888227  58.5092593  89.2528818  11.6448487  58.8609183
  86.0299597   5.7170786  54.6558477  85.8324418   5.4085874  55.5401809
  86.6399302   6.4432425  54.7856406  94.0370931  16.2434734  57.7910418
  94.7674320  15.9820022  58.3518121  93.4277877  15.5063456  57.8312486
  92.1186228  14.3842597  58.3884869  91.3919392  14.2498562  57.7801360
  91.7033515  14.6919425  59.1941587  79.9416405  18.1032526  66.1532242
  80.8619414  18.2811125  66.3472288  79.9065988  17.1588572  66.0011941
  78.2420629  11.9764757  44.6286470  77.3352085  11.6797869  44.7049184
  78.5196610  11.6794575  43.7620756  69.1598570  13.2971120  55.0785516
  68.8401354  12.4436428  54.7859890  68.6131998  13.5119698  55.8343484
  72.9378477  16.0133561  58.7955023  73.1564487  16.9450669  58.8143057
  73.3504251  15.6541535  59.5809827  79.8582695   6.5201646  50.7830711
  79.0483423   6.1748731  51.1585957  80.5467112   6.2109190  51.3718323
  81.7873243   5.5979693  52.4055008  82.3404282   6.0175146  53.0645031
  82.0243330   4.6715441  52.4477964  77.8106342  11.5866767  68.1857772
  77.7103069  12.5361124  68.1169863  77.5927885  11.2585006  67.3133842
  77.0119414   8.8351692  44.7698449  77.8738578   9.1606590  45.0294267
  77.1969758   8.0483188  44.2571515  69.0286830  16.9174031  57.0478638
  68.3350301  16.5027984  56.5348592  69.7759821  16.9594568  56.4512057
  85.1652050   7.7080218  51.9133672  84.5850719   8.3665022  51.5311725
  84.8987983   6.8857563  51.5021090  83.6155617   7.1085276  54.1154993
  84.1155395   7.2201810  53.3069311  84.2591225   6.8046329  54.7555801
  77.6737613  15.0163906  67.0022834  77.1904694  15.8164266  67.2086723
  77.7598552  15.0271850  66.0490277  70.9423572  16.8492285  54.9244653
  70.9194260  16.9479972  53.9726536  71.2524209  17.6957436  55.2461819
  73.6010950  18.9068440  59.0391267  74.5554204  18.8752383  58.9721199
  73.4023474  18.4459064  59.8541493  74.1910332  17.4769556  61.6062065
  75.0103221  17.9713635  61.6296902  74.4647140  16.5601524  61.5779632
  83.9476928   9.8680309  50.9690020  83.0602783  10.1529959  50.7510215
  84.3630917   9.7074072  50.1217297  87.2991464   9.8926830  54.6844360
  88.0751855  10.3823282  54.9568977  86.5739599  10.3184884  55.1416229
  89.7364023  10.6054449  55.7418300  90.3308514  10.3650185  55.0311609
  89.8090607   9.8861579  56.3691837  71.9561179  24.4488060  56.0561465
  71.8215647  23.6888461  55.4899463  71.5393241  25.1728960  55.5890254
  83.0920142  19.6324983  45.0638040  83.7955992  19.8374986  45.6795696
  82.3682791  20.2001745  45.3287124  83.9217952  15.3834845  51.1840311
  83.8653154  15.8403396  50.3447943  84.4746295  14.6225529  51.0063153
  87.7322758  11.1724576  52.0090430  87.4759692  10.7721212  52.8398638
  87.1075626  11.8868370  51.8840569  92.0435096  13.9120650  54.5161722
  91.4834654  13.9813839  55.2893284  91.4378599  13.7361634  53.7961218
  75.1130305  25.3457377  56.2679908  74.9962689  26.2902809  56.1658598
  74.2922751  25.0430938  56.6565707  85.0006839  20.0707512  47.1136501
  85.8352443  19.6388711  46.9313975  84.8391182  19.8989526  48.0413395
  84.6552731  16.5739626  48.4792840  84.6001535  16.4083897  47.5381284
  84.0298787  17.2815659  48.6355030  69.4445246  11.8107690  62.3054262
  70.0904110  11.3006644  62.7941487  69.2362398  12.5476372  62.8797687
  81.9698639  18.8788538  67.8046403  82.8389798  19.0529190  67.4433038
  81.4905390  19.6982954  67.6822132  77.9648857   6.0747735  48.0578158
  77.9527527   7.0189575  48.2146429  78.8572279   5.8917880  47.7637619
  76.1384819  25.9985639  59.4835836  77.0412066  26.0309249  59.8002331
  75.9122189  25.0686090  59.4982172  77.8938421  24.7516625  56.1445915
  76.9434052  24.7518487  56.0310287  78.1970907  24.0049360  55.6281949
  81.7800976   2.6690511  52.3124095  81.0133372   2.1148998  52.4580777
  82.1911681   2.7412380  53.1738247  73.7842737   8.9575307  66.4029276
  74.6474199   8.6012112  66.6132601  73.2108148   8.6189202  67.0904681
  93.6291114  30.5877164  57.2091677  94.2669524  30.4683911  56.5055017
  93.5111957  31.5358008  57.2679629  90.4380821  30.5404592  57.1453202
  90.0999332  30.4245656  56.2573737  91.3070589  30.1395757  57.1254208
  86.2967636  32.3940068  53.1350093  85.7332501  32.3030005  52.3666381
  86.1820031  31.5739973  53.6152585  90.9200604  31.6939443  63.1039407
  90.9089244  31.2992242  62.2319911  91.0821243  30.9605516  63.6973179
  83.8432068  33.8891260  55.9734313  84.6353360  33.5482084  55.5580613
  84.0828718  33.9986235  56.8936467  91.8767195  36.0611036  48.4464558
  91.2255175  36.6465116  48.0598572  92.6711558  36.5917231  48.5059595
  85.8022822  33.1500173  48.8451692  86.5753698  32.6029160  48.7064568
  86.1548221  34.0144422  49.0566154  87.6407865  34.4776555  62.0518591
  87.3497731  35.3822186  61.9365258  88.2764849  34.5193083  62.7662661
  88.5664072  31.8553404  58.6419951  89.1627644  31.6309426  57.9276914
  88.6239043  31.1138149  59.2445399  88.1389100  29.3092839  46.4770142
  88.3914621  28.7874360  45.7153605  87.2013659  29.1458984  46.5796826
  93.1832383  28.3128617  54.2844885  93.9695472  27.8948041  53.9335302
  93.4471087  29.2174710  54.4526534  93.3542460  33.7501468  48.9833542
  92.7188293  33.8236094  49.6954447  93.0239867  34.3395067  48.3052621
  98.5840810  28.2503851  55.1877864  99.3165982  27.6803067  55.4215693
  97.8280166  27.8625451  55.6284369  87.8585389  31.2120945  48.6794517
  87.7421647  30.5365848  49.3475601  87.9687649  30.7253319  47.8626670
  90.2016930  30.6731092  52.3841206  89.8375137  30.1461713  53.0954128
  91.0584046  30.2829561  52.2107692  96.1066230  21.9625425  59.6472472
  95.7749555  22.8320836  59.4233687  95.5111844  21.6461709  60.3266503
  89.8422417  25.7020992  47.3802555  90.0096819  26.5701228  47.7473026
  89.6519586  25.8648274  46.4563844  92.5997750  34.1637971  59.0468385
  92.2998473  35.0663010  58.9384192  92.2548809  33.8970154  59.8989538
  86.0510231  30.6151768  55.0805090  85.1260728  30.4827982  55.2882781
  86.2994644  31.3945987  55.5775032  95.9994894  26.6820511  56.7265822
  95.0911771  26.6135919  56.4324583  95.9482489  27.1592456  57.5547648
  89.8211638  28.1578649  48.3649222  89.7011263  28.6035700  49.2034702
  89.1264226  28.5063967  47.8062760  83.4119042  30.2585041  55.9148879
  83.5411424  30.5119520  56.8288290  82.7316494  30.8512749  55.5953534
  87.5818530  40.9282291  52.0139353  87.5042559  41.8790116  52.0927833
  86.9780173  40.5828164  52.6714279  90.0735759  28.1010156  64.6700720
  89.2969093  28.6604077  64.6603584  90.7126322  28.5866939  65.1915590
  97.8656540  24.8836949  58.5043696  97.2230920  25.1769482  57.8583491
  97.3611469  24.7689870  59.3096893  95.5196704  28.6300122  49.1929556
  96.4314560  28.8627509  49.0177253  95.0106351  29.2137167  48.6304634
  88.3282132  30.9095610  64.2318687  89.0696816  31.4480654  63.9553510
  87.6219117  31.5361899  64.3890239  93.8037471  33.0524750  62.8290848
  94.2120827  32.6107161  62.0845481  93.0814733  32.4777378  63.0825041
  90.1568541  27.9897357  60.2024405  91.0029737  28.4136771  60.3459054
  90.0967179  27.3330981  60.8962968  94.1266286  33.6125941  56.5843137
  93.4975148  33.7771655  55.8819205  93.7391948  34.0267550  57.3554101
  98.0055518  34.5480379  53.9387501  97.3206556  34.9279280  53.3884534
  98.0899367  35.1575705  54.6719449  93.3067987  25.6501725  61.8605579
  93.0628919  26.4043786  61.3239855  93.5827917  26.0287073  62.6952826
  95.2606449  32.1940338  60.5382844  95.4723345  32.8372098  59.8617225
  95.2136198  31.3602654  60.0704774  92.8632678  24.8058158  57.4419417
  92.0017157  25.1039412  57.7336154  92.8895113  25.0228557  56.5100449
  89.6794248  33.3500349  53.8493222  90.1432593  33.6288052  53.0597845
  89.4151046  32.4483794  53.6666313  86.5718329  32.8971831  56.7872985
  87.1419686  33.3259099  56.1490470  87.1626441  32.6154415  57.4857171
  88.6163134  29.4723501  50.6582787  89.3187177  29.9244545  51.1256714
  88.2843762  28.8307320  51.2862680  87.0643495  28.0635258  65.0333997
  86.4342156  28.7451539  65.2669394  86.9579583  27.9518340  64.0887135
  82.3588468  27.7307054  55.9599921  81.5687522  27.9864583  55.4840032
  82.8499715  28.5455392  56.0651961  96.3752277  35.0712293  58.7105202
  97.1969721  34.6692481  58.4287883  96.3714680  34.9680527  59.6621318
  84.3103213  28.0951633  52.9183398  83.5134377  28.2070328  53.4366893
  84.0828805  28.4338286  52.0524288  90.1408881  34.6196337  60.8665912
  90.2053313  35.0816744  61.7024084  89.4319805  33.9893701  60.9948222
  80.6426171  27.9837545  58.3914912  80.8934209  28.8684554  58.6572488
  81.1785719  27.8042146  57.6190004 104.4658270  31.4151042  55.0590173
 103.7121979  30.8458440  54.9034178 104.6005812  31.3813706  56.0060808
  89.8556899  36.2864444  50.7344893  89.7202573  37.1315980  51.1629740
  90.3966711  36.4883722  49.9710826  86.3424238  22.3656024  67.3959248
  85.9491184  21.8122222  68.0706892  87.1590378  22.6766602  67.7865765
  83.3086296  33.8039882  51.3072818  83.8210816  34.5983132  51.4578382
  83.9609009  33.1066173  51.2406419  85.1181181  36.9205638  53.3895571
  85.2947809  37.8423603  53.2016555  85.9138014  36.6064058  53.8189951
  89.2592199  23.7813903  64.9879504  90.0001913  24.3821056  64.9083967
  89.4910122  23.0391541  64.4297547  84.4033537  28.9670270  63.2657734
  84.2887052  28.0655527  63.5664833  83.5478055  29.2133967  62.9142551
  91.4825375  36.9088011  64.8645235  91.0389229  36.1224389  64.5466139
  92.1442588  37.0967161  64.1989125  86.2412496  38.4383812  59.3905913
  86.7919921  38.3100875  58.6182907  85.4023972  38.7378701  59.0400806
  93.5806613  37.1890810  62.8926636  93.5625088  38.0099691  62.4006905
  94.5026533  37.0644886  63.1176777  90.0379667  34.7034940  63.7350144
  90.5708004  33.9423228  63.5049452  89.5093748  34.4108592  64.4774299
  93.2049362  19.8095006  59.2643786  92.8613631  20.6996648  59.1882897
  93.5728325  19.6196664  58.4013371  81.2735213  32.1328536  52.0832388
  82.1110435  32.5425545  51.8666096  81.4513480  31.1927979  52.0532582
  93.1699645  29.8003617  47.7716221  92.6546268  30.5708222  48.0104609
  92.8976953  29.1268753  48.3949283  90.7546756  24.6453318  52.8301460
  89.8988352  24.2560168  52.6507098  91.1673708  24.7245279  51.9701245
  92.2845902  22.1799661  57.2293019  91.7810698  22.1429796  56.4160825
  92.5776509  23.0892404  57.2889676  88.5288788  22.2638391  56.2359201
  89.3941785  22.0681199  55.8765090  88.5966297  22.0348743  57.1628558
  98.1433919  32.5535972  49.7069395  97.3663362  32.2147131  49.2624557
  98.8225400  32.5588595  49.0324360  92.9585948  27.6730709  49.5976002
  92.6536084  27.9876858  50.4486146  93.9116390  27.7512129  49.6403335
  91.4032380  33.8320932  51.2468956  90.8753741  33.0973692  50.9342194
  90.9019883  34.6095609  51.0008925  96.3825226  32.0269953  56.3636003
  95.7248900  32.7169214  56.4516131  97.1865625  32.4166385  56.7069989
  86.1351107  24.4940599  53.6075568  86.7094859  24.2715780  52.8748761
  86.7222090  24.5629293  54.3604169  95.1930685  30.3814326  54.4139944
  95.7062566  31.0144317  54.9161654  95.8431909  29.7815521  54.0483304
  86.4620695  26.5245060  47.6271453  85.6258007  26.8619746  47.9480728
  86.3225464  26.3894040  46.6898590  88.4373775  21.3681848  52.3350637
  87.7838187  21.0530865  51.7107252  88.3954249  20.7457588  53.0610460
  89.5484980  31.6501143  44.2503929  88.6412042  31.4190396  44.4495078
  90.0456012  30.8538762  44.4377911  92.4553059  40.3598650  47.1700616
  91.7814758  40.6630347  47.7785573  92.8418881  41.1627730  46.8206073
  91.6711516  27.8563781  56.6598285  90.7534077  28.0778728  56.5019973
  92.0871659  27.9310092  55.8009992  92.4546563  29.2555197  51.7900965
  93.2018382  29.7676594  51.4808087  92.7238153  28.9339250  52.6505359
  90.7273213  31.7513738  48.7727919  89.8184433  31.4672770  48.8700389
  90.7568297  32.1712816  47.9131226  95.9592481  35.3620327  52.5419087
  95.5054808  34.5211237  52.5984277  95.3286448  35.9981725  52.8793867
  94.9025400  26.2912313  53.7719754  94.1648157  25.7789699  54.1029997
  95.1552174  25.8512695  52.9603031  94.4025420  37.1996824  53.4768905
  94.6948394  37.7601881  52.7581271  94.9124041  37.4925385  54.2322064
  95.0037028  19.0688565  54.3661524  95.3095905  18.2085929  54.0787439
  95.7289633  19.6606185  54.1660518  81.2961384  29.4719252  52.7543122
  81.0985784  28.8788612  52.0294188  80.7408048  29.1671462  53.4719060
  89.2758107  29.3642358  54.8737715  89.3306717  28.4116195  54.7980191
  88.4649310  29.5201797  55.3579013  90.4249301  33.2922481  46.1115998
  89.9868731  32.5758340  45.6521635  91.1659742  33.5198596  45.5501089
  87.2150467  27.9819418  52.6328094  86.4018333  28.2813588  53.0393286
  87.7109462  27.5875107  53.3502576  89.3659045  37.9777175  54.5662358
  89.3235224  38.2038021  53.6370890  90.2821744  37.7440549  54.7148159
  92.8124679  28.4461242  61.4642988  93.1674067  28.6732716  62.3237453
  93.4596810  28.7779619  60.8420243  98.5422416  31.5679678  52.1692317
  98.4040315  31.7581274  51.2413506  98.1858635  32.3299061  52.6260368
  86.7064542  25.5537773  58.2489329  87.3463921  25.4126533  57.5512292
  85.8742073  25.2672287  57.8727931  98.5691796  33.6356205  57.1803588
  99.0028302  33.5431494  58.0286642  99.2823376  33.6113706  56.5423604
  87.4824846  34.8540204  54.3624321  88.2765445  34.3590524  54.1606896
  86.7716538  34.3258067  53.9992027  92.3019691  37.2358299  58.7136689
  92.3556713  37.8049236  59.4814405  91.4334472  37.4060184  58.3490726
  83.7907610  28.9983286  50.4384074  82.8605198  28.9367741  50.6554036
  83.8865082  28.4759238  49.6420715  83.7093159  25.5238098  53.0262315
  83.9699976  26.4383432  52.9171476  84.5310331  25.0562541  53.1758928
  85.1818084  26.9375856  60.1961140  85.8541137  26.7293218  59.5473789
  84.3547870  26.7397942  59.7566372  99.4307345  33.6779906  59.7136473
  99.6243235  34.5825716  59.9595748  99.3307963  33.2187325  60.5475059
  91.0843656  23.5637796  62.2126801  90.4371571  24.2627746  62.1191277
  91.8544671  23.9973940  62.5803049  94.4922454  33.8286649  65.2877354
  94.3407960  33.5997200  64.3707438  94.4827133  34.7857250  65.3008699
  91.2607790  31.4018561  60.2723621  92.1899850  31.5529721  60.0992588
  90.8398820  31.4902582  59.4172267  90.0596122  35.4269226  58.0422158
  89.9207208  35.0588010  58.9148096  89.2710718  35.9416865  57.8706116
  90.6544274  40.5278322  49.3847695  90.8296030  40.0566365  50.1993317
  89.9677062  41.1544088  49.6128955  91.6101337  34.8050829  55.4310996
  91.2751170  34.7651598  56.3268646  91.1105283  34.1395544  54.9581406
  85.5845581  30.2118459  60.9563577  85.4465379  29.4798697  61.5575116
  86.4950505  30.1227359  60.6747765  94.5460529  32.1506863  45.7048056
  93.9289700  31.4253691  45.6081108  94.0777017  32.9116223  45.3615130
  88.2127882  29.9238418  60.4447257  88.9227500  29.2831610  60.4033875
  88.1697190  30.1751313  61.3673438  96.2014661  36.8605771  63.3653836
  96.1427207  36.1764991  62.6984419  96.6034179  37.6024761  62.9134462
  86.9256816  26.9103636  62.2642896  86.3894173  26.4594374  62.9164493
  86.3373524  27.0449545  61.5213361  85.2205359  43.6767685  56.1587555
  85.4601958  44.3086209  56.8366573  84.3774556  43.3255725  56.4452914
  86.3359075  26.3692287  44.8269360  85.4588541  26.2481088  44.4631607
  86.8116828  25.5778365  44.5748249  96.2032068  34.8245355  61.5967816
  95.3158847  34.4871277  61.7194214  96.7730619  34.0928386  61.8336581
  77.8561215  31.1569447  54.9210867  78.5432255  30.8431177  54.3331882
  77.7009344  32.0610812  54.6478118  82.6595937  26.0459643  59.3495891
  82.5754126  25.4385313  58.6146301  81.8378643  26.5368662  59.3505387
  89.7333221  39.4846807  58.5629059  89.6603393  40.2901779  59.0748363
  89.2910614  39.6838773  57.7377080  89.5223001  38.7218578  52.0731880
  88.7390523  39.2640258  52.1670105  90.2215746  39.2392557  52.4726122
  92.8319651  24.5313207  54.7166086  93.3288350  23.7783169  54.3967156
  92.0606632  24.5677524  54.1509295 100.6849408  30.2353573  56.3584377
 100.6739285  31.1178288  55.9878310  99.8166788  29.8825123  56.1638914
  92.1931905  39.3833642  60.7187217  92.9059877  40.0181106  60.6463119
  91.7021933  39.4797508  59.9027219  93.9149432  33.2884894  52.2904509
  92.9805710  33.4086357  52.1209213  94.0926100  32.3857361  52.0264519
  89.4154620  26.6730590  54.4437770  89.0452407  26.1201630  55.1318676
  89.9113712  26.0688723  53.8912770  97.3021983  29.1302213  52.8254543
  97.7682435  29.9630205  52.7514846  97.7529483  28.6647195  53.5299802
  87.2443818  37.1328085  61.5392788  87.9453278  37.7664568  61.6922183
  86.7738933  37.4742817  60.7788428  95.3698214  35.4746035  49.8240695
  95.6458058  35.3602629  50.7334569  94.5002713  35.0763520  49.7852868
  95.2738646  21.4982800  56.8645445  94.3601726  21.7287027  57.0327652
  95.7031747  21.5821245  57.7159477  95.0445104  29.6872692  59.3645339
  94.3916554  29.9348600  58.7097791  95.4225484  28.8736831  59.0307816
  92.0052278  39.7232386  53.4673509  92.1874673  38.9054042  53.9301261
  92.8285264  39.9400078  53.0298399  92.3394444  38.6500571  50.7288557
  92.8682210  38.1393025  50.1158720  92.6022663  38.3343101  51.5934090
  91.0932677  30.4292503  65.8511376  90.4173314  30.3286633  66.5213751
  91.9160311  30.2731717  66.3147373  82.8411536  36.6664440  58.4723891
  83.4264973  35.9208128  58.6051795  82.6436375  36.9768397  59.3560555
  85.6950192  39.7015687  53.4886333  85.0260567  40.1861815  53.0050373
  85.5563061  39.9484908  54.4029712  77.4329191  29.2370040  57.1928334
  77.4713291  28.7033631  57.9865452  76.9269484  28.7105246  56.5739311
  89.8355460  41.7359431  60.0868992  90.3873768  41.8991052  60.8518077
  90.1761654  42.3263869  59.4149017  84.8119953  24.0834581  60.6890876
  84.8761280  24.9449412  60.2768274  84.7487074  23.4708582  59.9563235
  84.2872226  26.1557713  64.3363911  84.9144265  25.7734791  64.9501435
  83.4300145  25.9371915  64.7019603  94.6866334  36.5620688  65.9417646
  95.2306238  37.1750647  65.4472601  94.1053179  37.1200267  66.4584659
  81.0637769  27.9634142  50.2682266  81.3591210  27.0544821  50.2149319
  80.1625804  27.9421882  49.9463268  92.9723847  39.6841406  57.0732674
  92.8474987  38.8831146  56.5643619  93.6302939  40.1787600  56.5846644
  84.5932016  26.0390139  56.2509814  83.8718601  26.6526107  56.1117287
  85.3825271  26.5747904  56.1726460  95.0358756  37.4850427  58.7012224
  94.0889091  37.3655778  58.6290551  95.3841529  36.5972925  58.7838485
  87.3958329  23.3744565  62.5250466  87.9192731  23.6206862  63.2876775
  87.1770662  24.2064600  62.1053603  82.7925610  25.6448240  50.3921591
  82.4638316  24.7645619  50.2096697  83.1464981  25.5895909  51.2797980
  92.0405189  37.2803143  54.9016576  91.8930152  36.3519850  55.0824146
  92.8658683  37.3023233  54.4173651  85.9067433  25.9321210  50.7597068
  86.2463506  26.4607131  50.0375677  86.3539554  26.2701616  51.5355635
  95.6439311  38.1031702  55.9881449  96.5685858  37.8974563  55.8505900
  95.4754614  37.8548103  56.8970790  88.6010874  24.3158261  60.2100136
  88.2607695  23.5166074  60.6120816  87.8949880  24.6159971  59.6376970
  89.2527346  21.4007573  58.6627459  90.0753415  20.9268051  58.5406350
  89.4965410  22.1798057  59.1626146  87.8935581  24.4295831  48.9590361
  88.6143943  24.8077084  48.4554078  87.2700885  25.1484708  49.0625339
  92.0366703  25.1340980  49.8948693  92.2530318  26.0165618  49.5937522
  91.5560771  24.7427194  49.1654335  86.7765925  28.0926694  56.4719438
  86.6310505  28.4066997  57.3643720  86.2991128  28.7111594  55.9190337
  88.6362308  25.0829242  56.5200328  88.6223876  24.1870335  56.1832626
  89.3534736  25.0899905  57.1538614  90.4888438  25.5166582  58.5653455
  90.2306216  26.4383652  58.5637785  89.9573479  25.1197016  59.2553919
  95.4334627  38.6217369  51.3443540  95.6071505  38.0563791  50.5917393
  95.9263518  39.4218264  51.1623030  81.2511587  30.6332038  59.4107099
  80.7065055  31.4091846  59.5427374  82.1290937  30.9802843  59.2526221
  88.0399204  23.9643622  51.7887898  88.1615115  23.0360268  51.9878785
  87.7501246  23.9782308  50.8766213  90.9090394  21.6498532  54.9254618
  90.9312091  21.7137865  53.9706597  91.3258453  20.8103041  55.1195124
 101.2874018  31.3853792  52.9633840 101.7305164  30.6361117  52.5652963
 100.4100529  31.3763928  52.5807572  96.4209800  37.9384133  48.4440439
  97.1160704  38.5590826  48.6627753  96.7632950  37.0879485  48.7192817
  82.0377609  29.7601934  62.3037256  81.2959345  29.9084570  62.8901887
  81.7170353  30.0210200  61.4404006  98.3201223  35.3883839  49.9727769
  98.8452547  35.7271112  49.2477089  98.2323575  34.4530854  49.7890904
  89.9821271  39.3017913  62.1017646  90.2908398  39.0567059  62.9740346
  90.7796753  39.5064551  61.6136516  90.0041883  41.4555822  54.3323023
  89.5646874  40.9632201  55.0255879  90.7550000  40.9128790  54.0915098
  82.4834222  37.6467363  54.3347651  83.3092242  37.3471135  53.9546294
  82.1328274  36.8774985  54.7837439  87.4515756  36.9993831  56.4045324
  86.8295765  36.3364536  56.1047552  88.1220623  37.0254963  55.7218972
  80.6842828  35.5653689  55.2936584  79.8474736  35.1375864  55.1120586
  80.6566473  35.7586133  56.2307376  87.5240283  25.4775619  65.9977830
  87.5728439  26.3537742  65.6155600  88.0662797  24.9353012  65.4249474
  98.0095129  36.0216743  65.2778967  97.2190673  36.0040881  64.7383467
  97.7728483  36.5605036  66.0328004  98.1293004  32.8709209  62.5911696
  98.1791009  32.7059216  63.5327219  98.0206927  32.0036468  62.2009577
  87.0129263  35.5497755  49.8803785  87.1617383  36.2333219  49.2270458
  87.8195706  35.5302845  50.3953241  95.4196766  28.8540137  63.9071003
  96.3206629  28.7146602  63.6155000  95.4944741  29.0194592  64.8469180
  89.7539572  26.2306992  62.7524189  88.8842881  26.5240558  62.4806778
  89.9899052  26.8147437  63.4731453  99.6311201  35.2906150  62.8353718
  99.3396009  35.6536131  63.6717178  99.0183332  34.5773159  62.6567050
 100.8306883  32.8559030  55.3556288 101.6653774  33.2948834  55.5193848
 100.9666012  32.3797683  54.5364534  97.8798389  30.4138765  61.3033775
  98.3552511  30.6066411  60.4952627  96.9563954  30.4697951  61.0577159
  84.7681896  31.5762932  50.8864854  84.5227937  30.6725262  51.0845064
  84.9377810  31.5780083  49.9444332  92.4578605  22.4486609  60.2689609
  92.9760549  23.1847636  59.9436098  92.1033738  22.7550602  61.1036369
  84.0377543  27.3091290  48.3851015  83.3446788  27.3835645  47.7291051
  83.7929295  26.5451633  48.9072532  92.7091200  18.8686891  55.7890506
  92.9892953  18.2010080  56.4150933  93.4941807  19.0615987  55.2765170
  90.5124668  38.0445885  47.3515532  89.9398635  38.6636072  46.8986004
  91.0857462  38.5945247  47.8855454  96.5800058  27.2904525  59.5362081
  97.5317481  27.3902623  59.5574305  96.4103508  26.4982794  60.0460165
  94.6014437  24.3760108  59.7221482  94.0064370  24.6565121  59.0267971
  94.3164134  24.8654009  60.4938223  93.7321928  38.3283035  48.4824115
  94.6652601  38.2628597  48.6856990  93.6445141  39.1639302  48.0238647
  96.3609945  37.6448906  45.4428062  96.2823576  37.3108769  46.3363820
  97.1819611  38.1370673  45.4419534  99.0588136  30.5110645  58.6504381
  99.0264456  29.5726646  58.8364065  99.6688759  30.5894682  57.9170206
  90.8971467  29.3806698  44.6931585  91.8430571  29.2512906  44.7620003
  90.5185712  28.6421360  45.1701013  99.2082624  27.3021688  58.6962664
  98.6921673  26.5180145  58.5092593 100.0922573  26.9740405  58.8609183
  96.8693351  21.0462704  54.6558477  96.6718172  20.7377792  55.5401809
  97.4793057  21.7724343  54.7856406 104.8764686  31.5726652  57.7910418
 105.6068074  31.3111940  58.3518121 104.2671631  30.8355374  57.8312486
 102.9579983  29.7134514  58.3884869 102.2313146  29.5790479  57.7801360
 102.5427270  30.0211343  59.1941587  90.7810159  33.4324444  66.1532242
  91.7013169  33.6103043  66.3472288  90.7459742  32.4880489  66.0011941
  89.0814384  27.3056674  44.6286470  88.1745839  27.0089787  44.7049184
  89.3590365  27.0086492  43.7620756  79.9992324  28.6263038  55.0785516
  79.6795108  27.7728346  54.7859890  79.4525752  28.8411616  55.8343484
  83.7772232  31.3425479  58.7955023  83.9958241  32.2742586  58.8143057
  84.1898005  30.9833453  59.5809827  90.6976449  21.8493564  50.7830711
  89.8877178  21.5040649  51.1585957  91.3860866  21.5401108  51.3718323
  92.6266998  20.9271611  52.4055008  93.1798036  21.3467064  53.0645031
  92.8637084  20.0007359  52.4477964  88.6500097  26.9158684  68.1857772
  88.5496824  27.8653041  68.1169863  88.4321639  26.5876923  67.3133842
  87.8513168  24.1643609  44.7698449  88.7132332  24.4898508  45.0294267
  88.0363513  23.3775105  44.2571515  79.8680584  32.2465949  57.0478638
  79.1744056  31.8319902  56.5348592  80.6153575  32.2886486  56.4512057
  96.0045805  23.0372136  51.9133672  95.4244474  23.6956940  51.5311725
  95.7381738  22.2149480  51.5021090  94.4549371  22.4377194  54.1154993
  94.9549150  22.5493728  53.3069311  95.0984979  22.1338246  54.7555801
  88.5131367  30.3455823  67.0022834  88.0298449  31.1456183  67.2086723
  88.5992306  30.3563768  66.0490277  81.7817327  32.1784203  54.9244653
  81.7588015  32.2771890  53.9726536  82.0917963  33.0249354  55.2461819
  84.4404705  34.2360358  59.0391267  85.3947958  34.2044300  58.9721199
  84.2417228  33.7750982  59.8541493  85.0304087  32.8061474  61.6062065
  85.8496976  33.3005553  61.6296902  85.3040894  31.8893442  61.5779632
  94.7870683  25.1972226  50.9690020  93.8996538  25.4821877  50.7510215
  95.2024672  25.0365990  50.1217297  98.1385219  25.2218747  54.6844360
  98.9145609  25.7115200  54.9568977  97.4133353  25.6476801  55.1416229
 100.5757778  25.9346366  55.7418300 101.1702268  25.6942102  55.0311609
 100.6484361  25.2153497  56.3691837  82.7954933  39.7779977  56.0561465
  82.6609401  39.0180378  55.4899463  82.3786996  40.5020877  55.5890254
  93.9313896  34.9616901  45.0638040  94.6349746  35.1666903  45.6795696
  93.2076545  35.5293663  45.3287124  94.7611707  30.7126762  51.1840311
  94.7046908  31.1695314  50.3447943  95.3140049  29.9517447  51.0063153
  98.5716513  26.5016494  52.0090430  98.3153447  26.1013130  52.8398638
  97.9469381  27.2160288  51.8840569 102.8828850  29.2412567  54.5161722
 102.3228408  29.3105757  55.2893284 102.2772354  29.0653552  53.7961218
  85.9524059  40.6749294  56.2679908  85.8356443  41.6194727  56.1658598
  85.1316505  40.3722856  56.6565707  95.8400594  35.3999430  47.1136501
  96.6746198  34.9680629  46.9313975  95.6784937  35.2281444  48.0413395
  95.4946486  31.9031543  48.4792840  95.4395290  31.7375815  47.5381284
  94.8692541  32.6107576  48.6355030  80.2839001  27.1399608  62.3054262
  80.9297864  26.6298562  62.7941487  80.0756152  27.8768289  62.8797687
  92.8092393  34.2080455  67.8046403  93.6783553  34.3821108  67.4433038
  92.3299145  35.0274872  67.6822132  88.8042611  21.4039652  48.0578158
  88.7921281  22.3481492  48.2146429  89.6966033  21.2209798  47.7637619
  86.9778573  41.3277556  59.4835836  87.8805820  41.3601167  59.8002331
  86.7515943  40.3978007  59.4982172  88.7332175  40.0808543  56.1445915
  87.7827806  40.0810404  56.0310287  89.0364661  39.3341277  55.6281949
  92.6194731  17.9982429  52.3124095  91.8527127  17.4440916  52.4580777
  93.0305436  18.0704298  53.1738247  84.6236492  24.2867225  66.4029276
  85.4867953  23.9304030  66.6132601  84.0501903  23.9481120  67.0904681
 104.4684869  45.9169081  57.2091677 105.1063279  45.7975829  56.5055017
 104.3505712  46.8649925  57.2679629 101.2774575  45.8696509  57.1453202
 100.9393087  45.7537574  56.2573737 102.1464343  45.4687674  57.1254208
  97.1361391  47.7231986  53.1350093  96.5726256  47.6321923  52.3666381
  97.0213786  46.9031890  53.6152585 101.7594358  47.0231361  63.1039407
 101.7482999  46.6284159  62.2319911 101.9214998  46.2897434  63.6973179
  94.6825823  49.2183177  55.9734313  95.4747115  48.8774002  55.5580613
  94.9222473  49.3278152  56.8936467 102.7160950  51.3902953  48.4464558
 102.0648929  51.9757034  48.0598572 103.5105312  51.9209148  48.5059595
  96.6416577  48.4792091  48.8451692  97.4147453  47.9321078  48.7064568
  96.9941976  49.3436340  49.0566154  98.4801619  49.8068473  62.0518591
  98.1891485  50.7114104  61.9365258  99.1158604  49.8485000  62.7662661
  99.4057826  47.1845321  58.6419951 100.0021398  46.9601344  57.9276914
  99.4632798  46.4430067  59.2445399  98.9782854  44.6384757  46.4770142
  99.2308375  44.1166278  45.7153605  98.0407414  44.4750902  46.5796826
 104.0226137  43.6420535  54.2844885 104.8089227  43.2239958  53.9335302
 104.2864842  44.5466627  54.4526534 104.1936215  49.0793385  48.9833542
 103.5582048  49.1528012  49.6954447 103.8633621  49.6686984  48.3052621
 109.4234564  43.5795768  55.1877864 110.1559736  43.0094985  55.4215693
 108.6673920  43.1917369  55.6284369  98.6979143  46.5412863  48.6794517
  98.5815401  45.8657766  49.3475601  98.8081403  46.0545237  47.8626670
 101.0410684  46.0023010  52.3841206 100.6768891  45.4753631  53.0954128
 101.8977800  45.6121479  52.2107692 106.9459985  37.2917342  59.6472472
 106.6143310  38.1612753  59.4233687 106.3505598  36.9753626  60.3266503
 100.6816171  41.0312909  47.3802555 100.8490573  41.8993146  47.7473026
 100.4913340  41.1940191  46.4563844 103.4391504  49.4929888  59.0468385
 103.1392227  50.3954927  58.9384192 103.0942564  49.2262072  59.8989538
  96.8903986  45.9443685  55.0805090  95.9654482  45.8119899  55.2882781
  97.1388399  46.7237904  55.5775032 106.8388648  42.0112429  56.7265822
 105.9305525  41.9427837  56.4324583 106.7876244  42.4884374  57.5547648
 100.6605392  43.4870567  48.3649222 100.5405017  43.9327618  49.2034702
  99.9657980  43.8355885  47.8062760  94.2512797  45.5876959  55.9148879
  94.3805178  45.8411438  56.8288290  93.5710248  46.1804667  55.5953534
  98.4212284  56.2574209  52.0139353  98.3436314  57.2082034  52.0927833
  97.8173928  55.9120081  52.6714279 100.9129514  43.4302074  64.6700720
 100.1362848  43.9895994  64.6603584 101.5520077  43.9158857  65.1915590
 108.7050294  40.2128867  58.5043696 108.0624675  40.5061400  57.8583491
 108.2005223  40.0981787  59.3096893 106.3590458  43.9592040  49.1929556
 107.2708314  44.1919427  49.0177253 105.8500105  44.5429084  48.6304634
  99.1675886  46.2387528  64.2318687  99.9090571  46.7772571  63.9553510
  98.4612872  46.8653816  64.3890239 104.6431226  48.3816668  62.8290848
 105.0514582  47.9399079  62.0845481 103.9208487  47.8069296  63.0825041
 100.9962296  43.3189275  60.2024405 101.8423491  43.7428688  60.3459054
 100.9360934  42.6622899  60.8962968 104.9660040  48.9417859  56.5843137
 104.3368903  49.1063573  55.8819205 104.5785703  49.3559468  57.3554101
 108.8449272  49.8772296  53.9387501 108.1600311  50.2571198  53.3884534
 108.9293122  50.4867623  54.6719449 104.1461741  40.9793643  61.8605579
 103.9022673  41.7335704  61.3239855 104.4221672  41.3578991  62.6952826
 106.1000204  47.5232255  60.5382844 106.3117099  48.1664015  59.8617225
 106.0529952  46.6894572  60.0704774 103.7026433  40.1350076  57.4419417
 102.8410912  40.4331330  57.7336154 103.7288868  40.3520475  56.5100449
 100.5188002  48.6792267  53.8493222 100.9826348  48.9579970  53.0597845
 100.2544800  47.7775711  53.6666313  97.4112083  48.2263748  56.7872985
  97.9813440  48.6551017  56.1490470  98.0020195  47.9446333  57.4857171
  99.4556888  44.8015419  50.6582787 100.1580932  45.2536463  51.1256714
  99.1237517  44.1599238  51.2862680  97.9037250  43.3927176  65.0333997
  97.2735911  44.0743457  65.2669394  97.7973338  43.2810257  64.0887135
  93.1982222  43.0598972  55.9599921  92.4081276  43.3156500  55.4840032
  93.6893470  43.8747310  56.0651961 107.2146032  50.4004211  58.7105202
 108.0363476  49.9984398  58.4287883 107.2108435  50.2972445  59.6621318
  95.1496968  43.4243551  52.9183398  94.3528131  43.5362245  53.4366893
  94.9222560  43.7630203  52.0524288 100.9802635  49.9488254  60.8665912
 101.0447068  50.4108661  61.7024084 100.2713559  49.3185619  60.9948222
  91.4819925  43.3129462  58.3914912  91.7327964  44.1976472  58.6572488
  92.0179474  43.1334064  57.6190004 115.3052025  46.7442959  55.0590173
 114.5515733  46.1750357  54.9034178 115.4399566  46.7105624  56.0060808
 100.6950653  51.6156362  50.7344893 100.5596328  52.4607897  51.1629740
 101.2360466  51.8175639  49.9710826  97.1817993  37.6947942  67.3959248
  96.7884938  37.1414140  68.0706892  97.9984133  38.0058520  67.7865765
  94.1480050  49.1331800  51.3072818  94.6604571  49.9275050  51.4578382
  94.8002763  48.4358090  51.2406419  95.9574935  52.2497556  53.3895571
  96.1341563  53.1715521  53.2016555  96.7531769  51.9355975  53.8189951
 100.0985954  39.1105821  64.9879504 100.8395667  39.7112974  64.9083967
 100.3303876  38.3683458  64.4297547 102.3219129  52.2379928  64.8645235
 101.8782984  51.4516307  64.5466139 102.9836343  52.4259079  64.1989125
  97.0806251  53.7675730  59.3905913  97.6313676  53.6392793  58.6182907
  96.2417726  54.0670619  59.0400806 104.4200367  52.5182728  62.8926636
 104.4018843  53.3391609  62.4006905 105.3420288  52.3936803  63.1176777
 100.8773422  50.0326858  63.7350144 101.4101758  49.2715146  63.5049452
 100.3487503  49.7400509  64.4774299 104.0443117  35.1386924  59.2643786
 103.7007386  36.0288565  59.1882897 104.4122079  34.9488581  58.4013371
  92.1128967  47.4620454  52.0832388  92.9504189  47.8717462  51.8666096
  92.2907235  46.5219896  52.0532582 104.0093399  45.1295535  47.7716221
 103.4940023  45.9000139  48.0104609 103.7370708  44.4560671  48.3949283
 101.5940510  39.9745235  52.8301460 100.7382107  39.5852086  52.6507098
 102.0067462  40.0537196  51.9701245 103.1239657  37.5091579  57.2293019
 102.6204453  37.4721714  56.4160825 103.4170264  38.4184321  57.2889676
  99.3682543  37.5930308  56.2359201 100.2335540  37.3973117  55.8765090
  99.4360052  37.3640660  57.1628558 108.9827673  47.8827889  49.7069395
 108.2057116  47.5439049  49.2624557 109.6619154  47.8880512  49.0324360
 103.7979702  43.0022627  49.5976002 103.4929838  43.3168776  50.4486146
 104.7510145  43.0804047  49.6403335 102.2426134  49.1612850  51.2468956
 101.7147496  48.4265610  50.9342194 101.7413637  49.9387526  51.0008925
 107.2218980  47.3561871  56.3636003 106.5642655  48.0461132  56.4516131
 108.0259380  47.7458303  56.7069989  96.9744862  39.8232516  53.6075568
  97.5488614  39.6007698  52.8748761  97.5615844  39.8921211  54.3604169
 106.0324439  45.7106243  54.4139944 106.5456321  46.3436235  54.9161654
 106.6825663  45.1107439  54.0483304  97.3014449  41.8536977  47.6271453
  96.4651761  42.1911664  47.9480728  97.1619219  41.7185957  46.6898590
  99.2767530  36.6973765  52.3350637  98.6231942  36.3822782  51.7107252
  99.2348004  36.0749506  53.0610460 100.3878735  46.9793060  44.2503929
  99.4805796  46.7482314  44.4495078 100.8849766  46.1830680  44.4377911
 103.2946813  55.6890568  47.1700616 102.6208512  55.9922264  47.7785573
 103.6812635  56.4919648  46.8206073 102.5105270  43.1855699  56.6598285
 101.5927831  43.4070646  56.5019973 102.9265414  43.2602009  55.8009992
 103.2940318  44.5847115  51.7900965 104.0412137  45.0968512  51.4808087
 103.5631907  44.2631167  52.6505359 101.5666968  47.0805655  48.7727919
 100.6578187  46.7964688  48.8700389 101.5962052  47.5004734  47.9131226
 106.7986235  50.6912245  52.5419087 106.3448562  49.8503155  52.5984277
 106.1680202  51.3273643  52.8793867 105.7419155  41.6204231  53.7719754
 105.0041912  41.1081617  54.1029997 105.9945928  41.1804612  52.9603031
 105.2419175  52.5288741  53.4768905 105.5342149  53.0893799  52.7581271
 105.7517795  52.8217302  54.2322064 105.8430782  34.3980483  54.3661524
 106.1489659  33.5377846  54.0787439 106.5683387  34.9898103  54.1660518
  92.1355138  44.8011169  52.7543122  91.9379538  44.2080530  52.0294188
  91.5801802  44.4963380  53.4719060 100.1151862  44.6934276  54.8737715
 100.1700472  43.7408112  54.7980191  99.3043064  44.8493715  55.3579013
 101.2643056  48.6214399  46.1115998 100.8262486  47.9050258  45.6521635
 102.0053497  48.8490514  45.5501089  98.0544222  43.3111336  52.6328094
  97.2412087  43.6105506  53.0393286  98.5503216  42.9167024  53.3502576
 100.2052800  53.3069092  54.5662358 100.1628979  53.5329939  53.6370890
 101.1215499  53.0732467  54.7148159 103.6518434  43.7753160  61.4642988
 104.0067821  44.0024633  62.3237453 104.2990565  44.1071537  60.8420243
 109.3816171  46.8971596  52.1692317 109.2434069  47.0873192  51.2413506
 109.0252389  47.6590979  52.6260368  97.5458297  40.8829691  58.2489329
  98.1857676  40.7418450  57.5512292  96.7135827  40.5964204  57.8727931
 109.4085550  48.9648123  57.1803588 109.8422057  48.8723412  58.0286642
 110.1217131  48.9405623  56.5423604  98.3218601  50.1832122  54.3624321
  99.1159199  49.6882442  54.1606896  97.6110293  49.6549985  53.9992027
 103.1413445  52.5650217  58.7136689 103.1950467  53.1341153  59.4814405
 102.2728226  52.7352102  58.3490726  94.6301364  44.3275203  50.4384074
  93.6998952  44.2659659  50.6554036  94.7258836  43.8051156  49.6420715
  94.5486913  40.8530016  53.0262315  94.8093730  41.7675349  52.9171476
  95.3704085  40.3854459  53.1758928  96.0211838  42.2667773  60.1961140
  96.6934892  42.0585135  59.5473789  95.1941625  42.0689859  59.7566372
 110.2701100  49.0071824  59.7136473 110.4636990  49.9117634  59.9595748
 110.1701718  48.5479243  60.5475059 101.9237410  38.8929714  62.2126801
 101.2765325  39.5919664  62.1191277 102.6938426  39.3265858  62.5803049
 105.3316208  49.1578566  65.2877354 105.1801715  48.9289118  64.3707438
 105.3220888  50.1149168  65.3008699 102.1001545  46.7310479  60.2723621
 103.0293605  46.8821639  60.0992588 101.6792575  46.8194500  59.4172267
 100.8989877  50.7561144  58.0422158 100.7600962  50.3879928  58.9148096
 100.1104473  51.2708783  57.8706116 101.4938029  55.8570240  49.3847695
 101.6689784  55.3858283  50.1993317 100.8070817  56.4836006  49.6128955
 102.4495092  50.1342746  55.4310996 102.1144924  50.0943516  56.3268646
 101.9499037  49.4687462  54.9581406  96.4239336  45.5410376  60.9563577
  96.2859134  44.8090615  61.5575116  97.3344259  45.4519276  60.6747765
 105.3854283  47.4798781  45.7048056 104.7683454  46.7545609  45.6081108
 104.9170772  48.2408141  45.3615130  99.0521636  45.2530336  60.4447257
  99.7621255  44.6123528  60.4033875  99.0090944  45.5043230  61.3673438
 107.0408415  52.1897689  63.3653836 106.9820961  51.5056909  62.6984419
 107.4427933  52.9316679  62.9134462  97.7650570  42.2395553  62.2642896
  97.2287927  41.7886292  62.9164493  97.1767279  42.3741462  61.5213361
  96.0599114  59.0059603  56.1587555  96.2995712  59.6378127  56.8366573
  95.2168310  58.6547643  56.4452914  97.1752829  41.6984205  44.8269360
  96.2982296  41.5773006  44.4631607  97.6510582  40.9070283  44.5748249
 107.0425822  50.1537273  61.5967816 106.1552601  49.8163195  61.7194214
 107.6124373  49.4220304  61.8336581  88.6954969  46.4861365  54.9210867
  89.3826009  46.1723095  54.3331882  88.5403098  47.3902729  54.6478118
  93.4989692  41.3751561  59.3495891  93.4147880  40.7677231  58.6146301
  92.6772398  41.8660579  59.3505387 100.5726976  54.8138725  58.5629059
 100.4997147  55.6193697  59.0748363 100.1304369  55.0130691  57.7377080
 100.3616755  54.0510495  52.0731880  99.5784277  54.5932175  52.1670105
 101.0609500  54.5684475  52.4726122 103.6713405  39.8605125  54.7166086
 104.1682105  39.1075087  54.3967156 102.9000387  39.8969441  54.1509295
 111.5243163  45.5645490  56.3584377 111.5133039  46.4470206  55.9878310
 110.6560542  45.2117041  56.1638914 103.0325659  54.7125559  60.7187217
 103.7453631  55.3473024  60.6463119 102.5415688  54.8089425  59.9027219
 104.7543186  48.6176812  52.2904509 103.8199465  48.7378274  52.1209213
 104.9319855  47.7149279  52.0264519 100.2548374  42.0022508  54.4437770
  99.8846162  41.4493548  55.1318676 100.7507467  41.3980641  53.8912770
 108.1415737  44.4594131  52.8254543 108.6076190  45.2922123  52.7514846
 108.5923238  43.9939113  53.5299802  98.0837573  52.4620003  61.5392788
  98.7847032  53.0956486  61.6922183  97.6132688  52.8034734  60.7788428
 106.2091969  50.8037952  49.8240695 106.4851812  50.6894547  50.7334569
 105.3396467  50.4055437  49.7852868 106.1132400  36.8274718  56.8645445
 105.1995480  37.0578945  57.0327652 106.5425502  36.9113162  57.7159477
 105.8838859  45.0164610  59.3645339 105.2310309  45.2640518  58.7097791
 106.2619239  44.2028748  59.0307816 102.8446033  55.0524303  53.4673509
 103.0268427  54.2345959  53.9301261 103.6679019  55.2691996  53.0298399
 103.1788198  53.9792488  50.7288557 103.7075965  53.4684943  50.1158720
 103.4416418  53.6635019  51.5934090 101.9326432  45.7584421  65.8511376
 101.2567069  45.6578551  66.5213751 102.7554066  45.6023635  66.3147373
  96.5343946  55.0307605  53.4886333  95.8654321  55.5153733  53.0050373
  96.3956816  55.2776826  54.4029712  88.2722946  44.5661958  57.1928334
  88.3107045  44.0325549  57.9865452  87.7663238  44.0397163  56.5739311
 100.6749215  57.0651349  60.0868992 101.2267523  57.2282970  60.8518077
 101.0155408  57.6555786  59.4149017  95.6513708  39.4126498  60.6890876
  95.7155034  40.2741329  60.2768274  95.5880828  38.8000500  59.9563235
  95.1265980  41.4849631  64.3363911  95.7538019  41.1026708  64.9501435
  94.2693899  41.2663833  64.7019603 105.5260089  51.8912606  65.9417646
 106.0699993  52.5042564  65.4472601 104.9446934  52.4492185  66.4584659
  91.9031523  43.2926060  50.2682266  92.1984964  42.3836738  50.2149319
  91.0019559  43.2713800  49.9463268 103.8117602  55.0133324  57.0732674
 103.6868741  54.2123064  56.5643619 104.4696693  55.5079518  56.5846644
  95.4325770  41.3682057  56.2509814  94.7112356  41.9818024  56.1117287
  96.2219026  41.9039821  56.1726460 105.8752510  52.8142344  58.7012224
 104.9282846  52.6947695  58.6290551 106.2235283  51.9264842  58.7838485
  98.2352084  38.7036483  62.5250466  98.7586485  38.9498780  63.2876775
  98.0164417  39.5356518  62.1053603  93.6319365  40.9740158  50.3921591
  93.3032071  40.0937537  50.2096697  93.9858735  40.9187826  51.2797980
 102.8798944  52.6095060  54.9016576 102.7323906  51.6811768  55.0824146
 103.7052437  52.6315151  54.4173651  96.7461188  41.2613128  50.7597068
  97.0857260  41.7899049  50.0375677  97.1933308  41.5993534  51.5355635
 106.4833065  53.4323619  55.9881449 107.4079613  53.2266481  55.8505900
 106.3148369  53.1840020  56.8970790  99.4404629  39.6450178  60.2100136
  99.1001449  38.8457991  60.6120816  98.7343635  39.9451889  59.6376970
 100.0921100  36.7299491  58.6627459 100.9147170  36.2559969  58.5406350
 100.3359164  37.5089974  59.1626146  98.7329335  39.7587749  48.9590361
  99.4537697  40.1369002  48.4554078  98.1094639  40.4776626  49.0625339
 102.8760458  40.4632898  49.8948693 103.0924072  41.3457536  49.5937522
 102.3954525  40.0719112  49.1654335  97.6159679  43.4218611  56.4719438
  97.4704260  43.7358914  57.3643720  97.1384883  44.0403512  55.9190337
  99.4756062  40.4121159  56.5200328  99.4617631  39.5162253  56.1832626
 100.1928490  40.4191823  57.1538614 101.3282193  40.8458500  58.5653455
 101.0699971  41.7675570  58.5637785 100.7967233  40.4488934  59.2553919
 106.2728382  53.9509287  51.3443540 106.4465259  53.3855709  50.5917393
 106.7657273  54.7510182  51.1623030  92.0905341  45.9623956  59.4107099
  91.5458809  46.7383764  59.5427374  92.9684691  46.3094760  59.2526221
  98.8792958  39.2935540  51.7887898  99.0008869  38.3652186  51.9878785
  98.5895000  39.3074226  50.8766213 101.7484148  36.9790450  54.9254618
 101.7705845  37.0429783  53.9706597 102.1652207  36.1394959  55.1195124
 112.1267773  46.7145710  52.9633840 112.5698919  45.9653035  52.5652963
 111.2494283  46.7055846  52.5807572 107.2603554  53.2676051  48.4440439
 107.9554459  53.8882744  48.6627753 107.6026704  52.4171402  48.7192817
 109.1594977  50.7175757  49.9727769 109.6846301  51.0563029  49.2477089
 109.0717330  49.7822772  49.7890904 100.8215026  54.6309830  62.1017646
 101.1302152  54.3858977  62.9740346 101.6190508  54.8356469  61.6136516
 100.8435638  56.7847740  54.3323023 100.4040628  56.2924119  55.0255879
 101.5943755  56.2420708  54.0915098  93.3227977  52.9759281  54.3347651
  94.1485997  52.6763053  53.9546294  92.9722029  52.2066903  54.7837439
  98.2909510  52.3285749  56.4045324  97.6689519  51.6656454  56.1047552
  98.9614377  52.3546881  55.7218972  91.5236582  50.8945607  55.2936584
  90.6868490  50.4667782  55.1120586  91.4960227  51.0878051  56.2307376
  98.3634038  40.8067537  65.9977830  98.4122193  41.6829660  65.6155600
  98.9056552  40.2644930  65.4249474 108.8488883  51.3508660  65.2778967
 108.0584427  51.3332799  64.7383467 108.6122238  51.8896954  66.0328004
 108.9686758  48.2001127  62.5911696 109.0184763  48.0351134  63.5327219
 108.8600682  47.3328386  62.2009577  97.8523017  50.8789672  49.8803785
  98.0011137  51.5625137  49.2270458  98.6589460  50.8594762  50.3953241
 106.2590521  44.1832055  63.9071003 107.1600383  44.0438519  63.6155000
 106.3338495  44.3486509  64.8469180 100.5933326  41.5598909  62.7524189
  99.7236635  41.8532475  62.4806778 100.8292806  42.1439354  63.4731453
 110.4704955  50.6198068  62.8353718 110.1789763  50.9828049  63.6717178
 109.8577086  49.9065076  62.6567050 111.6700637  48.1850948  55.3556288
 112.5047529  48.6240752  55.5193848 111.8059766  47.7089601  54.5364534
 108.7192143  45.7430683  61.3033775 109.1946265  45.9358329  60.4952627
 107.7957709  45.7989869  61.0577159  95.6075650  46.9054850  50.8864854
  95.3621692  46.0017180  51.0845064  95.7771565  46.9072000  49.9444332
 103.2972360  37.7778526  60.2689609 103.8154304  38.5139553  59.9436098
 102.9427493  38.0842520  61.1036369  94.8771298  42.6383207  48.3851015
  94.1840542  42.7127562  47.7291051  94.6323049  41.8743551  48.9072532
 103.5484954  34.1978809  55.7890506 103.8286708  33.5301998  56.4150933
 104.3335561  34.3907904  55.2765170 101.3518423  53.3737803  47.3515532
 100.7792390  53.9927990  46.8986004 101.9251216  53.9237164  47.8855454
 107.4193812  42.6196443  59.5362081 108.3711235  42.7194540  59.5574305
 107.2497263  41.8274711  60.0460165 105.4408192  39.7052026  59.7221482
 104.8458124  39.9857039  59.0267971 105.1557889  40.1945927  60.4938223
 104.5715682  53.6574953  48.4824115 105.5046355  53.5920515  48.6856990
 104.4838895  54.4931220  48.0238647 107.2003699  52.9740823  45.4428062
 107.1217331  52.6400687  46.3363820 108.0213366  53.4662591  45.4419534
 109.8981890  45.8402563  58.6504381 109.8658210  44.9018563  58.8364065
 110.5082514  45.9186599  57.9170206 101.7365221  44.7098615  44.6931585
 102.6824326  44.5804824  44.7620003 101.3579466  43.9713277  45.1701013
 110.0476379  42.6313606  58.6962664 109.5315427  41.8472063  58.5092593
 110.9316327  42.3032323  58.8609183 107.7087106  36.3754622  54.6558477
 107.5111927  36.0669710  55.5401809 108.3186811  37.1016260  54.7856406
 115.7158440  46.9018569  57.7910418 116.4461829  46.6403857  58.3518121
 115.1065386  46.1647291  57.8312486 113.7973737  45.0426432  58.3884869
 113.0706901  44.9082397  57.7801360 113.3821024  45.3503261  59.1941587
 101.6203914  48.7616362  66.1532242 102.5406923  48.9394961  66.3472288
 101.5853497  47.8172407  66.0011941  99.9208138  42.6348592  44.6286470
  99.0139594  42.3381705  44.7049184 100.1984119  42.3378410  43.7620756
  90.8386079  43.9554955  55.0785516  90.5188863  43.1020263  54.7859890
  90.2919507  44.1703533  55.8343484  94.6165986  46.6717396  58.7955023
  94.8351996  47.6034504  58.8143057  95.0291760  46.3125371  59.5809827
 101.5370204  37.1785482  50.7830711 100.7270932  36.8332567  51.1585957
 102.2254621  36.8693025  51.3718323 103.4660752  36.2563528  52.4055008
 104.0191791  36.6758982  53.0645031 103.7030839  35.3299277  52.4477964
  99.4893851  42.2450602  68.1857772  99.3890578  43.1944959  68.1169863
  99.2715394  41.9168841  67.3133842  98.6906923  39.4935527  44.7698449
  99.5526087  39.8190425  45.0294267  98.8757267  38.7067023  44.2571515
  90.7074339  47.5757867  57.0478638  90.0137810  47.1611820  56.5348592
  91.4547330  47.6178403  56.4512057 106.8439559  38.3664054  51.9133672
 106.2638228  39.0248858  51.5311725 106.5775492  37.5441398  51.5021090
 105.2943126  37.7669111  54.1154993 105.7942904  37.8785646  53.3069311
 105.9378734  37.4630164  54.7555801  99.3525122  45.6747741  67.0022834
  98.8692203  46.4748101  67.2086723  99.4386061  45.6855686  66.0490277
  92.6211081  47.5076121  54.9244653  92.5981769  47.6063808  53.9726536
  92.9311718  48.3541271  55.2461819  95.8697841  48.1353392  61.6062065
  96.6890730  48.6297470  61.6296902  96.1434649  47.2185360  61.5779632
 105.6264437  40.5264144  50.9690020 104.7390292  40.8113795  50.7510215
 106.0418426  40.3657907  50.1217297 108.9778973  40.5510665  54.6844360
 109.7539364  41.0407117  54.9568977 108.2527108  40.9768719  55.1416229
 111.4151532  41.2638284  55.7418300 112.0096023  41.0234020  55.0311609
 111.4878116  40.5445415  56.3691837 104.7707651  50.2908819  45.0638040
 105.4743501  50.4958821  45.6795696 104.0470300  50.8585580  45.3287124
 105.6005461  46.0418680  51.1840311 105.5440662  46.4987231  50.3447943
 106.1533804  45.2809364  51.0063153 109.4110267  41.8308412  52.0090430
 109.1547201  41.4305047  52.8398638 108.7863135  42.5452206  51.8840569
 113.7222605  44.5704485  54.5161722 113.1622163  44.6397674  55.2893284
 113.1166108  44.3945470  53.7961218  96.7917814  56.0041212  56.2679908
  96.6750198  56.9486645  56.1658598  95.9710260  55.7014774  56.6565707
 106.6794348  50.7291348  47.1136501 107.5139952  50.2972546  46.9313975
 106.5178691  50.5573361  48.0413395 106.3340240  47.2323461  48.4792840
 106.2789044  47.0667733  47.5381284 105.7086296  47.9399494  48.6355030
 103.6486148  49.5372373  67.8046403 104.5177307  49.7113025  67.4433038
 103.1692899  50.3566790  67.6822132  99.6436366  36.7331570  48.0578158
  99.6315036  37.6773410  48.2146429 100.5359788  36.5501716  47.7637619
  97.8172328  56.6569474  59.4835836  98.7199574  56.6893084  59.8002331
  97.5909698  55.7269925  59.4982172  99.5725930  55.4100461  56.1445915
  98.6221561  55.4102322  56.0310287  99.8758416  54.6633195  55.6281949
 103.4588485  33.3274347  52.3124095 102.6920881  32.7732833  52.4580777
 103.8699190  33.3996216  53.1738247  95.4630246  39.6159143  66.4029276
  96.3261708  39.2595947  66.6132601  94.8895657  39.2773037  67.0904681
 112.1168330  61.1988427  57.1453202 111.7786841  61.0829492  56.2573737
 112.9858098  60.7979592  57.1254208 112.5988113  62.3523279  63.1039407
 112.5876753  61.9576077  62.2319911 112.7608752  61.6189351  63.6973179
 109.8176609  59.9676674  46.4770142 110.0702130  59.4458196  45.7153605
 108.8801168  59.8042820  46.5796826 109.5372898  61.8704780  48.6794517
 109.4209156  61.1949684  49.3475601 109.6475158  61.3837154  47.8626670
 111.8804439  61.3314927  52.3841206 111.5162646  60.8045548  53.0954128
 112.7371555  60.9413397  52.2107692 117.7853739  52.6209260  59.6472472
 117.4537064  53.4904671  59.4233687 117.1899353  52.3045544  60.3266503
 111.5209926  56.3604827  47.3802555 111.6884328  57.2285064  47.7473026
 111.3307095  56.5232109  46.4563844 114.2785259  64.8221806  59.0468385
 113.9785982  65.7246845  58.9384192 113.9336318  64.5553989  59.8989538
 111.4999146  58.8162485  48.3649222 111.3798772  59.2619535  49.2034702
 110.8051735  59.1647802  47.8062760 111.7523268  58.7593992  64.6700720
 110.9756602  59.3187912  64.6603584 112.3913831  59.2450775  65.1915590
 119.5444049  55.5420785  58.5043696 118.9018429  55.8353318  57.8583491
 119.0398978  55.4273705  59.3096893 110.0069641  61.5679445  64.2318687
 110.7484325  62.1064489  63.9553510 109.3006626  62.1945734  64.3890239
 115.4824980  63.7108586  62.8290848 115.8908336  63.2690996  62.0845481
 114.7602242  63.1361213  63.0825041 111.8356050  58.6481192  60.2024405
 112.6817246  59.0720606  60.3459054 111.7754688  57.9914817  60.8962968
 114.9855496  56.3085561  61.8605579 114.7416428  57.0627621  61.3239855
 115.2615426  56.6870908  62.6952826 116.9393958  62.8524173  60.5382844
 117.1510854  63.4955933  59.8617225 116.8923707  62.0186490  60.0704774
 114.5420187  55.4641994  57.4419417 113.6804666  55.7623247  57.7336154
 114.5682622  55.6812393  56.5100449 110.2950643  60.1307337  50.6582787
 110.9974686  60.5828380  51.1256714 109.9631271  59.4891156  51.2862680
 108.7431004  58.7219093  65.0333997 108.1129665  59.4035374  65.2669394
 108.6367092  58.6102175  64.0887135 105.9890722  58.7535469  52.9183398
 105.1921886  58.8654163  53.4366893 105.7616314  59.0922121  52.0524288
 126.1445779  62.0734877  55.0590173 125.3909488  61.5042275  54.9034178
 126.2793321  62.0397542  56.0060808 108.0211747  53.0239859  67.3959248
 107.6278693  52.4706058  68.0706892 108.8377887  53.3350438  67.7865765
 110.9379708  54.4397738  64.9879504 111.6789422  55.0404891  64.9083967
 111.1697631  53.6975376  64.4297547 106.0821046  59.6254106  63.2657734
 105.9674561  58.7239363  63.5664833 105.2265564  59.8717802  62.9142551
 114.8836871  50.4678841  59.2643786 114.5401140  51.3580483  59.1882897
 115.2515834  50.2780499  58.4013371 112.4334265  55.3037153  52.8301460
 111.5775861  54.9144004  52.6507098 112.8461217  55.3829114  51.9701245
 113.9633411  52.8383496  57.2293019 113.4598207  52.8013632  56.4160825
 114.2564018  53.7476239  57.2889676 110.2076297  52.9222226  56.2359201
 111.0729294  52.7265035  55.8765090 110.2753806  52.6932578  57.1628558
 107.8138616  55.1524434  53.6075568 108.3882368  54.9299616  52.8748761
 108.4009599  55.2213129  54.3604169 108.1408204  57.1828895  47.6271453
 107.3045516  57.5203582  47.9480728 108.0012973  57.0477875  46.6898590
 110.1161284  52.0265683  52.3350637 109.4625696  51.7114700  51.7107252
 110.0741758  51.4041423  53.0610460 111.2272489  62.3084978  44.2503929
 110.3199551  62.0774231  44.4495078 111.7243521  61.5122597  44.4377911
 113.3499024  58.5147616  56.6598285 112.4321586  58.7362564  56.5019973
 113.7659168  58.5893927  55.8009992 116.5812909  56.9496148  53.7719754
 115.8435666  56.4373535  54.1029997 116.8339683  56.5096530  52.9603031
 116.6824537  49.7272400  54.3661524 116.9883414  48.8669764  54.0787439
 117.4077142  50.3190021  54.1660518 110.9545616  60.0226193  54.8737715
 111.0094226  59.0700030  54.7980191 110.1436819  60.1785633  55.3579013
 108.8937976  58.6403253  52.6328094 108.0805842  58.9397424  53.0393286
 109.3896971  58.2458942  53.3502576 114.4912188  59.1045078  61.4642988
 114.8461576  59.3316551  62.3237453 115.1384319  59.4363455  60.8420243
 108.3852051  56.2121609  58.2489329 109.0251430  56.0710368  57.5512292
 107.5529582  55.9256122  57.8727931 105.4695119  59.6567121  50.4384074
 104.5392707  59.5951576  50.6554036 105.5652591  59.1343074  49.6420715
 105.3880668  56.1821934  53.0262315 105.6487485  57.0967267  52.9171476
 106.2097840  55.7146376  53.1758928 106.8605593  57.5959691  60.1961140
 107.5328646  57.3877053  59.5473789 106.0335379  57.3981777  59.7566372
 112.7631165  54.2221632  62.2126801 112.1159080  54.9211582  62.1191277
 113.5332180  54.6557776  62.5803049 116.1709963  64.4870484  65.2877354
 116.0195469  64.2581036  64.3707438 116.1614642  65.4441085  65.3008699
 112.9395299  62.0602397  60.2723621 113.8687359  62.2113556  60.0992588
 112.5186329  62.1486418  59.4172267 107.2633090  60.8702294  60.9563577
 107.1252888  60.1382533  61.5575116 108.1738014  60.7811194  60.6747765
 109.8915391  60.5822253  60.4447257 110.6015009  59.9415445  60.4033875
 109.8484699  60.8335148  61.3673438 108.6044325  57.5687471  62.2642896
 108.0681682  57.1178210  62.9164493 108.0161033  57.7033380  61.5213361
 108.0146584  57.0276123  44.8269360 107.1376050  56.9064923  44.4631607
 108.4904337  56.2362201  44.5748249 104.3383446  56.7043479  59.3495891
 104.2541635  56.0969148  58.6146301 103.5166152  57.1952497  59.3505387
 114.5107160  55.1897042  54.7166086 115.0075859  54.4367005  54.3967156
 113.7394141  55.2261359  54.1509295 122.3636917  60.8937408  56.3584377
 122.3526794  61.7762123  55.9878310 121.4954297  60.5408959  56.1638914
 111.0942129  57.3314425  54.4437770 110.7239916  56.7785466  55.1318676
 111.5901221  56.7272559  53.8912770 116.9526155  52.1566636  56.8645445
 116.0389234  52.3870863  57.0327652 117.3819256  52.2405080  57.7159477
 112.7720186  61.0876339  65.8511376 112.0960823  60.9870468  66.5213751
 113.5947820  60.9315553  66.3147373 106.4907462  54.7418416  60.6890876
 106.5548789  55.6033247  60.2768274 106.4274583  54.1292418  59.9563235
 105.9659735  56.8141549  64.3363911 106.5931774  56.4318626  64.9501435
 105.1087654  56.5955751  64.7019603 116.3653843  67.2204524  65.9417646
 116.9093747  67.8334482  65.4472601 115.7840688  67.7784102  66.4584659
 102.7425278  58.6217978  50.2682266 103.0378719  57.7128656  50.2149319
 101.8413313  58.6005717  49.9463268 106.2719525  56.6973974  56.2509814
 105.5506110  57.3109942  56.1117287 107.0612780  57.2331739  56.1726460
 109.0745838  54.0328401  62.5250466 109.5980240  54.2790697  63.2876775
 108.8558171  54.8648436  62.1053603 104.4713119  56.3032075  50.3921591
 104.1425825  55.4229454  50.2096697 104.8252490  56.2479744  51.2797980
 107.5854942  56.5905045  50.7597068 107.9251015  57.1190966  50.0375677
 108.0327063  56.9285451  51.5355635 110.2798383  54.9742096  60.2100136
 109.9395204  54.1749909  60.6120816 109.5737389  55.2743807  59.6376970
 110.9314855  52.0591408  58.6627459 111.7540924  51.5851887  58.5406350
 111.1752919  52.8381892  59.1626146 109.5723089  55.0879667  48.9590361
 110.2931452  55.4660920  48.4554078 108.9488394  55.8068544  49.0625339
 113.7154212  55.7924816  49.8948693 113.9317827  56.6749454  49.5937522
 113.2348280  55.4011029  49.1654335 108.4553434  58.7510529  56.4719438
 108.3098014  59.0650832  57.3643720 107.9778637  59.3695429  55.9190337
 110.3149817  55.7413077  56.5200328 110.3011385  54.8454170  56.1832626
 111.0322245  55.7483741  57.1538614 112.1675947  56.1750417  58.5653455
 111.9093725  57.0967488  58.5637785 111.6360988  55.7780852  59.2553919
 109.7186713  54.6227457  51.7887898 109.8402624  53.6944103  51.9878785
 109.4288755  54.6366143  50.8766213 112.5877903  52.3082368  54.9254618
 112.6099600  52.3721701  53.9706597 113.0045962  51.4686876  55.1195124
 109.2027792  56.1359455  65.9977830 109.2515948  57.0121577  65.6155600
 109.7450306  55.5936848  65.4249474 119.8080513  63.5293044  62.5911696
 119.8578518  63.3643052  63.5327219 119.6994436  62.6620303  62.2009577
 117.0984275  59.5123972  63.9071003 117.9994138  59.3730437  63.6155000
 117.1732250  59.6778427  64.8469180 111.4327081  56.8890827  62.7524189
 110.5630390  57.1824393  62.4806778 111.6686561  57.4731272  63.4731453
 119.5585898  61.0722600  61.3033775 120.0340019  61.2650247  60.4952627
 118.6351463  61.1281786  61.0577159 106.4469405  62.2346768  50.8864854
 106.2015446  61.3309098  51.0845064 106.6165319  62.2363918  49.9444332
 114.1366114  53.1070444  60.2689609 114.6548058  53.8431471  59.9436098
 113.7821247  53.4134437  61.1036369 105.7165052  57.9675125  48.3851015
 105.0234297  58.0419480  47.7291051 105.4716804  57.2035469  48.9072532
 114.3878709  49.5270727  55.7890506 114.6680462  48.8593916  56.4150933
 115.1729315  49.7199822  55.2765170 112.1912177  68.7029720  47.3515532
 111.6186144  69.3219908  46.8986004 112.7644971  69.2529082  47.8855454
 118.2587567  57.9488360  59.5362081 119.2104990  58.0486458  59.5574305
 118.0891017  57.1566629  60.0460165 116.2801946  55.0343944  59.7221482
 115.6851878  55.3148956  59.0267971 115.9951643  55.5237845  60.4938223
 120.7375645  61.1694480  58.6504381 120.7051965  60.2310481  58.8364065
 121.3476268  61.2478517  57.9170206 112.5758976  60.0390533  44.6931585
 113.5218080  59.9096741  44.7620003 112.1973221  59.3005195  45.1701013
 120.8870133  57.9605524  58.6962664 120.3709182  57.1763980  58.5092593
 121.7710082  57.6324240  58.8609183 118.5480860  51.7046539  54.6558477
 118.3505681  51.3961627  55.5401809 119.1580566  52.4308178  54.7856406
 126.5552195  62.2310487  57.7910418 127.2855583  61.9695775  58.3518121
 125.9459140  61.4939209  57.8312486 124.6367492  60.3718350  58.3884869
 123.9100655  60.2374315  57.7801360 124.2214779  60.6795178  59.1941587
 112.4597668  64.0908279  66.1532242 113.3800678  64.2686878  66.3472288
 112.4247251  63.1464325  66.0011941 110.7601893  57.9640510  44.6286470
 109.8533348  57.6673622  44.7049184 111.0377874  57.6670328  43.7620756
 112.3763958  52.5077399  50.7830711 111.5664687  52.1624484  51.1585957
 113.0648375  52.1984943  51.3718323 114.3054507  51.5855446  52.4055008
 114.8585545  52.0050899  53.0645031 114.5424593  50.6591194  52.4477964
 110.3287606  57.5742520  68.1857772 110.2284333  58.5236877  68.1169863
 110.1109148  57.2460759  67.3133842 109.5300677  54.8227445  44.7698449
 110.3919841  55.1482343  45.0294267 109.7151021  54.0358941  44.2571515
 117.6833314  53.6955971  51.9133672 117.1031983  54.3540775  51.5311725
 117.4169246  52.8733316  51.5021090 116.1336880  53.0961029  54.1154993
 116.6336659  53.2077563  53.3069311 116.7772488  52.7922082  54.7555801
 110.1918876  61.0039659  67.0022834 109.7085958  61.8040019  67.2086723
 110.2779815  61.0147603  66.0490277 119.8172728  55.8802583  54.6844360
 120.5933118  56.3699035  54.9568977 119.0920862  56.3060637  55.1416229
 122.2545287  56.5930202  55.7418300 122.8489777  56.3525938  55.0311609
 122.3271870  55.8737332  56.3691837 124.5616359  59.8996403  54.5161722
 124.0015917  59.9689592  55.2893284 123.9559863  59.7237387  53.7961218
 101.9626510  57.7983443  62.3054262 102.6085373  57.2882397  62.7941487
 101.7543661  58.5352125  62.8797687 114.4879902  64.8664291  67.8046403
 115.3571062  65.0404943  67.4433038 114.0086654  65.6858707  67.6822132
 110.4830120  52.0623488  48.0578158 110.4708790  53.0065328  48.2146429
 111.3753542  51.8793633  47.7637619 114.2982240  48.6566264  52.3124095
 113.5314636  48.1024751  52.4580777 114.7092945  48.7288133  53.1738247
 106.3024001  54.9451060  66.4029276 107.1655462  54.5887865  66.6132601
 105.7289412  54.6064955  67.0904681 124.3948458  82.0486789  48.4464558
 123.7436438  82.6340869  48.0598572 125.1892821  82.5792984  48.5059595
 125.8723724  79.7377221  48.9833542 125.2369557  79.8111847  49.6954447
 125.5421130  80.3270820  48.3052621 131.1022073  74.2379604  55.1877864
 131.8347245  73.6678820  55.4215693 130.3461429  73.8501204  55.6284369
 128.6247494  67.9501178  59.6472472 128.2930819  68.8196589  59.4233687
 128.0293107  67.6337462  60.3266503 120.0999793  86.9158044  52.0139353
 120.0223823  87.8665869  52.0927833 119.4961437  86.5703917  52.6714279
 130.3837803  70.8712702  58.5043696 129.7412184  71.1645235  57.8583491
 129.8792732  70.7565623  59.3096893 128.0377967  74.6175876  49.1929556
 128.9495823  74.8503262  49.0177253 127.5287614  75.2012920  48.6304634
 126.6447549  79.6001694  56.5843137 126.0156412  79.7647408  55.8819205
 126.2573212  80.0143304  57.3554101 130.5236781  80.5356132  53.9387501
 129.8387819  80.9155033  53.3884534 130.6080631  81.1451458  54.6719449
 136.9839534  77.4026795  55.0590173 136.2303242  76.8334193  54.9034178
 137.1187075  77.3689459  56.0060808 118.8605502  68.3531777  67.3959248
 118.4672447  67.7997975  68.0706892 119.6771642  68.6642355  67.7865765
 125.7230626  65.7970759  59.2643786 125.3794895  66.6872401  59.1882897
 126.0909588  65.6072417  58.4013371 125.6880908  75.7879370  47.7716221
 125.1727532  76.5583975  48.0104609 125.4158217  75.1144506  48.3949283
 130.6615182  78.5411725  49.7069395 129.8844625  78.2022884  49.2624557
 131.3406663  78.5464348  49.0324360 125.4767211  73.6606462  49.5976002
 125.1717347  73.9752611  50.4486146 126.4297654  73.7387882  49.6403335
 128.9006489  78.0145706  56.3636003 128.2430164  78.7044967  56.4516131
 129.7046889  78.4042138  56.7069989 122.0666243  77.6376896  44.2503929
 121.1593305  77.4066149  44.4495078 122.5637275  76.8414515  44.4377911
 124.9734322  86.3474403  47.1700616 124.2996021  86.6506100  47.7785573
 125.3600144  87.1503483  46.8206073 123.2454477  77.7389491  48.7727919
 122.3365696  77.4548523  48.8700389 123.2749561  78.1588569  47.9131226
 128.4773744  81.3496080  52.5419087 128.0236071  80.5086990  52.5984277
 127.8467711  81.9857478  52.8793867 126.9206684  83.1872577  53.4768905
 127.2129658  83.7477634  52.7581271 127.4305304  83.4801138  54.2322064
 127.5218291  65.0564318  54.3661524 127.8277168  64.1961682  54.0787439
 128.2470896  65.6481938  54.1660518 122.9430565  79.2798234  46.1115998
 122.5049995  78.5634093  45.6521635 123.6841006  79.5074349  45.5501089
 131.0603680  77.5555431  52.1692317 130.9221578  77.7457027  51.2413506
 130.7039898  78.3174814  52.6260368 131.0873059  79.6231958  57.1803588
 131.5209566  79.5307247  58.0286642 131.8004640  79.5989459  56.5423604
 131.9488609  79.6655659  59.7136473 132.1424499  80.5701469  59.9595748
 131.8489227  79.2063078  60.5475059 123.1725538  86.5154075  49.3847695
 123.3477293  86.0442119  50.1993317 122.4858326  87.1419842  49.6128955
 127.0641792  78.1382616  45.7048056 126.4470963  77.4129444  45.6081108
 126.5958281  78.8991976  45.3615130 117.7386623  89.6643438  56.1587555
 117.9783221  90.2961962  56.8366573 116.8955819  89.3131478  56.4452914
 133.2030672  76.2229326  56.3584377 133.1920548  77.1054041  55.9878310
 132.3348051  75.8700876  56.1638914 129.8203246  75.1177967  52.8254543
 130.2863699  75.9505958  52.7514846 130.2710747  74.6522948  53.5299802
 127.8879478  81.4621788  49.8240695 128.1639321  81.3478382  50.7334569
 127.0183976  81.0639273  49.7852868 127.7919909  67.4858554  56.8645445
 126.8782989  67.7162780  57.0327652 128.2213011  67.5696998  57.7159477
 127.5626368  75.6748445  59.3645339 126.9097818  75.9224353  58.7097791
 127.9406748  74.8612584  59.0307816 124.5233542  85.7108139  53.4673509
 124.7055936  84.8929795  53.9301261 125.3466528  85.9275831  53.0298399
 124.8575707  84.6376324  50.7288557 125.3863473  84.1268778  50.1158720
 125.1203927  84.3218854  51.5934090 128.1620574  84.0907455  55.9881449
 129.0867122  83.8850316  55.8505900 127.9935878  83.8423856  56.8970790
 124.5547967  71.1216733  49.8948693 124.7711581  72.0041371  49.5937522
 124.0742034  70.7302947  49.1654335 127.9515891  84.6093122  51.3443540
 128.1252768  84.0439544  50.5917393 128.4444782  85.4094017  51.1623030
 133.8055282  77.3729545  52.9633840 134.2486428  76.6236870  52.5652963
 132.9281792  77.3639681  52.5807572 128.9391063  83.9259886  48.4440439
 129.6341968  84.5466579  48.6627753 129.2814213  83.0755238  48.7192817
 130.8382486  81.3759592  49.9727769 131.3633810  81.7146865  49.2477089
 130.7504839  80.4406607  49.7890904 127.9378030  74.8415890  63.9071003
 128.8387892  74.7022355  63.6155000 128.0126004  75.0070345  64.8469180
 133.3488146  78.8434783  55.3556288 134.1835038  79.2824587  55.5193848
 133.4847275  78.3673436  54.5364534 130.3979652  76.4014518  61.3033775
 130.8733774  76.5942164  60.4952627 129.4745218  76.4573704  61.0577159
 123.0305932  84.0321638  47.3515532 122.4579899  84.6511825  46.8986004
 123.6038725  84.5821000  47.8855454 129.0981321  73.2780278  59.5362081
 130.0498744  73.3778376  59.5574305 128.9284772  72.4858547  60.0460165
 127.1195701  70.3635861  59.7221482 126.5245633  70.6440874  59.0267971
 126.8345398  70.8529762  60.4938223 126.2503191  84.3158788  48.4824115
 127.1833864  84.2504350  48.6856990 126.1626404  85.1515055  48.0238647
 128.8791208  83.6324659  45.4428062 128.8004840  83.2984522  46.3363820
 129.7000875  84.1246426  45.4419534 131.5769399  76.4986398  58.6504381
 131.5445719  75.5602399  58.8364065 132.1870023  76.5770435  57.9170206
 123.4152730  75.3682451  44.6931585 124.3611835  75.2388659  44.7620003
 123.0366975  74.6297113  45.1701013 131.7263888  73.2897441  58.6962664
 131.2102936  72.5055898  58.5092593 132.6103836  72.9616158  58.8609183
 129.3874615  67.0338457  54.6558477 129.1899436  66.7253545  55.5401809
 129.9974320  67.7600096  54.7856406 135.4761246  75.7010267  58.3884869
 134.7494410  75.5666232  57.7801360 135.0608533  76.0087096  59.1941587
 121.5995647  73.2932427  44.6286470 120.6927103  72.9965540  44.7049184
 121.8771628  72.9962245  43.7620756 120.3694432  70.1519362  44.7698449
 121.2313596  70.4774261  45.0294267 120.5544776  69.3650858  44.2571515
 128.5227068  69.0247889  51.9133672 127.9425737  69.6832693  51.5311725
 128.2563001  68.2025233  51.5021090 127.3051946  71.1847979  50.9690020
 126.4177801  71.4697630  50.7510215 127.7205935  71.0241743  50.1217297
 130.6566482  71.2094500  54.6844360 131.4326873  71.6990953  54.9568977
 129.9314617  71.6352554  55.1416229 133.0939041  71.9222119  55.7418300
 133.6883532  71.6817855  55.0311609 133.1665625  71.2029250  56.3691837
 126.4495160  80.9492654  45.0638040 127.1531010  81.1542656  45.6795696
 125.7257809  81.5169416  45.3287124 127.2792970  76.7002515  51.1840311
 127.2228171  77.1571067  50.3447943 127.8321313  75.9393200  51.0063153
 131.0897776  72.4892247  52.0090430 130.8334710  72.0888883  52.8398638
 130.4650644  73.2036041  51.8840569 135.4010114  75.2288320  54.5161722
 134.8409672  75.2981510  55.2893284 134.7953617  75.0529305  53.7961218
 128.3581857  81.3875183  47.1136501 129.1927461  80.9556382  46.9313975
 128.1966200  81.2157197  48.0413395 128.0127749  77.8907296  48.4792840
 127.9576553  77.7251568  47.5381284 127.3873805  78.5983329  48.6355030
 125.1375994  63.9858182  52.3124095 124.3708390  63.4316669  52.4580777
 125.5486699  64.0580051  53.1738247 133.7955839  91.8572262  57.1453202
 133.4574350  91.7413327  56.2573737 134.6645607  91.4563427  57.1254208
 129.6542654  93.7107739  53.1350093 129.0907519  93.6197676  52.3666381
 129.5395049  92.8907643  53.6152585 134.2775622  93.0107114  63.1039407
 134.2664262  92.6159912  62.2319911 134.4396261  92.2773187  63.6973179
 127.2007086  95.2058930  55.9734313 127.9928378  94.8649755  55.5580613
 127.4403736  95.3153905  56.8936467 135.2342213  97.3778706  48.4464558
 134.5830193  97.9632787  48.0598572 136.0286576  97.9084901  48.5059595
 129.1597840  94.4667844  48.8451692 129.9328716  93.9196831  48.7064568
 129.5123239  95.3312093  49.0566154 130.9982883  95.7944226  62.0518591
 130.7072749  96.6989857  61.9365258 131.6339867  95.8360754  62.7662661
 131.9239090  93.1721074  58.6419951 132.5202662  92.9477097  57.9276914
 131.9814061  92.4305820  59.2445399 131.4964118  90.6260510  46.4770142
 131.7489639  90.1042031  45.7153605 130.5588677  90.4626655  46.5796826
 136.5407401  89.6296288  54.2844885 137.3270490  89.2115711  53.9335302
 136.8046105  90.5342380  54.4526534 136.7117478  95.0669138  48.9833542
 136.0763311  95.1403765  49.6954447 136.3814885  95.6562737  48.3052621
 131.2160407  92.5288616  48.6794517 131.0996665  91.8533519  49.3475601
 131.3262667  92.0420990  47.8626670 133.5591948  91.9898763  52.3841206
 133.1950155  91.4629384  53.0954128 134.4159064  91.5997232  52.2107692
 133.1997435  87.0188663  47.3802555 133.3671837  87.8868899  47.7473026
 133.0094604  87.1815944  46.4563844 135.9572768  95.4805641  59.0468385
 135.6573491  96.3830680  58.9384192 135.6123827  95.2137825  59.8989538
 129.4085249  91.9319438  55.0805090 128.4835746  91.7995652  55.2882781
 129.6569662  92.7113657  55.5775032 133.1786655  89.4746320  48.3649222
 133.0586281  89.9203371  49.2034702 132.4839244  89.8231638  47.8062760
 126.7694060  91.5752712  55.9148879 126.8986441  91.8287191  56.8288290
 126.0891512  92.1680420  55.5953534 130.9393548 102.2449962  52.0139353
 130.8617577 103.1957787  52.0927833 130.3355191 101.8995834  52.6714279
 133.4310777  89.4177827  64.6700720 132.6544111  89.9771747  64.6603584
 134.0701340  89.9034610  65.1915590 131.6857150  92.2263281  64.2318687
 132.4271834  92.7648325  63.9553510 130.9794135  92.8529569  64.3890239
 137.1612489  94.3692421  62.8290848 137.5695845  93.9274832  62.0845481
 136.4389751  93.7945049  63.0825041 133.5143559  89.3065028  60.2024405
 134.3604755  89.7304441  60.3459054 133.4542197  88.6498652  60.8962968
 137.4841304  94.9293612  56.5843137 136.8550166  95.0939326  55.8819205
 137.0966966  95.3435221  57.3554101 136.6643005  86.9669396  61.8605579
 136.4203937  87.7211457  61.3239855 136.9402935  87.3454744  62.6952826
 136.2207696  86.1225829  57.4419417 135.3592175  86.4207083  57.7336154
 136.2470131  86.3396228  56.5100449 133.0369266  94.6668020  53.8493222
 133.5007611  94.9455723  53.0597845 132.7726064  93.7651464  53.6666313
 129.9293347  94.2139501  56.7872985 130.4994704  94.6426770  56.1490470
 130.5201459  93.9322086  57.4857171 131.9738152  90.7891172  50.6582787
 132.6762195  91.2412216  51.1256714 131.6418780  90.1474991  51.2862680
 130.4218513  89.3802929  65.0333997 129.7917174  90.0619210  65.2669394
 130.3154601  89.2686010  64.0887135 125.7163486  89.0474725  55.9599921
 124.9262540  89.3032253  55.4840032 126.2074733  89.8623063  56.0651961
 127.6678231  89.4119304  52.9183398 126.8709394  89.5237998  53.4366893
 127.4403823  89.7505956  52.0524288 133.4983899  95.9364007  60.8665912
 133.5628331  96.3984414  61.7024084 132.7894823  95.3061372  60.9948222
 124.0001189  89.3005215  58.3914912 124.2509227  90.1852225  58.6572488
 124.5360737  89.1209817  57.6190004 133.2131916  97.6032115  50.7344893
 133.0777591  98.4483650  51.1629740 133.7541729  97.8051392  49.9710826
 126.6661314  95.1207553  51.3072818 127.1785834  95.9150803  51.4578382
 127.3184027  94.4233843  51.2406419 128.4756199  98.2373309  53.3895571
 128.6522827  99.1591274  53.2016555 129.2713032  97.9231728  53.8189951
 132.6167217  85.0981574  64.9879504 133.3576930  85.6988727  64.9083967
 132.8485140  84.3559211  64.4297547 127.7608555  90.2837941  63.2657734
 127.6462070  89.3823198  63.5664833 126.9053073  90.5301638  62.9142551
 134.8400393  98.2255681  64.8645235 134.3964247  97.4392060  64.5466139
 135.5017606  98.4134832  64.1989125 129.5987514  99.7551483  59.3905913
 130.1494939  99.6268546  58.6182907 128.7598990 100.0546372  59.0400806
 133.3954685  96.0202611  63.7350144 133.9283022  95.2590899  63.5049452
 132.8668766  95.7276262  64.4774299 136.5624380  81.1262677  59.2643786
 136.2188649  82.0164318  59.1882897 136.9303343  80.9364334  58.4013371
 124.6310231  93.4496207  52.0832388 125.4685453  93.8593215  51.8666096
 124.8088498  92.5095649  52.0532582 136.5274663  91.1171288  47.7716221
 136.0121286  91.8875892  48.0104609 136.2551971  90.4436424  48.3949283
 134.1121774  85.9620988  52.8301460 133.2563370  85.5727839  52.6507098
 134.5248726  86.0412949  51.9701245 135.6420920  83.4967332  57.2293019
 135.1385716  83.4597467  56.4160825 135.9351527  84.4060074  57.2889676
 131.8863806  83.5806061  56.2359201 132.7516803  83.3848870  55.8765090
 131.9541315  83.3516413  57.1628558 136.3160966  88.9898380  49.5976002
 136.0111102  89.3044529  50.4486146 137.2691408  89.0679800  49.6403335
 134.7607398  95.1488603  51.2468956 134.2328759  94.4141363  50.9342194
 134.2594901  95.9263279  51.0008925 129.4926125  85.8108269  53.6075568
 130.0669877  85.5883451  52.8748761 130.0797108  85.8796964  54.3604169
 129.8195713  87.8412730  47.6271453 128.9833025  88.1787417  47.9480728
 129.6800482  87.7061710  46.6898590 131.7948793  82.6849518  52.3350637
 131.1413205  82.3698535  51.7107252 131.7529267  82.0625259  53.0610460
 132.9059998  92.9668813  44.2503929 131.9987060  92.7358067  44.4495078
 133.4031030  92.1706433  44.4377911 135.8128077 101.6766321  47.1700616
 135.1389776 101.9798017  47.7785573 136.1993899 102.4795401  46.8206073
 135.0286533  89.1731452  56.6598285 134.1109095  89.3946399  56.5019973
 135.4446677  89.2477762  55.8009992 135.8121581  90.5722868  51.7900965
 136.5593400  91.0844265  51.4808087 136.0813171  90.2506920  52.6505359
 134.0848231  93.0681408  48.7727919 133.1759451  92.7840441  48.8700389
 134.1143315  93.4880487  47.9131226 124.6536402  90.7886922  52.7543122
 124.4560802  90.1956283  52.0294188 124.0983066  90.4839133  53.4719060
 132.6333125  90.6810029  54.8737715 132.6881735  89.7283865  54.7980191
 131.8224327  90.8369468  55.3579013 133.7824319  94.6090152  46.1115998
 133.3443749  93.8926011  45.6521635 134.5234760  94.8366267  45.5501089
 130.5725485  89.2987089  52.6328094 129.7593351  89.5981259  53.0393286
 131.0684480  88.9042777  53.3502576 132.7234063  99.2944846  54.5662358
 132.6810242  99.5205692  53.6370890 133.6396762  99.0608220  54.7148159
 136.1699697  89.7628913  61.4642988 136.5249085  89.9900386  62.3237453
 136.8171828  90.0947290  60.8420243 130.0639560  86.8705444  58.2489329
 130.7038939  86.7294203  57.5512292 129.2317091  86.5839958  57.8727931
 130.8399864  96.1707875  54.3624321 131.6340463  95.6758195  54.1606896
 130.1291556  95.6425738  53.9992027 135.6594709  98.5525970  58.7136689
 135.7131731  99.1216906  59.4814405 134.7909490  98.7227855  58.3490726
 127.1482628  90.3150956  50.4384074 126.2180216  90.2535412  50.6554036
 127.2440099  89.7926909  49.6420715 127.0668177  86.8405769  53.0262315
 127.3274994  87.7551102  52.9171476 127.8885349  86.3730212  53.1758928
 128.5393102  88.2543526  60.1961140 129.2116155  88.0460888  59.5473789
 127.7122888  88.0565612  59.7566372 134.4418674  84.8805467  62.2126801
 133.7946589  85.5795417  62.1191277 135.2119689  85.3141611  62.5803049
 134.6182808  92.7186232  60.2723621 135.5474868  92.8697392  60.0992588
 134.1973838  92.8070253  59.4172267 133.4171140  96.7436897  58.0422158
 133.2782226  96.3755681  58.9148096 132.6285736  97.2584536  57.8706116
 134.0119292 101.8445993  49.3847695 134.1871048 101.3734036  50.1993317
 133.3252080 102.4711759  49.6128955 134.9676355  96.1218499  55.4310996
 134.6326188  96.0819269  56.3268646 134.4680301  95.4563215  54.9581406
 128.9420599  91.5286129  60.9563577 128.8040397  90.7966368  61.5575116
 129.8525523  91.4395029  60.6747765 131.5702900  91.2406089  60.4447257
 132.2802518  90.5999281  60.4033875 131.5272208  91.4918983  61.3673438
 128.5780377 104.9935356  56.1587555 128.8176976 105.6253880  56.8366573
 127.7349574 104.6423396  56.4452914 129.6934093  87.6859958  44.8269360
 128.8163559  87.5648759  44.4631607 130.1691846  86.8946036  44.5748249
 121.2136233  92.4737118  54.9210867 121.9007273  92.1598848  54.3331882
 121.0584362  93.3778482  54.6478118 133.0908239 100.8014478  58.5629059
 133.0178411 101.6069450  59.0748363 132.6485632 101.0006444  57.7377080
 132.8798019 100.0386248  52.0731880 132.0965541 100.5807928  52.1670105
 133.5790764 100.5560228  52.4726122 136.1894669  85.8480878  54.7166086
 136.6863368  85.0950840  54.3967156 135.4181650  85.8845194  54.1509295
 135.5506923 100.7001312  60.7187217 136.2634895 101.3348777  60.6463119
 135.0596951 100.7965178  59.9027219 137.2724450  94.6052565  52.2904509
 136.3380728  94.7254027  52.1209213 137.4501118  93.7025032  52.0264519
 132.7729638  87.9898261  54.4437770 132.4027425  87.4369301  55.1318676
 133.2688730  87.3856394  53.8912770 130.6018836  98.4495756  61.5392788
 131.3028296  99.0832239  61.6922183 130.1313951  98.7910487  60.7788428
 135.3627296 101.0400056  53.4673509 135.5449691 100.2221712  53.9301261
 136.1860282 101.2567749  53.0298399 135.6969462  99.9668241  50.7288557
 136.2257228  99.4560696  50.1158720 135.9597681  99.6510772  51.5934090
 134.4507695  91.7460174  65.8511376 133.7748332  91.6454304  66.5213751
 135.2735329  91.5899388  66.3147373 126.1986554  97.9832111  58.4723891
 126.7839991  97.2375799  58.6051795 126.0011393  98.2936067  59.3560555
 129.0525209 101.0183358  53.4886333 128.3835585 101.5029486  53.0050373
 128.9138079 101.2652579  54.4029712 120.7904209  90.5537711  57.1928334
 120.8288309  90.0201302  57.9865452 120.2844502  90.0272916  56.5739311
 133.1930478 103.0527102  60.0868992 133.7448786 103.2158723  60.8518077
 133.5336672 103.6431539  59.4149017 124.4212787  89.2801813  50.2682266
 124.7166228  88.3712492  50.2149319 123.5200822  89.2589553  49.9463268
 136.3298865 101.0009077  57.0732674 136.2050005 100.1998817  56.5643619
 136.9877956 101.4955271  56.5846644 127.9507034  87.3557810  56.2509814
 127.2293619  87.9693777  56.1117287 128.7400289  87.8915575  56.1726460
 126.1500628  86.9615911  50.3921591 125.8213334  86.0813290  50.2096697
 126.5039999  86.9063579  51.2797980 135.3980207  98.5970813  54.9016576
 135.2505169  97.6687521  55.0824146 136.2233701  98.6190904  54.4173651
 129.2642451  87.2488881  50.7597068 129.6038524  87.7774802  50.0375677
 129.7114572  87.5869287  51.5355635 131.9585892  85.6325931  60.2100136
 131.6182713  84.8333744  60.6120816 131.2524898  85.9327642  59.6376970
 132.6102364  82.7175244  58.6627459 133.4328433  82.2435722  58.5406350
 132.8540428  83.4965727  59.1626146 131.2510598  85.7463502  48.9590361
 131.9718961  86.1244755  48.4554078 130.6275903  86.4652379  49.0625339
 135.3941721  86.4508651  49.8948693 135.6105336  87.3333289  49.5937522
 134.9135788  86.0594865  49.1654335 130.1340943  89.4094364  56.4719438
 129.9885523  89.7234667  57.3643720 129.6566146  90.0279265  55.9190337
 131.9937326  86.3996912  56.5200328 131.9798894  85.5038006  56.1832626
 132.7109754  86.4067576  57.1538614 133.8463456  86.8334253  58.5653455
 133.5881234  87.7551323  58.5637785 133.3148497  86.4364687  59.2553919
 124.6086605  91.9499709  59.4107099 124.0640073  92.7259517  59.5427374
 125.4865955  92.2970513  59.2526221 131.3974222  85.2811293  51.7887898
 131.5190133  84.3527939  51.9878785 131.1076264  85.2949979  50.8766213
 134.2665412  82.9666203  54.9254618 134.2887109  83.0305536  53.9706597
 134.6833471  82.1270712  55.1195124 125.3952627  91.0769605  62.3037256
 124.6534363  91.2252240  62.8901887 125.0745371  91.3377871  61.4404006
 133.3396289 100.6185583  62.1017646 133.6483416 100.3734730  62.9740346
 134.1371771 100.8232222  61.6136516 133.3616901 102.7723493  54.3323023
 132.9221892 102.2799872  55.0255879 134.1125018 102.2296461  54.0915098
 125.8409240  98.9635034  54.3347651 126.6667260  98.6638806  53.9546294
 125.4903292  98.1942656  54.7837439 130.8090774  98.3161502  56.4045324
 130.1870783  97.6532207  56.1047552 131.4795640  98.3422634  55.7218972
 124.0417845  96.8821360  55.2936584 123.2049754  96.4543535  55.1120586
 124.0141491  97.0753804  56.2307376 130.8815301  86.7943290  65.9977830
 130.9303457  87.6705413  65.6155600 131.4237815  86.2520683  65.4249474
 130.3704280  96.8665425  49.8803785 130.5192401  97.5500890  49.2270458
 131.1770724  96.8470515  50.3953241 133.1114590  87.5474662  62.7524189
 132.2417899  87.8408228  62.4806778 133.3474070  88.1315107  63.4731453
 128.1256913  92.8930603  50.8864854 127.8802955  91.9892933  51.0845064
 128.2952828  92.8947753  49.9444332 135.8153623  83.7654279  60.2689609
 136.3335567  84.5015306  59.9436098 135.4608756  84.0718273  61.1036369
 127.3952561  88.6258961  48.3851015 126.7021806  88.7003316  47.7291051
 127.1504313  87.8619304  48.9072532 136.0666218  80.1854562  55.7890506
 136.3467971  79.5177751  56.4150933 136.8516824  80.3783657  55.2765170
 133.8699686  99.3613556  47.3515532 133.2973653  99.9803743  46.8986004
 134.4432480  99.9112917  47.8855454 134.2546485  90.6974369  44.6931585
 135.2005589  90.5680577  44.7620003 133.8760729  89.9589030  45.1701013
 134.1385177  94.7492115  66.1532242 135.0588187  94.9270714  66.3472288
 134.1034760  93.8048160  66.0011941 132.4389402  88.6224345  44.6286470
 131.5320857  88.3257458  44.7049184 132.7165383  88.3254163  43.7620756
 123.3567342  89.9430708  55.0785516 123.0370126  89.0896017  54.7859890
 122.8100770  90.1579286  55.8343484 127.1347250  92.6593149  58.7955023
 127.3533259  93.5910257  58.8143057 127.5473023  92.3001124  59.5809827
 134.0551467  83.1661235  50.7830711 133.2452196  82.8208320  51.1585957
 134.7435884  82.8568778  51.3718323 135.9842016  82.2439281  52.4055008
 136.5373054  82.6634735  53.0645031 136.2212102  81.3175030  52.4477964
 132.0075115  88.2326355  68.1857772 131.9071842  89.1820712  68.1169863
 131.7896657  87.9044594  67.3133842 131.2088186  85.4811280  44.7698449
 132.0707350  85.8066178  45.0294267 131.3938530  84.6942776  44.2571515
 123.2255602  93.5633620  57.0478638 122.5319073  93.1487573  56.5348592
 123.9728593  93.6054156  56.4512057 131.8706385  91.6623494  67.0022834
 131.3873467  92.4623854  67.2086723 131.9567324  91.6731439  66.0490277
 125.1392345  93.4951874  54.9244653 125.1163033  93.5939561  53.9726536
 125.4492981  94.3417024  55.2461819 127.7979722  95.5528029  59.0391267
 128.7522976  95.5211971  58.9721199 127.5992246  95.0918652  59.8541493
 128.3879105  94.1229145  61.6062065 129.2071994  94.6173223  61.6296902
 128.6615912  93.2061113  61.5779632 126.1529951 101.0947648  56.0561465
 126.0184419 100.3348049  55.4899463 125.7362014 101.8188548  55.5890254
 129.3099077 101.9916965  56.2679908 129.1931461 102.9362398  56.1658598
 128.4891523 101.6890527  56.6565707 136.1667411  95.5248126  67.8046403
 137.0358571  95.6988778  67.4433038 135.6874163  96.3442543  67.6822132
 132.1617629  82.7207323  48.0578158 132.1496299  83.6649163  48.2146429
 133.0541051  82.5377469  47.7637619 130.3353591 102.6445227  59.4835836
 131.2380838 102.6768837  59.8002331 130.1090961 101.7145678  59.4982172
 132.0907193 101.3976214  56.1445915 131.1402824 101.3978075  56.0310287
 132.3939679 100.6508948  55.6281949 135.9769749  79.3150100  52.3124095
 135.2102145  78.7608586  52.4580777 136.3880454  79.3871969  53.1738247
 136.5557240 104.3766642  55.9599921 135.7656294 104.6324171  55.4840032
 137.0468488 105.1914980  56.0651961 134.8394943 104.6297133  58.3914912
 135.0902982 105.5144143  58.6572488 135.3754492 104.4501734  57.6190004
 135.4703985 108.7788125  52.0832388 136.3079207 109.1885133  51.8666096
 135.6482253 107.8387567  52.0532582 135.4930156 106.1178840  52.7543122
 135.2954556 105.5248201  52.0294188 134.9376820 105.8131050  53.4719060
 132.0529987 107.8029035  54.9210867 132.7401027 107.4890765  54.3331882
 131.8978116 108.7070400  54.6478118 136.8564710 102.6919232  59.3495891
 136.7722898 102.0844901  58.6146301 136.0347416 103.1828250  59.3505387
 131.6297963 105.8829629  57.1928334 131.6682063 105.3493219  57.9865452
 131.1238256 105.3564834  56.5739311 135.2606541 104.6093731  50.2682266
 135.5559982 103.7004409  50.2149319 134.3594577 104.5881470  49.9463268
 136.9894383 102.2907828  50.3921591 136.6607089 101.4105207  50.2096697
 137.3433753 102.2355497  51.2797980 135.4480359 107.2791626  59.4107099
 134.9033827 108.0551434  59.5427374 136.3259709 107.6262431  59.2526221
 136.2346381 106.4061523  62.3037256 135.4928117 106.5544158  62.8901887
 135.9139126 106.6669788  61.4404006 136.6802995 114.2926951  54.3347651
 137.5061015 113.9930723  53.9546294 136.3297047 113.5234574  54.7837439
 134.8811600 112.2113278  55.2936584 134.0443508 111.7835452  55.1120586
 134.8535245 112.4045721  56.2307376 134.1961097 105.2722626  55.0785516
 133.8763881 104.4187934  54.7859890 133.6494525 105.4871204  55.8343484
 134.0649357 108.8925537  57.0478638 133.3712828 108.4779490  56.5348592
 134.8122348 108.9346074  56.4512057 135.9786099 108.8243791  54.9244653
 135.9556787 108.9231479  53.9726536 136.2886736 109.6708942  55.2461819
 136.9923706 116.4239566  56.0561465 136.8578174 115.6639967  55.4899463
 136.5755768 117.1480466  55.5890254 134.4807773 103.7859196  62.3054262
 135.1266637 103.2758150  62.7941487 134.2724924 104.5227878  62.8797687
  76.7424776   2.6052496  38.7384659  76.6648806   3.5560321  38.8173140
  76.1386420   2.2598368  39.3959586  75.4018743   0.1154017  46.1151220
  75.9526168  -0.0128920  45.3428214  74.5630219   0.4148906  45.7646113
  81.6159306   2.0368855  33.8945922  80.9421004   2.3400552  34.5030880
  82.0025128   2.8397935  33.5451379  79.8150521   2.2048527  36.1093001
  79.9902277   1.7336570  36.9238624  79.1283309   2.8314293  36.3374262
  74.3811606   5.3537890  42.8832861  74.6208204   5.9856414  43.5611880
  73.5380803   5.0025930  43.1698221  78.8939468   1.1617012  45.2874365
  78.8209639   1.9671984  45.7993670  78.4516861   1.3608978  44.4622387
  78.6829248   0.3988782  38.7977187  77.8996769   0.9410463  38.8915412
  79.3821993   0.9162762  39.1971428  81.3538151   1.0603846  47.4432524
  82.0666124   1.6951311  47.3708426  80.8628180   1.1567712  46.6272526
  72.0017783  -1.6565355  45.1969198  72.5871220  -2.4021667  45.3297102
  71.8042622  -1.3461398  46.0805862  74.8556438   1.3785892  40.2131640
  74.1866814   1.8632020  39.7295680  74.7169308   1.6255113  41.1275019
  78.9961707   3.4129636  46.8114298  79.5480015   3.5761257  47.5763384
  79.3367900   4.0034074  46.1394323  79.1427518   0.9788117  48.8262953
  79.4514645   0.7337264  49.6985652  79.9403000   1.1834756  48.3381823
  79.1648130   3.1326027  41.0568329  78.7253121   2.6402406  41.7501186
  79.9156247   2.5898995  40.8160405  71.6440469  -0.6762432  41.0592957
  72.4698489  -0.9758660  40.6791601  71.2934521  -1.4454810  41.5082746
  69.8449074  -2.7576106  42.0181891  69.0080983  -3.1853931  41.8365892
  69.8172720  -2.5643662  42.9552682  71.9561180   1.4550182  42.7806772
  71.8215648   0.6950583  42.2144770  71.5393242   2.1791082  42.3135561
  75.1130306   2.3519499  42.9925214  74.9962690   3.2964932  42.8903905
  74.2922752   2.0493061  43.3811014  76.1384820   3.0047761  46.2081143
  77.0412067   3.0371371  46.5247638  75.9122190   2.0748212  46.2227479
  77.8938422   1.7578748  42.8691222  76.9434053   1.7580609  42.7555594
  78.1970908   1.0111482  42.3527256  93.6291116   7.5939286  43.9336984
  94.2669526   7.4746034  43.2300324  93.5111958   8.5420130  43.9924936
  90.4380822   7.5466714  43.8698509  90.0999333   7.4307779  42.9819043
  91.3070590   7.1457879  43.8499515  86.2967638   9.4002191  39.8595400
  85.7332503   9.3092128  39.0911687  86.1820033   8.5802095  40.3397892
  90.9200605   8.7001566  49.8284714  90.9089246   8.3054364  48.9565218
  91.0821244   7.9667639  50.4218486  83.8432069  10.8953382  42.6979620
  84.6353361  10.5544207  42.2825919  84.0828720  11.0048357  43.6181773
  91.8767196  13.0673158  35.1709864  91.2255176  13.6527239  34.7843878
  92.6711559  13.5979353  35.2304902  85.8022823  10.1562296  35.5696999
  86.5753699   9.6091283  35.4309875  86.1548222  11.0206545  35.7811460
  87.6407866  11.4838678  48.7763898  87.3497732  12.3884309  48.6610564
  88.2764850  11.5255205  49.4907968  88.5664073   8.8615526  45.3665258
  89.1627645   8.6371549  44.6522221  88.6239044   8.1200272  45.9690706
  88.1389101   6.3154962  33.2015449  88.3914622   5.7936483  32.4398912
  87.2013660   6.1521107  33.3042132  93.3542461  10.7563590  35.7078849
  92.7188294  10.8298217  36.4199753  93.0239868  11.3457189  35.0297928
  87.8585390   8.2183068  35.4039824  87.7421648   7.5427971  36.0720908
  87.9687650   7.7315442  34.5871977  90.2016931   7.6793215  39.1086513
  89.8375138   7.1523836  39.8199434  91.0584047   7.2891684  38.9352998
  92.5997751  11.1700093  45.7713692  92.2998474  12.0725132  45.6629499
  92.2548811  10.9032277  46.6234845  86.0510233   7.6213890  41.8050396
  85.1260729   7.4890104  42.0128088  86.2994646   8.4008109  42.3020339
  89.8211639   5.1640772  35.0894528  89.7011264   5.6097823  35.9280009
  89.1264227   5.5126090  34.5308066  83.4119044   7.2647164  42.6394185
  83.5411425   7.5181643  43.5533597  82.7316495   7.8574872  42.3198840
  87.5818531  17.9344414  38.7384659  87.5042561  18.8852239  38.8173140
  86.9780174  17.5890286  39.3959586  90.0735761   5.1072279  51.3946026
  89.2969095   5.6666199  51.3848891  90.7126324   5.5929062  51.9160896
  88.3282133   7.9157732  50.9563993  89.0696817   8.4542776  50.6798817
  87.6219118   8.5424021  51.1135545  93.8037473  10.0586873  49.5536155
  94.2120829   9.6169283  48.8090787  93.0814734   9.4839500  49.8070348
  90.1568543   4.9959480  46.9269712  91.0029738   5.4198893  47.0704361
  90.0967180   4.3393104  47.6208275  94.1266287  10.6188064  43.3088444
  93.4975150  10.7833778  42.6064512  93.7391949  11.0329673  44.0799408
  98.0055519  11.5542501  40.6632808  97.3206557  11.9341403  40.1129841
  98.0899368  12.1637828  41.3964755  95.2606451   9.2002460  47.2628151
  95.4723346   9.8434220  46.5862532  95.2136199   8.3664777  46.7950081
  89.6794249  10.3562472  40.5738529  90.1432595  10.6350175  39.7843151
  89.4151047   9.4545916  40.3911620  86.5718330   9.9033953  43.5118292
  87.1419687  10.3321222  42.8735777  87.1626442   9.6216538  44.2102478
  88.6163135   6.4785624  37.3828094  89.3187179   6.9306668  37.8502020
  88.2843764   5.8369443  38.0107987  87.0643497   5.0697381  51.7579303
  86.4342157   5.7513661  51.9914700  86.9579585   4.9580462  50.8132442
  82.3588469   4.7369177  42.6845228  81.5687523   4.9926705  42.2085338
  82.8499716   5.5517515  42.7897268  96.3752279  12.0774416  45.4350508
  97.1969722  11.6754603  45.1533190  96.3714682  11.9742650  46.3866624
  84.3103215   5.1013756  39.6428704  83.5134378   5.2132450  40.1612200
  84.0828807   5.4400408  38.7769595  90.1408882  11.6258459  47.5911219
  90.2053315  12.0878866  48.4269391  89.4319806  10.9955824  47.7193529
  80.6426172   4.9899667  45.1160218  80.8934211   5.8746677  45.3817794
  81.1785721   4.8104269  44.3435310  89.8556900  13.2926567  37.4590199
  89.7202575  14.1378102  37.8875047  90.3966712  13.4945844  36.6956133
  83.3086297  10.8102005  38.0318124  83.8210818  11.6045255  38.1823689
  83.9609010  10.1128295  37.9651726  85.1181182  13.9267761  40.1140877
  85.2947810  14.8485726  39.9261861  85.9138015  13.6126180  40.5435257
  84.4033538   5.9732393  49.9903041  84.2887054   5.0717650  50.2910140
  83.5478056   6.2196090  49.6387857  91.4825376  13.9150133  51.5890541
  91.0389230  13.1286512  51.2711446  92.1442590  14.1029284  50.9234432
  86.2412497  15.4445935  46.1151220  86.7919922  15.3162998  45.3428214
  85.4023973  15.7440824  45.7646113  93.5806614  14.1952933  49.6171943
  93.5625090  15.0161814  49.1252212  94.5026534  14.0707008  49.8422084
  90.0379668  11.7097063  50.4595451  90.5708005  10.9485351  50.2294759
  89.5093749  11.4170714  51.2019605  81.2735214   9.1390659  38.8077695
  82.1110436   9.5487667  38.5911403  81.4513482   8.1990101  38.7777889
  93.1699646   6.8065740  34.4961528  92.6546270   7.5770344  34.7349915
  92.8976955   6.1330876  35.1194589  98.1433920   9.5598094  36.4314701
  97.3663363   9.2209254  35.9869863  98.8225401   9.5650717  35.7569666
  91.4032381  10.8383055  37.9714263  90.8753743  10.1035815  37.6587500
  90.9019884  11.6157731  37.7254231  96.3825227   9.0332076  43.0881309
  95.7248902   9.7231337  43.1761438  97.1865626   9.4228507  43.4315296
  95.1930686   7.3876448  41.1385251  95.7062568   8.0206440  41.6406961
  95.8431910   6.7877644  40.7728611  86.4620696   3.5307182  34.3516760
  85.6258008   3.8681869  34.6726034  86.3225465   3.3956162  33.4143897
  89.5484981   8.6563265  30.9749236  88.6412043   8.4252519  31.1740385
  90.0456013   7.8600885  31.1623218  92.4553060  17.3660772  33.8945922
  91.7814759  17.6692469  34.5030880  92.8418882  18.1689853  33.5451379
  91.6711517   4.8625904  43.3843592  90.7534078   5.0840851  43.2265280
  92.0871660   4.9372214  42.5255299  92.4546565   6.2617319  38.5146272
  93.2018383   6.7738717  38.2053394  92.7238154   5.9401372  39.3750665
  90.7273215   8.7575860  35.4973226  89.8184434   8.4734893  35.5945696
  90.7568299   9.1774939  34.6376533  95.9592482  12.3682450  39.2664394
  95.5054809  11.5273360  39.3229584  95.3286449  13.0043848  39.6039174
  94.4025421  14.2058946  40.2014212  94.6948396  14.7664003  39.4826577
  94.9124042  14.4987507  40.9567371  81.2961385   6.4781374  39.4788428
  81.0985785   5.8850735  38.7539495  80.7408049   6.1733584  40.1964367
  89.2758109   6.3704481  41.5983021  89.3306719   5.4178317  41.5225498
  88.4649311   6.5263920  42.0824320  90.4249303  10.2984604  32.8361305
  89.9868732   9.5820463  32.3766942  91.1659743  10.5260719  32.2746396
  87.2150469   4.9881540  39.3573400  86.4018334   5.2875711  39.7638592
  87.7109463   4.5937229  40.0747883  89.3659047  14.9839297  41.2907665
  89.3235225  15.2100144  40.3616197  90.2821745  14.7502672  41.4393466
  92.8124680   5.4523365  48.1888294  93.1674068   5.6794838  49.0482760
  93.4596812   5.7841742  47.5665549  98.5422417   8.5741801  38.8937623
  98.4040316   8.7643397  37.9658812  98.1858636   9.3361184  39.3505674
  98.5691797  10.6418328  43.9048895  99.0028304  10.5493617  44.7531949
  99.2823378  10.6175828  43.2668911  87.4824847  11.8602326  41.0869628
  88.2765446  11.3652647  40.8852203  86.7716540  11.3320190  40.7237333
  92.3019692  14.2420422  45.4381995  92.3556714  14.8111358  46.2059711
  91.4334473  14.4122307  45.0736032  83.7907611   6.0045408  37.1629380
  82.8605199   5.9429864  37.3799343  83.8865083   5.4821361  36.3666022
  83.7093160   2.5300221  39.7507622  83.9699977   3.4445554  39.6416783
  84.5310332   2.0624664  39.9004235  85.1818085   3.9437978  46.9206447
  85.8541139   3.7355340  46.2719095  84.3547872   3.7460064  46.4811679
  99.4307346  10.6842029  46.4381780  99.6243237  11.5887839  46.6841055
  99.3307965  10.2249448  47.2720365  94.4922455  10.8348771  52.0122661
  94.3407962  10.6059323  51.0952744  94.4827135  11.7919373  52.0254006
  91.2607792   8.4080684  46.9968927  92.1899852   8.5591844  46.8237894
  90.8398822   8.4964705  46.1417574  90.0596123  12.4331348  44.7667465
  89.9207209  12.0650133  45.6393403  89.2710720  12.9478988  44.5951423
  90.6544275  17.5340445  36.1093001  90.8296031  17.0628488  36.9238624
  89.9677063  18.1606211  36.3374262  91.6101338  11.8112951  42.1556303
  91.2751171  11.7713721  43.0513952  91.1105284  11.1457667  41.6826713
  85.5845582   7.2180581  47.6808884  85.4465380   6.4860820  48.2820423
  86.4950506   7.1289481  47.3993071  94.5460530   9.1568985  32.4293362
  93.9289701   8.4315814  32.3326415  94.0777019   9.9178346  32.0860436
  88.2127883   6.9300540  47.1692563  88.9227502   6.2893733  47.1279182
  88.1697191   7.1813435  48.0918744  96.2014662  13.8667894  50.0899143
  96.1427208  13.1827114  49.4229726  96.6034180  14.6086884  49.6379769
  86.9256817   3.9165758  48.9888203  86.3894174   3.4656497  49.6409799
  86.3373526   4.0511667  48.2458667  85.2205361  20.6829808  42.8832861
  85.4601959  21.3148332  43.5611880  84.3774557  20.3317848  43.1698221
  86.3359076   3.3754410  31.5514667  85.4588542   3.2543211  31.1876913
  86.8116829   2.5840488  31.2993555  96.2032069  11.8307478  48.3213122
  95.3158848  11.4933400  48.4439521  96.7730620  11.0990509  48.5581888
  77.8561216   8.1631569  41.6456174  78.5432256   7.8493300  41.0577189
  77.7009345   9.0672934  41.3723425  82.6595938   3.0521766  46.0741197
  82.5754127   2.4447436  45.3391607  81.8378645   3.5430784  46.0750694
  89.7333222  16.4908930  45.2874365  89.6603394  17.2963902  45.7993670
  89.2910616  16.6900896  44.4622387  89.5223002  15.7280700  38.7977187
  88.7390524  16.2702380  38.8915412  90.2215747  16.2454680  39.1971428
  92.1931906  16.3895764  47.4432524  92.9059878  17.0243229  47.3708426
  91.7021935  16.4859630  46.6272526  93.9149433  10.2947017  39.0149816
  92.9805712  10.4148479  38.8454520  94.0926101   9.3919484  38.7509826
  87.2443820  14.1390208  48.2638095  87.9453279  14.7726691  48.4167489
  86.7738934  14.4804939  47.5033734  95.3698215  12.4808157  36.5486002
  95.6458059  12.3664752  37.4579876  94.5002714  12.0825642  36.5098175
  95.0445105   6.6934815  46.0890645  94.3916556   6.9410722  45.4343098
  95.4225485   5.8798953  45.7553123  92.0052279  16.7294508  40.1918816
  92.1874674  15.9116164  40.6546568  92.8285265  16.9462200  39.7543706
  92.3394445  15.6562693  37.4533864  92.8682211  15.1455148  36.8404026
  92.6022664  15.3405224  38.3179397  91.0932678   7.4354626  52.5756682
  90.4173316   7.3348755  53.2459058  91.9160312   7.2793840  53.0392680
  82.8411538  13.6726563  45.1969198  83.4264974  12.9270251  45.3297102
  82.6436376  13.9830519  46.0805862  85.6950193  16.7077810  40.2131640
  85.0260568  17.1923938  39.7295680  85.5563062  16.9547030  41.1275019
  77.4329192   6.2432163  43.9173641  77.4713292   5.7095754  44.7110759
  76.9269485   5.7167368  43.2984618  89.8355461  18.7421554  46.8114298
  90.3873769  18.9053175  47.5763384  90.1761655  19.3325991  46.1394323
  84.2872227   3.1619836  51.0609217  84.9144266   2.7796913  51.6746742
  83.4300146   2.9434038  51.4264910  94.6866336  13.5682811  52.6662953
  95.2306240  14.1812769  52.1717908  94.1053181  14.1262389  53.1829966
  81.0637770   4.9696265  36.9927572  81.3591211   4.0606943  36.9394626
  80.1625806   4.9484004  36.6708575  92.9723849  16.6903529  43.7977981
  92.8474988  15.8893269  43.2888926  93.6302940  17.1849722  43.3091951
  84.5932017   3.0452262  42.9755121  83.8718603   3.6588229  42.8362594
  85.3825273   3.5810026  42.8971767  95.0358757  14.4912549  45.4257531
  94.0889093  14.3717900  45.3535857  95.3841530  13.6035047  45.5083792
  82.7925611   2.6510363  37.1166897  82.4638318   1.7707742  36.9342003
  83.1464982   2.5958031  38.0043287  92.0405190  14.2865265  41.6261883
  91.8930153  13.3581973  41.8069453  92.8658684  14.3085356  41.1418958
  85.9067435   2.9383332  37.4842375  86.2463507   3.4669254  36.7620983
  86.3539555   3.2763739  38.2600942  95.6439312  15.1093824  42.7126756
  96.5685860  14.9036685  42.5751207  95.4754616  14.8610225  43.6216097
  86.7765926   5.0988816  43.1964745  86.6310507   5.4129119  44.0889026
  86.2991130   5.7173717  42.6435643  95.4334628  15.6279492  38.0688847
  95.6071506  15.0625914  37.3162700  95.9263520  16.4280386  37.8868337
  81.2511588   7.6394161  46.1352406  80.7065056   8.4153969  46.2672680
  82.1290938   7.9864965  45.9771527  96.4209801  14.9446256  35.1685745
  97.1160706  15.5652949  35.3873060  96.7632951  14.0941607  35.4438123
  82.0377610   6.7664057  49.0282563  81.2959346   6.9146692  49.6147193
  81.7170354   7.0272323  48.1649312  98.3201224  12.3945961  36.6973076
  98.8452548  12.7333234  35.9722396  98.2323577  11.4592977  36.5136211
  89.9821273  16.3080035  48.8262953  90.2908399  16.0629182  49.6985652
  90.7796755  16.5126674  48.3381823  90.0041885  18.4617945  41.0568329
  89.5646875  17.9694323  41.7501186  90.7550002  17.9190912  40.8160405
  82.4834224  14.6529486  41.0592957  83.3092244  14.3533258  40.6791601
  82.1328276  13.8837108  41.5082746  87.4515757  14.0055954  43.1290631
  86.8295766  13.3426659  42.8292859  88.1220624  14.0317086  42.4464279
  80.6842829  12.5715812  42.0181891  79.8474737  12.1437986  41.8365892
  80.6566474  12.7648255  42.9552682  98.0095130  13.0278865  52.0024274
  97.2190674  13.0103004  51.4628773  97.7728485  13.5667159  52.7573311
  98.1293005   9.8771332  49.3157003  98.1791010   9.7121339  50.2572525
  98.0206928   9.0098591  48.9254883  87.0129264  12.5559877  36.6049092
  87.1617384  13.2395342  35.9515764  87.8195707  12.5364967  37.1198547
  99.6311202  12.2968273  49.5599024  99.3396010  12.6598254  50.3962485
  99.0183333  11.5835281  49.3812356 100.8306884   9.8621153  42.0801594
 101.6653776  10.3010957  42.2439155 100.9666013   9.3859806  41.2609840
  97.8798390   7.4200888  48.0279082  98.3552512   7.6128534  47.2197934
  96.9563956   7.4760073  47.7822466  84.7681897   8.5825055  37.6110160
  84.5227939   7.6787385  37.8090371  84.9377811   8.5842205  36.6689638
  84.0377544   4.3153412  35.1096322  83.3446789   4.3897767  34.4536358
  83.7929296   3.5513756  35.6317839  90.5124669  15.0508008  34.0760839
  89.9398636  15.6698195  33.6231311  91.0857463  15.6007369  34.6100761
  93.7321929  15.3345158  35.2069421  94.6652602  15.2690719  35.4102297
  93.6445142  16.1701425  34.7483954  96.3609946  14.6511028  32.1673369
  96.2823577  14.3170892  33.0609127  97.1819613  15.1432796  32.1664841
  90.8971468   6.3868820  31.4176891  91.8430573   6.2575029  31.4865309
  90.5185713   5.6483482  31.8946320  90.7810160  10.4386567  52.8777548
  91.7013170  10.6165166  53.0717595  90.7459743   9.4942612  52.7257248
  89.0814385   4.3118797  31.3531777  88.1745840   4.0151910  31.4294490
  89.3590366   4.0148615  30.4866063  79.9992325   5.6325160  41.8030823
  79.6795110   4.7790468  41.5105197  79.4525754   5.8473738  42.5588790
  83.7772233   8.3487601  45.5200330  83.9958243   9.2804709  45.5388363
  84.1898007   7.9895576  46.3055133  88.6500098   3.9220807  54.9103079
  88.5496825   4.8715164  54.8415170  88.4321640   3.5939046  54.0379149
  79.8680585   9.2528072  43.7723945  79.1744057   8.8382024  43.2593899
  80.6153576   9.2948608  43.1757364  88.5131368   7.3517946  53.7268140
  88.0298450   8.1518306  53.9332029  88.5992307   7.3625891  52.7735584
  81.7817328   9.1846325  41.6489960  81.7588016   9.2834013  40.6971843
  82.0917964  10.0311476  41.9707126  84.4404706  11.2422480  45.7636574
  85.3947959  11.2106423  45.6966506  84.2417229  10.7813104  46.5786800
  85.0304088   9.8123597  48.3307372  85.8496977  10.3067675  48.3542209
  85.3040896   8.8955565  48.3024939  82.7954935  16.7842100  42.7806772
  82.6609402  16.0242501  42.2144770  82.3786997  17.5083000  42.3135561
  93.9313898  11.9679024  31.7883347  94.6349748  12.1729026  32.4041003
  93.2076546  12.5355785  32.0532431  94.7611708   7.7188885  37.9085617
  94.7046909   8.1757436  37.0693250  95.3140050   6.9579569  37.7308460
  85.9524060  17.6811417  42.9925214  85.8356445  18.6256849  42.8903905
  85.1316507  17.3784979  43.3811014  95.8400595  12.4061553  33.8381807
  96.6746199  11.9742751  33.6559282  95.6784938  12.2343566  34.7658702
  95.4946487   8.9093666  35.2038146  95.4395291   8.7437937  34.2626591
  94.8692542   9.6169699  35.3600336  80.2839002   4.1461730  49.0299569
  80.9297866   3.6360684  49.5186794  80.0756153   4.8830412  49.6042994
  92.8092394  11.2142578  54.5291709  93.6783554  11.3883230  54.1678344
  92.3299146  12.0336995  54.4067439  86.9778575  18.3339679  46.2081143
  87.8805821  18.3663289  46.5247638  86.7515945  17.4040130  46.2227479
  88.7332177  17.0870665  42.8691222  87.7827808  17.0872527  42.7555594
  89.0364663  16.3403400  42.3527256 104.4684870  22.9231204  43.9336984
 105.1063280  22.8037951  43.2300324 104.3505713  23.8712048  43.9924936
 101.2774576  22.8758632  43.8698509 100.9393088  22.7599697  42.9819043
 102.1464345  22.4749797  43.8499515  97.1361392  24.7294108  39.8595400
  96.5726257  24.6384045  39.0911687  97.0213787  23.9094013  40.3397892
 101.7594359  24.0293484  49.8284714 101.7483000  23.6346282  48.9565218
 101.9214999  23.2959556  50.4218486  94.6825824  26.2245300  42.6979620
  95.4747116  25.8836125  42.2825919  94.9222474  26.3340275  43.6181773
 102.7160951  28.3965076  35.1709864 102.0648931  28.9819156  34.7843878
 103.5105314  28.9271271  35.2304902  96.6416578  25.4854213  35.5696999
  97.4147454  24.9383200  35.4309875  96.9941977  26.3498463  35.7811460
  98.4801620  26.8130595  48.7763898  98.1891486  27.7176226  48.6610564
  99.1158605  26.8547123  49.4907968  99.4057827  24.1907444  45.3665258
 100.0021400  23.9663466  44.6522221  99.4632799  23.4492189  45.9690706
  98.9782856  21.6446879  33.2015449  99.2308376  21.1228401  32.4398912
  98.0407415  21.4813025  33.3042132 104.0226139  20.6482658  41.0090192
 104.8089228  20.2302081  40.6580609 104.2864843  21.5528750  41.1771840
 104.1936216  26.0855508  35.7078849 103.5582049  26.1590135  36.4199753
 103.8633622  26.6749107  35.0297928 109.4234566  20.5857891  41.9123170
 110.1559738  20.0157108  42.1461000 108.6673921  20.1979491  42.3529676
  98.6979144  23.5474985  35.4039824  98.5815403  22.8719889  36.0720908
  98.8081404  23.0607359  34.5871977 101.0410685  23.0085132  39.1086513
 100.6768893  22.4815753  39.8199434 101.8977801  22.6183601  38.9352998
 106.9459986  14.2979465  46.3717779 106.6143311  15.1674876  46.1478994
 106.3505599  13.9815749  47.0511809 100.6816172  18.0375032  34.1047861
 100.8490575  18.9055268  34.4718332 100.4913341  18.2002314  33.1809151
 103.4391506  26.4992011  45.7713692 103.1392229  27.4017050  45.6629499
 103.0942565  26.2324194  46.6234845  96.8903987  22.9505808  41.8050396
  95.9654484  22.8182022  42.0128088  97.1388400  23.7300027  42.3020339
 106.8388649  19.0174551  43.4511129 105.9305527  18.9489960  43.1569890
 106.7876245  19.4946496  44.2792955 100.6605393  20.4932690  35.0894528
 100.5405018  20.9389740  35.9280009  99.9657982  20.8418007  34.5308066
  94.2512798  22.5939081  42.6394185  94.3805179  22.8473560  43.5533597
  93.5710249  23.1866789  42.3198840  98.4212285  33.2636331  38.7384659
  98.3436315  34.2144156  38.8173140  97.8173929  32.9182204  39.3959586
 100.9129515  20.4364197  51.3946026 100.1362849  20.9958117  51.3848891
 101.5520078  20.9220980  51.9160896 108.7050296  17.2190990  45.2289003
 108.0624676  17.5123523  44.5828798 108.2005224  17.1043910  46.0342200
 106.3590459  20.9654163  35.9174862 107.2708316  21.1981550  35.7422560
 105.8500106  21.5491207  35.3549941  99.1675887  23.2449650  50.9563993
  99.9090572  23.7834694  50.6798817  98.4612873  23.8715939  51.1135545
 104.6431227  25.3878791  49.5536155 105.0514583  24.9461201  48.8090787
 103.9208489  24.8131418  49.8070348 100.9962297  20.3251397  46.9269712
 101.8423492  20.7490811  47.0704361 100.9360935  19.6685022  47.6208275
 104.9660042  25.9479981  43.3088444 104.3368904  26.1125695  42.6064512
 104.5785704  26.3621591  44.0799408 108.8449274  26.8834419  40.6632808
 108.1600312  27.2633320  40.1129841 108.9293123  27.4929746  41.3964755
 104.1461742  17.9855766  48.5850885 103.9022674  18.7397826  48.0485161
 104.4221673  18.3641113  49.4198133 106.1000205  24.5294378  47.2628151
 106.3117100  25.1726138  46.5862532 106.0529953  23.6956695  46.7950081
 103.7026434  17.1412199  44.1664723 102.8410913  17.4393452  44.4581461
 103.7288869  17.3582598  43.2345756 100.5188004  25.6854389  40.5738529
 100.9826349  25.9642092  39.7843151 100.2544802  24.7837834  40.3911620
  97.4112085  25.2325871  43.5118292  97.9813442  25.6613139  42.8735777
  98.0020197  24.9508456  44.2102478  99.4556890  21.8077542  37.3828094
 100.1580933  22.2598585  37.8502020  99.1237518  21.1661361  38.0107987
  97.9037251  20.3989298  51.7579303  97.2735912  21.0805579  51.9914700
  97.7973339  20.2872380  50.8132442  93.1982224  20.0661094  42.6845228
  92.4081278  20.3218623  42.2085338  93.6893471  20.8809432  42.7897268
 107.2146033  27.4066334  45.4350508 108.0363477  27.0046521  45.1533190
 107.2108436  27.3034568  46.3866624  95.1496969  20.4305674  39.6428704
  94.3528132  20.5424368  40.1612200  94.9222561  20.7692326  38.7769595
 100.9802637  26.9550377  47.5911219 101.0447069  27.4170784  48.4269391
 100.2713560  26.3247742  47.7193529  91.4819927  20.3191585  45.1160218
  91.7327965  21.2038595  45.3817794  92.0179475  20.1396186  44.3435310
 115.3052026  23.7505082  41.7835480 114.5515735  23.1812480  41.6279484
 115.4399567  23.7167746  42.7306115 100.6950654  28.6218484  37.4590199
 100.5596329  29.4670020  37.8875047 101.2360467  28.8237762  36.6956133
  97.1817994  14.7010064  54.1204554  96.7884939  14.1476263  54.7952199
  97.9984134  15.0120643  54.5111072  94.1480052  26.1393922  38.0318124
  94.6604572  26.9337173  38.1823689  94.8002764  25.4420213  37.9651726
  95.9574936  29.2559679  40.1140877  96.1341565  30.1777643  39.9261861
  96.7531770  28.9418098  40.5435257 100.0985955  16.1167943  51.7124811
 100.8395668  16.7175096  51.6329273 100.3303878  15.3745581  51.1542854
  95.2427293  21.3024310  49.9903041  95.1280808  20.4009568  50.2910140
  94.3871811  21.5488007  49.6387857 102.3219131  29.2442051  51.5890541
 101.8782985  28.4578429  51.2711446 102.9836344  29.4321201  50.9234432
  97.0806252  30.7737852  46.1151220  97.6313677  30.6454916  45.3428214
  96.2417728  31.0732741  45.7646113 104.4200369  29.5244851  49.6171943
 104.4018844  30.3453732  49.1252212 105.3420289  29.3998926  49.8422084
 100.8773423  27.0388980  50.4595451 101.4101760  26.2777268  50.2294759
 100.3487504  26.7462632  51.2019605 104.0443118  12.1449046  45.9889093
 103.7007387  13.0350688  45.9128203 104.4122080  11.9550704  45.1258678
  92.1128968  24.4682577  38.8077695  92.9504190  24.8779585  38.5911403
  92.2907236  23.5282019  38.7777889 104.0093401  22.1357657  34.4961528
 103.4940024  22.9062262  34.7349915 103.7370709  21.4622793  35.1194589
 101.5940512  16.9807358  39.5546766 100.7382108  16.5914208  39.3752405
 102.0067463  17.0599319  38.6946552 103.1239658  14.5153701  43.9538326
 102.6204454  14.4783836  43.1406131 103.4170265  15.4246444  44.0134983
  99.3682544  14.5992431  42.9604508 100.2335541  14.4035240  42.6010397
  99.4360053  14.3702783  43.8873864 108.9827675  24.8890012  36.4314701
 108.2057117  24.5501171  35.9869863 109.6619156  24.8942635  35.7569666
 103.7979704  20.0084749  36.3221309 103.4929839  20.3230899  37.1731452
 104.7510146  20.0866169  36.3648642 102.2426136  26.1674973  37.9714263
 101.7147497  25.4327732  37.6587500 101.7413638  26.9449649  37.7254231
 107.2218982  24.3623993  43.0881309 106.5642656  25.0523255  43.1761438
 108.0259381  24.7520425  43.4315296  96.9744863  16.8294639  40.3320874
  97.5488615  16.6069820  39.5994067  97.5615846  16.8983333  41.0849476
 106.0324440  22.7168366  41.1385251 106.5456322  23.3498358  41.6406961
 106.6825664  22.1169561  40.7728611  97.3014450  18.8599100  34.3516760
  96.4651763  19.1973787  34.6726034  97.1619220  18.7248080  33.4143897
  99.2767531  13.7035888  39.0595944  98.6231943  13.3884905  38.4352559
  99.2348005  13.0811628  39.7855767 100.3878736  23.9855183  30.9749236
  99.4805798  23.7544436  31.1740385 100.8849768  23.1892802  31.1623218
 103.2946815  32.6952690  33.8945922 102.6208513  32.9984387  34.5030880
 103.6812637  33.4981770  33.5451379 102.5105271  20.1917821  43.3843592
 101.5927833  20.4132768  43.2265280 102.9265415  20.2664132  42.5255299
 103.2940319  21.5909237  38.5146272 104.0412138  22.1030634  38.2053394
 103.5631909  21.2693290  39.3750665 101.5666969  24.0867778  35.4973226
 100.6578188  23.8026811  35.5945696 101.5962053  24.5066856  34.6376533
 106.7986237  27.6974367  39.2664394 106.3448564  26.8565277  39.3229584
 106.1680203  28.3335766  39.6039174 105.7419156  18.6266353  40.4965061
 105.0041913  18.1143740  40.8275304 105.9945930  18.1866735  39.6848338
 105.2419176  29.5350864  40.2014212 105.5342150  30.0955921  39.4826577
 105.7517796  29.8279425  40.9567371 105.8430783  11.4042605  41.0906830
 106.1489660  10.5439969  40.8032745 106.5683388  11.9960226  40.8905824
  92.1355140  21.8073292  39.4788428  91.9379539  21.2142653  38.7539495
  91.5801804  21.5025502  40.1964367 100.1151863  21.6996398  41.5983021
 100.1700473  20.7470235  41.5225498  99.3043065  21.8555838  42.0824320
 101.2643057  25.6276521  32.8361305 100.8262487  24.9112380  32.3766942
 102.0053498  25.8552636  32.2746396  98.0544223  20.3173458  39.3573400
  97.2412089  20.6167629  39.7638592  98.5503217  19.9229147  40.0747883
 100.2052801  30.3131215  41.2907665 100.1628980  30.5392061  40.3616197
 101.1215500  30.0794590  41.4393466 103.6518435  20.7815283  48.1888294
 104.0067823  21.0086756  49.0482760 104.2990566  21.1133659  47.5665549
 109.3816172  23.9033719  38.8937623 109.2434070  24.0935315  37.9658812
 109.0252391  24.6653101  39.3505674  97.5458298  17.8891814  44.9734635
  98.1857677  17.7480573  44.2757599  96.7135828  17.6026327  44.5973237
 109.4085551  25.9710246  43.9048895 109.8422058  25.8785535  44.7531949
 110.1217132  25.9467746  43.2668911  98.3218602  27.1894244  41.0869628
  99.1159200  26.6944564  40.8852203  97.6110294  26.6612107  40.7237333
 103.1413446  29.5712340  45.4381995 103.1950469  30.1403276  46.2059711
 102.2728228  29.7414225  45.0736032  94.6301365  21.3337326  37.1629380
  93.6998953  21.2721781  37.3799343  94.7258837  20.8113279  36.3666022
  94.5486914  17.8592139  39.7507622  94.8093732  18.7737472  39.6416783
  95.3704087  17.3916581  39.9004235  96.0211840  19.2729896  46.9206447
  96.6934893  19.0647258  46.2719095  95.1941626  19.0751982  46.4811679
 110.2701101  26.0133946  46.4381780 110.4636991  26.9179757  46.6841055
 110.1701719  25.5541365  47.2720365 101.9237412  15.8991837  48.9372107
 101.2765327  16.5981786  48.8436584 102.6938427  16.3327981  49.3048356
 105.3316210  26.1640689  52.0122661 105.1801716  25.9351241  51.0952744
 105.3220889  27.1211290  52.0254006 102.1001546  23.7372602  46.9968927
 103.0293606  23.8883761  46.8237894 101.6792576  23.8256622  46.1417574
 100.8989878  27.7623266  44.7667465 100.7600964  27.3942050  45.6393403
 100.1104474  28.2770906  44.5951423 101.4938030  32.8632363  36.1093001
 101.6689785  32.3920406  36.9238624 100.8070818  33.4898129  36.3374262
 102.4495093  27.1404869  42.1556303 102.1144926  27.1005639  43.0513952
 101.9499039  26.4749585  41.6826713  96.4239337  22.5472499  47.6808884
  96.2859135  21.8152738  48.2820423  97.3344260  22.4581399  47.3993071
 105.3854285  24.4860903  32.4293362 104.7683455  23.7607731  32.3326415
 104.9170773  25.2470263  32.0860436  99.0521638  22.2592458  47.1692563
  99.7621256  21.6185650  47.1279182  99.0090946  22.5105353  48.0918744
 107.0408416  29.1959811  50.0899143 106.9820962  28.5119032  49.4229726
 107.4427935  29.9378801  49.6379769  97.7650572  19.2457676  48.9888203
  97.2287929  18.7948414  49.6409799  97.1767280  19.3803585  48.2458667
  96.0599115  36.0121725  42.8832861  96.2995713  36.6440249  43.5611880
  95.2168312  35.6609765  43.1698221  97.1752831  18.7046327  31.5514667
  96.2982297  18.5835128  31.1876913  97.6510584  17.9132406  31.2993555
 107.0425824  27.1599395  48.3213122 106.1552602  26.8225317  48.4439521
 107.6124375  26.4282427  48.5581888  88.6954971  23.4923487  41.6456174
  89.3826011  23.1785217  41.0577189  88.5403099  24.3964852  41.3723425
  93.4989693  18.3813684  46.0741197  93.4147882  17.7739353  45.3391607
  92.6772399  18.8722702  46.0750694 100.5726977  31.8200848  45.2874365
 100.4997148  32.6255819  45.7993670 100.1304370  32.0192814  44.4622387
 100.3616757  31.0572618  38.7977187  99.5784278  31.5994298  38.8915412
 101.0609502  31.5746597  39.1971428 103.6713407  16.8667247  41.4411392
 104.1682106  16.1137210  41.1212463 102.9000388  16.9031564  40.8754602
 111.5243164  22.5707613  43.0829684 111.5133040  23.4532328  42.7123617
 110.6560544  22.2179164  42.8884221 103.0325660  31.7187682  47.4432524
 103.7453633  32.3535147  47.3708426 102.5415689  31.8151548  46.6272526
 104.7543187  25.6238934  39.0149816 103.8199466  25.7440397  38.8454520
 104.9319856  24.7211401  38.7509826 100.2548375  19.0084630  41.1683077
  99.8846163  18.4555671  41.8563983 100.7507468  18.4042764  40.6158077
 108.1415739  21.4656254  39.5499850 108.6076191  22.2984245  39.4760153
 108.5923239  21.0001235  40.2545108  98.0837574  29.4682125  48.2638095
  98.7847033  30.1018608  48.4167489  97.6132689  29.8096857  47.5033734
 106.2091970  27.8100075  36.5486002 106.4851814  27.6956670  37.4579876
 105.3396469  27.4117560  36.5098175 106.1132401  13.8336841  43.5890751
 105.1995481  14.0641068  43.7572958 106.5425503  13.9175285  44.4404784
 105.8838860  22.0226733  46.0890645 105.2310310  22.2702640  45.4343098
 106.2619240  21.2090871  45.7553123 102.8446034  32.0586426  40.1918816
 103.0268428  31.2408082  40.6546568 103.6679020  32.2754118  39.7543706
 103.1788199  30.9854611  37.4533864 103.7075966  30.4747066  36.8404026
 103.4416419  30.6697141  38.3179397 101.9326433  22.7646544  52.5756682
 101.2567070  22.6640673  53.2459058 102.7554067  22.6085758  53.0392680
  93.6805292  29.0018480  45.1969198  94.2658729  28.2562168  45.3297102
  93.4830131  29.3122437  46.0805862  96.5343947  32.0369728  40.2131640
  95.8654323  32.5215855  39.7295680  96.3956817  32.2838948  41.1275019
  88.2722947  21.5724081  43.9173641  88.3107046  21.0387671  44.7110759
  87.7663240  21.0459286  43.2984618 100.6749216  34.0713471  46.8114298
 101.2267524  34.2345093  47.5763384 101.0155409  34.6617909  46.1394323
  95.6513709  16.4188621  47.4136183  95.7155036  17.2803452  47.0013581
  95.5880829  15.8062623  46.6808542  95.1265982  18.4911754  51.0609217
  95.7538020  18.1088831  51.6746742  94.2693900  18.2725956  51.4264910
 105.5260090  28.8974729  52.6662953 106.0699994  29.5104687  52.1717908
 104.9446935  29.4554307  53.1829966  91.9031524  20.2988183  36.9927572
  92.1984965  19.3898861  36.9394626  91.0019560  20.2775922  36.6708575
 103.8117603  32.0195447  43.7977981 103.6868743  31.2185187  43.2888926
 104.4696694  32.5141640  43.3091951  95.4325771  18.3744179  42.9755121
  94.7112357  18.9880147  42.8362594  96.2219027  18.9101944  42.8971767
 105.8752512  29.8204467  45.4257531 104.9282847  29.7009818  45.3535857
 106.2235285  28.9326965  45.5083792  98.2352085  15.7098606  49.2495773
  98.7586487  15.9560902  50.0122082  98.0164418  16.5418641  48.8298910
  93.6319366  17.9802280  37.1166897  93.3032072  17.0999659  36.9342003
  93.9858737  17.9249949  38.0043287 102.8798945  29.6157183  41.6261883
 102.7323907  28.6873890  41.8069453 103.7052438  29.6377274  41.1418958
  96.7461189  18.2675250  37.4842375  97.0857262  18.7961171  36.7620983
  97.1933310  18.6055656  38.2600942 106.4833067  30.4385742  42.7126756
 107.4079614  30.2328603  42.5751207 106.3148370  30.1902143  43.6216097
  99.4404630  16.6512301  46.9345443  99.1001450  15.8520114  47.3366123
  98.7343636  16.9514012  46.3622276 100.0921102  13.7361613  45.3872766
 100.9147171  13.2622091  45.2651656 100.3359165  14.5152097  45.8871452
  98.7329336  16.7649872  35.6835668  99.4537699  17.1431125  35.1799385
  98.1094640  17.4838749  35.7870646 102.8760459  17.4695021  36.6194000
 103.0924074  18.3519659  36.3182828 102.3954526  17.0781234  35.8899642
  97.6159681  20.4280734  43.1964745  97.4704261  20.7421037  44.0889026
  97.1384884  21.0465634  42.6435643  99.4756063  17.4183282  43.2445634
  99.4617632  16.5224375  42.9077932 100.1928492  17.4253946  43.8783920
 101.3282194  17.8520622  45.2898762 101.0699972  18.7737693  45.2883092
 100.7967234  17.4551057  45.9799226 106.2728383  30.9571409  38.0688847
 106.4465260  30.3917832  37.3162700 106.7657274  31.7572304  37.8868337
  92.0905343  22.9686078  46.1352406  91.5458811  23.7445886  46.2672680
  92.9684693  23.3156883  45.9771527  98.8792959  16.2997662  38.5133204
  99.0008871  15.3714308  38.7124092  98.5895002  16.3136348  37.6011520
 101.7484150  13.9852573  41.6499924 101.7705847  14.0491906  40.6951904
 102.1652209  13.1457081  41.8440430 112.1267774  23.7207832  39.6879147
 112.5698920  22.9715157  39.2898270 111.2494284  23.7117969  39.3052879
 107.2603555  30.2738174  35.1685745 107.9554460  30.8944866  35.3873060
 107.6026706  29.4233525  35.4438123  92.8771365  22.0955975  49.0282563
  92.1353101  22.2438610  49.6147193  92.5564109  22.3564240  48.1649312
 109.1594978  27.7237879  36.6973076 109.6846303  28.0625152  35.9722396
 109.0717331  26.7884894  36.5136211 100.8215027  31.6371953  48.8262953
 101.1302154  31.3921100  49.6985652 101.6190509  31.8418591  48.3381823
 100.8435639  33.7909862  41.0568329 100.4040630  33.2986241  41.7501186
 101.5943756  33.2482830  40.8160405  93.3227978  29.9821403  41.0592957
  94.1485998  29.6825175  40.6791601  92.9722030  29.2129026  41.5082746
  98.2909511  29.3347872  43.1290631  97.6689521  28.6718577  42.8292859
  98.9614378  29.3609003  42.4464279  91.5236583  27.9007730  42.0181891
  90.6868492  27.4729904  41.8365892  91.4960229  28.0940173  42.9552682
  98.3634039  17.8129660  52.7223137  98.4122194  18.6891782  52.3400907
  98.9056553  17.2707053  52.1494780 108.8488885  28.3570783  52.0024274
 108.0584428  28.3394922  51.4628773 108.6122239  28.8959077  52.7573311
 108.9686760  25.2063249  49.3157003 109.0184765  25.0413257  50.2572525
 108.8600683  24.3390508  48.9254883  97.8523018  27.8851795  36.6049092
  98.0011139  28.5687259  35.9515764  98.6589462  27.8656885  37.1198547
 106.2590522  21.1894177  50.6316309 107.1600385  21.0500642  50.3400307
 106.3338497  21.3548632  51.5714487 100.5933327  18.5661032  49.4769496
  99.7236637  18.8594598  49.2052084 100.8292808  19.1501477  50.1976759
 110.4704956  27.6260191  49.5599024 110.1789765  27.9890171  50.3962485
 109.8577088  26.9127199  49.3812356 111.6700639  25.1913070  42.0801594
 112.5047530  25.6302875  42.2439155 111.8059768  24.7151724  41.2609840
 108.7192145  22.7492805  48.0279082 109.1946266  22.9420452  47.2197934
 107.7957710  22.8051991  47.7822466  95.6075651  23.9116973  37.6110160
  95.3621693  23.0079303  37.8090371  95.7771566  23.9134123  36.6689638
 103.2972361  14.7840649  46.9934916 103.8154305  15.5201676  46.6681405
 102.9427494  15.0904642  47.8281675  94.8771299  19.6445330  35.1096322
  94.1840544  19.7189685  34.4536358  94.6323051  18.8805674  35.6317839
 103.5484955  11.2040931  42.5135813 103.8286709  10.5364120  43.1396239
 104.3335562  11.3970027  42.0010476 101.3518424  30.3799925  34.0760839
 100.7792391  30.9990112  33.6231311 101.9251217  30.9299287  34.6100761
 107.4193814  19.6258565  46.2607388 108.3711237  19.7256663  46.2819612
 107.2497264  18.8336834  46.7705472 105.4408193  16.7114149  46.4466789
 104.8458125  16.9919161  45.7513277 105.1557890  17.2008050  47.2183530
 104.5715684  30.6637075  35.2069421 105.5046357  30.5982637  35.4102297
 104.4838896  31.4993342  34.7483954 107.2003700  29.9802946  32.1673369
 107.1217332  29.6462809  33.0609127 108.0213367  30.4724714  32.1664841
 109.8981891  22.8464685  45.3749687 109.8658212  21.9080686  45.5609371
 110.5082515  22.9248722  44.6415512 101.7365222  21.7160738  31.4176891
 102.6824327  21.5866946  31.4865309 101.3579467  20.9775400  31.8946320
 110.0476380  19.6375729  45.4207971 109.5315429  18.8534185  45.2337899
 110.9316328  19.3094445  45.5854490 107.7087107  13.3816744  41.3803783
 107.5111928  13.0731832  42.2647115 108.3186812  14.1078383  41.5101713
 115.7158441  23.9080692  44.5155724 116.4461830  23.6465980  45.0763428
 115.1065387  23.1709414  44.5557792 113.7973738  22.0488555  45.1130175
 113.0706902  21.9144519  44.5046667 113.3821025  22.3565383  45.9186893
 101.6203915  25.7678484  52.8777548 102.5406924  25.9457083  53.0717595
 101.5853498  24.8234530  52.7257248  99.9208139  19.6410714  31.3531777
  99.0139595  19.3443827  31.4294490 100.1984120  19.3440533  30.4866063
  90.8386080  20.9617078  41.8030823  90.5188864  20.1082386  41.5105197
  90.2919508  21.1765656  42.5588790  94.6165987  23.6779519  45.5200330
  94.8351997  24.6096627  45.5388363  95.0291761  23.3187493  46.3055133
 101.5370205  14.1847604  37.5076018 100.7270934  13.8394689  37.8831264
 102.2254622  13.8755148  38.0963630 103.4660753  13.2625651  39.1300315
 104.0191792  13.6821104  39.7890338 103.7030840  12.3361399  39.1723271
  99.4893853  19.2512725  54.9103079  99.3890580  20.2007082  54.8415170
  99.2715395  18.9230964  54.0379149  98.6906924  16.4997650  31.4943756
  99.5526088  16.8252548  31.7539573  98.8757268  15.7129146  30.9816822
  90.7074340  24.5819989  43.7723945  90.0137811  24.1673942  43.2593899
  91.4547331  24.6240526  43.1757364 106.8439561  15.3726176  38.6378979
 106.2638230  16.0310980  38.2557031 106.5775493  14.5503521  38.2266396
 105.2943127  14.7731234  40.8400299 105.7942905  14.8847768  40.0314618
 105.9378735  14.4692287  41.4801108  99.3525123  22.6809863  53.7268140
  98.8692204  23.4810224  53.9332029  99.4386062  22.6917808  52.7735584
  92.6211082  24.5138243  41.6489960  92.5981770  24.6125930  40.6971843
  92.9311719  25.3603394  41.9707126  95.2798460  26.5714398  45.7636574
  96.2341714  26.5398341  45.6966506  95.0810984  26.1105022  46.5786800
  95.8697842  25.1415514  48.3307372  96.6890731  25.6359593  48.3542209
  96.1434650  24.2247482  48.3024939 105.6264439  17.5326267  37.6935327
 104.7390294  17.8175917  37.4755522 106.0418428  17.3720030  36.8462604
 108.9778975  17.5572788  41.4089666 109.7539365  18.0469240  41.6814283
 108.2527109  17.9830842  41.8661536 111.4151533  18.2700407  42.4663607
 112.0096024  18.0296143  41.7556915 111.4878117  17.5507537  43.0937143
  93.6348689  32.1134018  42.7806772  93.5003157  31.3534419  42.2144770
  93.2180751  32.8374918  42.3135561 104.7707652  27.2970941  31.7883347
 105.4743502  27.5020944  32.4041003 104.0470301  27.8647703  32.0532431
 105.6005462  23.0480802  37.9085617 105.5440664  23.5049354  37.0693250
 106.1533805  22.2871487  37.7308460 109.4110268  18.8370534  38.7335737
 109.1547202  18.4367170  39.5643944 108.7863136  19.5514328  38.6085876
 113.7222606  21.5766608  41.2407028 113.1622164  21.6459797  42.0138590
 113.1166109  21.4007592  40.5206524  96.7917815  33.0103335  42.9925214
  96.6750199  33.9548767  42.8903905  95.9710261  32.7076896  43.3811014
 106.6794349  27.7353470  33.8381807 107.5139953  27.3034669  33.6559282
 106.5178692  27.5635484  34.7658702 106.3340242  24.2385584  35.2038146
 106.2789045  24.0729855  34.2626591 105.7086297  24.9461617  35.3600336
  91.1232757  19.4753648  49.0299569  91.7691620  18.9652602  49.5186794
  90.9149908  20.2122330  49.6042994 103.6486149  26.5434496  54.5291709
 104.5177308  26.7175148  54.1678344 103.1692900  27.3628912  54.4067439
  99.6436367  13.7393693  34.7823465  99.6315037  14.6835533  34.9391736
 100.5359789  13.5563838  34.4882926  97.8172329  33.6631597  46.2081143
  98.7199576  33.6955207  46.5247638  97.5909699  32.7332048  46.2227479
  99.5725931  32.4162583  42.8691222  98.6221562  32.4164445  42.7555594
  99.8758417  31.6695318  42.3527256 103.4588487  10.3336469  39.0369402
 102.6920882   9.7794956  39.1826084 103.8699192  10.4058338  39.8983553
  95.4630248  16.6221265  53.1274583  96.3261709  16.2658070  53.3377907
  94.8895658  16.2835160  53.8149987 115.3078625  38.2523122  43.9336984
 115.9457035  38.1329869  43.2300324 115.1899467  39.2003965  43.9924936
 112.1168331  38.2050550  43.8698509 111.7786842  38.0891614  42.9819043
 112.9858099  37.8041715  43.8499515 107.9755147  40.0586026  39.8595400
 107.4120012  39.9675963  39.0911687 107.8607542  39.2385930  40.3397892
 112.5988114  39.3585401  49.8284714 112.5876755  38.9638200  48.9565218
 112.7608753  38.6251474  50.4218486 105.5219578  41.5537218  42.6979620
 106.3140870  41.2128042  42.2825919 105.7616229  41.6632193  43.6181773
 113.5554705  43.7256994  35.1709864 112.9042685  44.3111074  34.7843878
 114.3499068  44.2563189  35.2304902 107.4810332  40.8146131  35.5696999
 108.2541208  40.2675118  35.4309875 107.8335731  41.6790380  35.7811460
 109.3195375  42.1422513  48.7763898 109.0285241  43.0468144  48.6610564
 109.9552359  42.1839041  49.4907968 110.2451582  39.5199362  45.3665258
 110.8415154  39.2955384  44.6522221 110.3026553  38.7784107  45.9690706
 109.8176610  36.9738797  33.2015449 110.0702131  36.4520318  32.4398912
 108.8801169  36.8104942  33.3042132 114.8619893  35.9774575  41.0090192
 115.6482982  35.5593999  40.6580609 115.1258597  36.8820668  41.1771840
 115.0329970  41.4147426  35.7078849 114.3975803  41.4882052  36.4199753
 114.7027377  42.0041025  35.0297928 120.2628320  35.9149809  41.9123170
 120.9953492  35.3449025  42.1461000 119.5067676  35.5271409  42.3529676
 109.5372899  38.8766903  35.4039824 109.4209157  38.2011806  36.0720908
 109.6475159  38.3899277  34.5871977 111.8804440  38.3377050  39.1086513
 111.5162647  37.8107671  39.8199434 112.7371556  37.9475519  38.9352998
 117.7853741  29.6271383  46.3717779 117.4537065  30.4966794  46.1478994
 117.1899354  29.3107667  47.0511809 111.5209927  33.3666950  34.1047861
 111.6884329  34.2347186  34.4718332 111.3307096  33.5294231  33.1809151
 114.2785260  41.8283929  45.7713692 113.9785983  42.7308967  45.6629499
 113.9336320  41.5616112  46.6234845 107.7297742  38.2797726  41.8050396
 106.8048238  38.1473940  42.0128088 107.9782155  39.0591945  42.3020339
 117.6782404  34.3466469  43.4511129 116.7699281  34.2781877  43.1569890
 117.6270000  34.8238414  44.2792955 111.4999148  35.8224607  35.0894528
 111.3798773  36.2681658  35.9280009 110.8051736  36.1709925  34.5308066
 105.0906553  37.9230999  42.6394185 105.2198934  38.1765478  43.5533597
 104.4104004  38.5158707  42.3198840 109.2606040  48.5928249  38.7384659
 109.1830070  49.5436074  38.8173140 108.6567683  48.2474122  39.3959586
 111.7523270  35.7656114  51.3946026 110.9756604  36.3250035  51.3848891
 112.3913833  36.2512897  51.9160896 119.5444050  32.5482907  45.2289003
 118.9018430  32.8415440  44.5828798 119.0398979  32.4335828  46.0342200
 117.1984214  36.2946080  35.9174862 118.1102070  36.5273467  35.7422560
 116.6893861  36.8783125  35.3549941 110.0069642  38.5741568  50.9563993
 110.7484326  39.1126612  50.6798817 109.3006627  39.2007857  51.1135545
 115.4824982  40.7170708  49.5536155 115.8908338  40.2753119  48.8090787
 114.7602243  40.1423336  49.8070348 111.8356052  35.6543315  46.9269712
 112.6817247  36.0782729  47.0704361 111.7754689  34.9976939  47.6208275
 115.8053796  41.2771899  43.3088444 115.1762659  41.4417613  42.6064512
 115.4179458  41.6913508  44.0799408 119.6843028  42.2126337  40.6632808
 118.9994066  42.5925238  40.1129841 119.7686877  42.8221663  41.3964755
 114.9855497  33.3147683  48.5850885 114.7416429  34.0689744  48.0485161
 115.2615427  33.6933031  49.4198133 116.9393960  39.8586296  47.2628151
 117.1510855  40.5018056  46.5862532 116.8923708  39.0248612  46.7950081
 114.5420189  32.4704116  44.1664723 113.6804668  32.7685370  44.4581461
 114.5682623  32.6874515  43.2345756 111.3581758  41.0146307  40.5738529
 111.8220104  41.2934010  39.7843151 111.0938556  40.1129752  40.3911620
 108.2505839  40.5617789  43.5118292 108.8207196  40.9905057  42.8735777
 108.8413951  40.2800373  44.2102478 110.2950644  37.1369459  37.3828094
 110.9974687  37.5890503  37.8502020 109.9631273  36.4953278  38.0107987
 108.7431006  35.7281216  51.7579303 108.1129666  36.4097497  51.9914700
 108.6367094  35.6164298  50.8132442 104.0375978  35.3953012  42.6845228
 103.2475032  35.6510541  42.2085338 104.5287225  36.2101350  42.7897268
 118.0539788  42.7358251  45.4350508 118.8757231  42.3338438  45.1533190
 118.0502191  42.6326485  46.3866624 105.9890723  35.7597591  39.6428704
 105.1921887  35.8716286  40.1612200 105.7616316  36.0984243  38.7769595
 111.8196391  42.2842294  47.5911219 111.8840824  42.7462702  48.4269391
 111.1107315  41.6539659  47.7193529 102.3213681  35.6483502  45.1160218
 102.5721720  36.5330512  45.3817794 102.8573229  35.4688104  44.3435310
 126.1445781  39.0797000  41.7835480 125.3909489  38.5104398  41.6279484
 126.2793322  39.0459664  42.7306115 111.5344409  43.9510402  37.4590199
 111.3990084  44.7961938  37.8875047 112.0754221  44.1529680  36.6956133
 108.0211748  30.0301982  54.1204554 107.6278694  29.4768180  54.7952199
 108.8377889  30.3412560  54.5111072 104.9873806  41.4685840  38.0318124
 105.4998327  42.2629090  38.1823689 105.6396519  40.7712130  37.9651726
 106.7968691  44.5851596  40.1140877 106.9735319  45.5069561  39.9261861
 107.5925524  44.2710015  40.5435257 110.9379709  31.4459861  51.7124811
 111.6789423  32.0467014  51.6329273 111.1697632  30.7037499  51.1542854
 106.0821047  36.6316228  49.9903041 105.9674563  35.7301485  50.2910140
 105.2265565  36.8779925  49.6387857 113.1612885  44.5733968  51.5890541
 112.7176739  43.7870347  51.2711446 113.8230099  44.7613119  50.9234432
 107.9200006  46.1029770  46.1151220 108.4707431  45.9746833  45.3428214
 107.0811482  46.4024659  45.7646113 115.2594123  44.8536768  49.6171943
 115.2412599  45.6745649  49.1252212 116.1814043  44.7290844  49.8422084
 111.7167177  42.3680898  50.4595451 112.2495514  41.6069186  50.2294759
 111.1881258  42.0754550  51.2019605 114.8836872  27.4740964  45.9889093
 114.5401142  28.3642606  45.9128203 115.2515835  27.2842621  45.1258678
 102.9522723  39.7974494  38.8077695 103.7897945  40.2071503  38.5911403
 103.1300991  38.8573936  38.7777889 114.8487155  37.4649575  34.4961528
 114.3333778  38.2354180  34.7349915 114.5764464  36.7914711  35.1194589
 112.4334266  32.3099276  39.5546766 111.5775862  31.9206126  39.3752405
 112.8461218  32.3891237  38.6946552 113.9633413  29.8445619  43.9538326
 113.4598208  29.8075754  43.1406131 114.2564020  30.7538362  44.0134983
 110.2076299  29.9284349  42.9604508 111.0729295  29.7327157  42.6010397
 110.2753808  29.6994700  43.8873864 119.8221429  40.2181930  36.4314701
 119.0450872  39.8793089  35.9869863 120.5012910  40.2234553  35.7569666
 114.6373458  35.3376667  36.3221309 114.3323594  35.6522816  37.1731452
 115.5903900  35.4158087  36.3648642 113.0819890  41.4966890  37.9714263
 112.5541252  40.7619650  37.6587500 112.5807393  42.2741567  37.7254231
 118.0612736  39.6915911  43.0881309 117.4036411  40.3815172  43.1761438
 118.8653135  40.0812343  43.4315296 107.8138618  32.1586557  40.3320874
 108.3882370  31.9361738  39.5994067 108.4009600  32.2275251  41.0849476
 116.8718195  38.0460284  41.1385251 117.3850077  38.6790275  41.6406961
 117.5219419  37.4461479  40.7728611 108.1408205  34.1891018  34.3516760
 107.3045517  34.5265704  34.6726034 108.0012974  34.0539997  33.4143897
 110.1161285  29.0327806  39.0595944 109.4625698  28.7176823  38.4352559
 110.0741760  28.4103546  39.7855767 111.2272490  39.3147101  30.9749236
 110.3199552  39.0836354  31.1740385 111.7243522  38.5184720  31.1623218
 114.1340569  48.0244608  33.8945922 113.4602268  48.3276305  34.5030880
 114.5206391  48.8273688  33.5451379 113.3499026  35.5209739  43.3843592
 112.4321587  35.7424686  43.2265280 113.7659169  35.5956050  42.5255299
 114.1334074  36.9201155  38.5146272 114.8805892  37.4322552  38.2053394
 114.4025663  36.5985207  39.3750665 112.4060724  39.4159695  35.4973226
 111.4971943  39.1318728  35.5945696 112.4355807  39.8358774  34.6376533
 117.6379991  43.0266285  39.2664394 117.1842318  42.1857195  39.3229584
 117.0073958  43.6627683  39.6039174 116.5812911  33.9558271  40.4965061
 115.8435667  33.4435657  40.8275304 116.8339684  33.5158653  39.6848338
 116.0812930  44.8642782  40.2014212 116.3735905  45.4247839  39.4826577
 116.5911551  45.1571343  40.9567371 116.6824538  26.7334523  41.0906830
 116.9883415  25.8731886  40.8032745 117.4077143  27.3252143  40.8905824
 102.9748894  37.1365210  39.4788428 102.7773294  36.5434570  38.7539495
 102.4195558  36.8317420  40.1964367 110.9545618  37.0288316  41.5983021
 111.0094228  36.0762152  41.5225498 110.1436820  37.1847755  42.0824320
 112.1036811  40.9568439  32.8361305 111.6656241  40.2404298  32.3766942
 112.8447252  41.1844554  32.2746396 108.8937978  35.6465376  39.3573400
 108.0805843  35.9459546  39.7638592 109.3896972  35.2521065  40.0747883
 111.0446556  45.6423133  41.2907665 111.0022734  45.8683979  40.3616197
 111.9609254  45.4086507  41.4393466 114.4912189  36.1107200  48.1888294
 114.8461577  36.3378673  49.0482760 115.1384321  36.4425577  47.5665549
 120.2209926  39.2325636  38.8937623 120.0827825  39.4227232  37.9658812
 119.8646145  39.9945019  39.3505674 108.3852052  33.2183731  44.9734635
 109.0251432  33.0772490  44.2757599 107.5529583  32.9318245  44.5973237
 120.2479306  41.3002163  43.9048895 120.6815813  41.2077452  44.7531949
 120.9610887  41.2759664  43.2668911 109.1612356  42.5186162  41.0869628
 109.9552955  42.0236482  40.8852203 108.4504049  41.9904025  40.7237333
 113.9807201  44.9004257  45.4381995 114.0344223  45.4695194  46.2059711
 113.1121982  45.0706142  45.0736032 105.4695120  36.6629244  37.1629380
 104.5392708  36.6013699  37.3799343 105.5652592  36.1405196  36.3666022
 105.3880669  33.1884056  39.7507622 105.6487486  34.1029390  39.6416783
 106.2097841  32.7208499  39.9004235 106.8605594  34.6021814  46.9206447
 107.5328648  34.3939176  46.2719095 106.0335381  34.4043900  46.4811679
 121.1094855  41.3425864  46.4381780 121.3030746  42.2471674  46.6841055
 121.0095474  40.8833283  47.2720365 112.7631166  31.2283754  48.9372107
 112.1159081  31.9273704  48.8436584 113.5332182  31.6619898  49.3048356
 116.1709964  41.4932607  52.0122661 116.0195471  41.2643158  51.0952744
 116.1614644  42.4503208  52.0254006 112.9395301  39.0664519  46.9968927
 113.8687361  39.2175679  46.8237894 112.5186331  39.1548540  46.1417574
 111.7383632  43.0915184  44.7667465 111.5994718  42.7233968  45.6393403
 110.9498229  43.6062823  44.5951423 112.3331784  48.1924280  36.1093001
 112.5083540  47.7212323  36.9238624 111.6464572  48.8190046  36.3374262
 113.2888847  42.4696786  42.1556303 112.9538680  42.4297556  43.0513952
 112.7892793  41.8041502  41.6826713 107.2633091  37.8764416  47.6808884
 107.1252889  37.1444655  48.2820423 108.1738015  37.7873317  47.3993071
 116.2248039  39.8152821  32.4293362 115.6077210  39.0899649  32.3326415
 115.7564528  40.5762181  32.0860436 109.8915392  37.5884376  47.1692563
 110.6015011  36.9477568  47.1279182 109.8484700  37.8397271  48.0918744
 117.8802171  44.5251729  50.0899143 117.8214717  43.8410949  49.4229726
 118.2821689  45.2670719  49.6379769 108.6044326  34.5749594  48.9888203
 108.0681683  34.1240332  49.6409799 108.0161035  34.7095503  48.2458667
 106.8992870  51.3413643  42.8832861 107.1389468  51.9732167  43.5611880
 106.0562066  50.9901683  43.1698221 108.0146585  34.0338245  31.5514667
 107.1376051  33.9127046  31.1876913 108.4904338  33.2424323  31.2993555
 117.8819578  42.4891313  48.3213122 116.9946357  42.1517235  48.4439521
 118.4518129  41.7574344  48.5581888  99.5348725  38.8215405  41.6456174
 100.2219765  38.5077135  41.0577189  99.3796854  39.7256769  41.3723425
 104.3383447  33.7105601  46.0741197 104.2541636  33.1031271  45.3391607
 103.5166154  34.2014620  46.0750694 111.4120731  47.1492765  45.2874365
 111.3390903  47.9547737  45.7993670 110.9698125  47.3484731  44.4622387
 111.2010511  46.3864535  38.7977187 110.4178033  46.9286216  38.8915412
 111.9003256  46.9038515  39.1971428 114.5107161  32.1959165  41.4411392
 115.0075861  31.4429127  41.1212463 113.7394143  32.2323482  40.8754602
 122.3636919  37.8999530  43.0829684 122.3526795  38.7824246  42.7123617
 121.4954298  37.5471081  42.8884221 113.8719415  47.0479599  47.4432524
 114.5847387  47.6827064  47.3708426 113.3809444  47.1443465  46.6272526
 115.5936942  40.9530852  39.0149816 114.6593221  41.0732315  38.8454520
 115.7713610  40.0503319  38.7509826 111.0942130  34.3376548  41.1683077
 110.7239917  33.7847588  41.8563983 111.5901222  33.7334681  40.6158077
 118.9809493  36.7948171  39.5499850 119.4469945  37.6276163  39.4760153
 119.4316994  36.3293153  40.2545108 108.9231328  44.7974043  48.2638095
 109.6240788  45.4310526  48.4167489 108.4526443  45.1388774  47.5033734
 117.0485724  43.1391993  36.5486002 117.3245568  43.0248587  37.4579876
 116.1790223  42.7409478  36.5098175 116.9526156  29.1628758  43.5890751
 116.0389236  29.3932985  43.7572958 117.3819257  29.2467202  44.4404784
 116.7232614  37.3518650  46.0890645 116.0704065  37.5994558  45.4343098
 117.1012994  36.5382789  45.7553123 113.6839788  47.3878344  40.1918816
 113.8662183  46.5700000  40.6546568 114.5072774  47.6046036  39.7543706
 114.0181954  46.3146529  37.4533864 114.5469720  45.8038983  36.8404026
 114.2810173  45.9989059  38.3179397 112.7720187  38.0938461  52.5756682
 112.0960824  37.9932591  53.2459058 113.5947821  37.9377675  53.0392680
 104.5199047  44.3310398  45.1969198 105.1052483  43.5854086  45.3297102
 104.3223885  44.6414355  46.0805862 107.3737702  47.3661645  40.2131640
 106.7048077  47.8507773  39.7295680 107.2350571  47.6130866  41.1275019
  99.1116701  36.9015998  43.9173641  99.1500801  36.3679589  44.7110759
  98.6056994  36.3751204  43.2984618 111.5142970  49.4005389  46.8114298
 112.0661278  49.5637010  47.5763384 111.8549164  49.9909827  46.1394323
 106.4907464  31.7480539  47.4136183 106.5548790  32.6095370  47.0013581
 106.4274584  31.1354540  46.6808542 105.9659736  33.8203671  51.0609217
 106.5931775  33.4380749  51.6746742 105.1087655  33.6017873  51.4264910
 116.3653845  44.2266646  52.6662953 116.9093749  44.8396605  52.1717908
 115.7840690  44.7846225  53.1829966 102.7425279  35.6280100  36.9927572
 103.0378720  34.7190779  36.9394626 101.8413315  35.6067840  36.6708575
 114.6511358  47.3487364  43.7977981 114.5262497  46.5477104  43.2888926
 115.3090449  47.8433558  43.3091951 106.2719526  33.7036097  42.9755121
 105.5506112  34.3172065  42.8362594 107.0612782  34.2393862  42.8971767
 116.7146266  45.1496385  45.4257531 115.7676602  45.0301736  45.3535857
 117.0629039  44.2618883  45.5083792 109.0745839  31.0390523  49.2495773
 109.5980241  31.2852820  50.0122082 108.8558173  31.8710558  48.8298910
 104.4713120  33.3094198  37.1166897 104.1425827  32.4291577  36.9342003
 104.8252491  33.2541867  38.0043287 113.7192699  44.9449101  41.6261883
 113.5717662  44.0165808  41.8069453 114.5446193  44.9669191  41.1418958
 107.5854944  33.5967168  37.4842375 107.9251016  34.1253089  36.7620983
 108.0327064  33.9347574  38.2600942 117.3226821  45.7677659  42.7126756
 118.2473369  45.5620521  42.5751207 117.1542125  45.5194061  43.6216097
 110.2798384  31.9804219  46.9345443 109.9395205  31.1812032  47.3366123
 109.5737391  32.2805929  46.3622276 110.9314856  29.0653531  45.3872766
 111.7540926  28.5914009  45.2651656 111.1752920  29.8444015  45.8871452
 109.5723091  32.0941789  35.6835668 110.2931453  32.4723042  35.1799385
 108.9488395  32.8130666  35.7870646 113.7154214  32.7986938  36.6194000
 113.9317828  33.6811576  36.3182828 113.2348281  32.4073152  35.8899642
 108.4553435  35.7572652  43.1964745 108.3098016  36.0712955  44.0889026
 107.9778639  36.3757552  42.6435643 110.3149818  32.7475200  43.2445634
 110.3011387  31.8516293  42.9077932 111.0322246  32.7545863  43.8783920
 112.1675949  33.1812540  45.2898762 111.9093726  34.1029610  45.2883092
 111.6360989  32.7842974  45.9799226 117.1122137  46.2863327  38.0688847
 117.2859015  45.7209749  37.3162700 117.6051029  47.0864222  37.8868337
 102.9299097  38.2977996  46.1352406 102.3852565  39.0737804  46.2672680
 103.8078447  38.6448800  45.9771527 109.7186714  31.6289580  38.5133204
 109.8402625  30.7006226  38.7124092 109.4288756  31.6428266  37.6011520
 112.5877904  29.3144490  41.6499924 112.6099601  29.3783823  40.6951904
 113.0045963  28.4748999  41.8440430 122.9661529  39.0499750  39.6879147
 123.4092675  38.3007075  39.2898270 122.0888039  39.0409886  39.3052879
 118.0997310  45.6030091  35.1685745 118.7948214  46.2236784  35.3873060
 118.4420460  44.7525443  35.4438123 103.7165119  37.4247892  49.0282563
 102.9746855  37.5730528  49.6147193 103.3957863  37.6856158  48.1649312
 119.9988733  43.0529797  36.6973076 120.5240057  43.3917070  35.9722396
 119.9111086  42.1176812  36.5136211 111.6608782  46.9663870  48.8262953
 111.9695908  46.7213017  49.6985652 112.4584264  47.1710509  48.3381823
 111.6829394  49.1201780  41.0568329 111.2434384  48.6278159  41.7501186
 112.4337511  48.5774748  40.8160405 104.1621733  45.3113321  41.0592957
 104.9879753  45.0117093  40.6791601 103.8115785  44.5420943  41.5082746
 109.1303266  44.6639789  43.1290631 108.5083275  44.0010494  42.8292859
 109.8008133  44.6900921  42.4464279 102.3630338  43.2299647  42.0181891
 101.5262246  42.8021822  41.8365892 102.3353983  43.4232091  42.9552682
 109.2027793  33.1421577  52.7223137 109.2515949  34.0183700  52.3400907
 109.7450308  32.5998970  52.1494780 119.6882639  43.6862700  52.0024274
 118.8978183  43.6686839  51.4628773 119.4515994  44.2250994  52.7573311
 119.8080514  40.5355167  49.3157003 119.8578519  40.3705174  50.2572525
 119.6994437  39.6682426  48.9254883 108.6916773  43.2143713  36.6049092
 108.8404893  43.8979177  35.9515764 109.4983216  43.1948803  37.1198547
 117.0984276  36.5186095  50.6316309 117.9994139  36.3792560  50.3400307
 117.1732251  36.6840550  51.5714487 111.4327082  33.8952950  49.4769496
 110.5630391  34.1886516  49.2052084 111.6686562  34.4793395  50.1976759
 121.3098711  42.9552108  49.5599024 121.0183519  43.3182089  50.3962485
 120.6970842  42.2419117  49.3812356 122.5094393  40.5204988  42.0801594
 123.3441285  40.9594792  42.2439155 122.6453522  40.0443641  41.2609840
 119.5585899  38.0784723  48.0279082 120.0340021  38.2712369  47.2197934
 118.6351465  38.1343909  47.7822466 106.4469406  39.2408890  37.6110160
 106.2015448  38.3371220  37.8090371 106.6165320  39.2426041  36.6689638
 114.1366116  30.1132567  46.9934916 114.6548060  30.8493593  46.6681405
 113.7821248  30.4196560  47.8281675 105.7165053  34.9737248  35.1096322
 105.0234298  35.0481603  34.4536358 105.4716805  34.2097591  35.6317839
 114.3878710  26.5332849  42.5135813 114.6680464  25.8656038  43.1396239
 115.1729317  26.7261945  42.0010476 112.1912178  45.7091843  34.0760839
 111.6186145  46.3282030  33.6231311 112.7644972  46.2591205  34.6100761
 118.2587568  34.9550483  46.2607388 119.2104991  35.0548581  46.2819612
 118.0891019  34.1628752  46.7705472 116.2801948  32.0406066  46.4466789
 115.6851880  32.3211079  45.7513277 115.9951644  32.5299967  47.2183530
 115.4109438  45.9928993  35.2069421 116.3440111  45.9274555  35.4102297
 115.3232651  46.8285260  34.7483954 118.0397455  45.3094863  32.1673369
 117.9611086  44.9754727  33.0609127 118.8607122  45.8016631  32.1664841
 120.7375646  38.1756603  45.3749687 120.7051966  37.2372604  45.5609371
 121.3476270  38.2540639  44.6415512 112.5758977  37.0452656  31.4176891
 113.5218082  36.9158864  31.4865309 112.1973222  36.3067318  31.8946320
 120.8870134  34.9667646  45.4207971 120.3709183  34.1826103  45.2337899
 121.7710083  34.6386363  45.5854490 118.5480861  28.7108662  41.3803783
 118.3505682  28.4023750  42.2647115 119.1580567  29.4370301  41.5101713
 126.5552196  39.2372610  44.5155724 127.2855584  38.9757898  45.0763428
 125.9459141  38.5001332  44.5557792 124.6367493  37.3780472  45.1130175
 123.9100657  37.2436437  44.5046667 124.2214780  37.6857301  45.9186893
 112.4597669  41.0970402  52.8777548 113.3800679  41.2749001  53.0717595
 112.4247252  40.1526447  52.7257248 110.7601894  34.9702632  31.3531777
 109.8533349  34.6735745  31.4294490 111.0377875  34.6732450  30.4866063
 101.6779834  36.2908996  41.8030823 101.3582619  35.4374304  41.5105197
 101.1313263  36.5057574  42.5588790 105.4559742  39.0071437  45.5200330
 105.6745752  39.9388544  45.5388363 105.8685516  38.6479411  46.3055133
 112.3763960  29.5139522  37.5076018 111.5664688  29.1686607  37.8831264
 113.0648377  29.2047066  38.0963630 114.3054508  28.5917569  39.1300315
 114.8585547  29.0113022  39.7890338 114.5424594  27.6653317  39.1723271
 110.3287607  34.5804642  54.9103079 110.2284334  35.5298999  54.8415170
 110.1109149  34.2522881  54.0379149 109.5300679  31.8289567  31.4943756
 110.3919843  32.1544466  31.7539573 109.7151023  31.0421063  30.9816822
 101.5468094  39.9111907  43.7723945 100.8531566  39.4965860  43.2593899
 102.2941085  39.9532444  43.1757364 117.6833315  30.7018094  38.6378979
 117.1031984  31.3602898  38.2557031 117.4169248  29.8795438  38.2266396
 116.1336881  30.1023152  40.8400299 116.6336660  30.2139686  40.0314618
 116.7772489  29.7984204  41.4801108 110.1918877  38.0101781  53.7268140
 109.7085959  38.8102141  53.9332029 110.2779816  38.0209726  52.7735584
 103.4604837  39.8430161  41.6489960 103.4375525  39.9417848  40.6971843
 103.7705473  40.6895312  41.9707126 106.1192215  41.9006316  45.7636574
 107.0735468  41.8690258  45.6966506 105.9204738  41.4396940  46.5786800
 106.7091597  40.4707432  48.3307372 107.5284486  40.9651511  48.3542209
 106.9828405  39.5539400  48.3024939 116.4658193  32.8618184  37.6935327
 115.5784048  33.1467835  37.4755522 116.8812182  32.7011948  36.8462604
 119.8172729  32.8864705  41.4089666 120.5933119  33.3761158  41.6814283
 119.0920863  33.3122759  41.8661536 122.2545288  33.5992324  42.4663607
 122.8489779  33.3588060  41.7556915 122.3271872  32.8799455  43.0937143
 104.4742444  47.4425935  42.7806772 104.3396911  46.6826336  42.2144770
 104.0574506  48.1666835  42.3135561 115.6101407  42.6262859  31.7883347
 116.3137257  42.8312861  32.4041003 114.8864055  43.1939621  32.0532431
 116.4399217  38.3772720  37.9085617 116.3834418  38.8341272  37.0693250
 116.9927559  37.6163405  37.7308460 120.2504023  34.1662452  38.7335737
 119.9940957  33.7659088  39.5643944 119.6256891  34.8806246  38.6085876
 124.5616361  36.9058525  41.2407028 124.0015919  36.9751715  42.0138590
 123.9559864  36.7299510  40.5206524 107.6311569  48.3395252  42.9925214
 107.5143954  49.2840685  42.8903905 106.8104016  48.0368814  43.3811014
 117.5188104  43.0645388  33.8381807 118.3533708  42.6326587  33.6559282
 117.3572447  42.8927402  34.7658702 117.1733996  39.5677501  35.2038146
 117.1182800  39.4021773  34.2626591 116.5480051  40.2753534  35.3600336
 101.9626511  34.8045566  49.0299569 102.6085375  34.2944520  49.5186794
 101.7543662  35.5414247  49.6042994 114.4879903  41.8726413  54.5291709
 115.3571063  42.0467066  54.1678344 114.0086655  42.6920830  54.4067439
 110.4830122  29.0685610  34.7823465 110.4708791  30.0127450  34.9391736
 111.3753543  28.8855756  34.4882926 108.6566084  48.9923514  46.2081143
 109.5593330  49.0247125  46.5247638 108.4303454  48.0623965  46.2227479
 110.4119686  47.7454501  42.8691222 109.4615317  47.7456362  42.7555594
 110.7152172  46.9987235  42.3527256 114.2982241  25.6628387  39.0369402
 113.5314637  25.1086874  39.1826084 114.7092946  25.7350256  39.8983553
 106.3024002  31.9513183  53.1274583 107.1655464  31.5949988  53.3377907
 105.7289413  31.6127078  53.8149987 126.1472379  53.5815039  43.9336984
 126.7850789  53.4621787  43.2300324 126.0293222  54.5295883  43.9924936
 122.9562085  53.5342467  43.8698509 122.6180597  53.4183532  42.9819043
 123.8251854  53.1333632  43.8499515 118.8148901  55.3877944  39.8595400
 118.2513766  55.2967881  39.0911687 118.7001296  54.5677848  40.3397892
 123.4381868  54.6877319  49.8284714 123.4270509  54.2930117  48.9565218
 123.6002508  53.9543392  50.4218486 124.3948460  59.0548911  35.1709864
 123.7436439  59.6402992  34.7843878 125.1892823  59.5855106  35.2304902
 118.3204087  56.1438049  35.5696999 119.0934963  55.5967036  35.4309875
 118.6729486  57.0082298  35.7811460 121.0845336  54.8491279  45.3665258
 121.6808909  54.6247302  44.6522221 121.1420308  54.1076025  45.9690706
 120.6570365  52.3030715  33.2015449 120.9095885  51.7812236  32.4398912
 119.7194924  52.1396860  33.3042132 125.7013648  51.3066493  41.0090192
 126.4876737  50.8885916  40.6580609 125.9652352  52.2112585  41.1771840
 125.8723725  56.7439343  35.7078849 125.2369558  56.8173970  36.4199753
 125.5421131  57.3332942  35.0297928 131.1022075  51.2441726  41.9123170
 131.8347247  50.6740943  42.1461000 130.3461430  50.8563327  42.3529676
 120.3766653  54.2058821  35.4039824 120.2602912  53.5303724  36.0720908
 120.4868913  53.7191195  34.5871977 122.7198194  53.6668968  39.1086513
 122.3556402  53.1399589  39.8199434 123.5765310  53.2767437  38.9352998
 128.6247495  44.9563300  46.3717779 128.2930820  45.8258711  46.1478994
 128.0293108  44.6399584  47.0511809 122.3603681  48.6958867  34.1047861
 122.5278084  49.5639104  34.4718332 122.1700850  48.8586149  33.1809151
 125.1179015  57.1575846  45.7713692 124.8179738  58.0600885  45.6629499
 124.7730074  56.8908030  46.6234845 118.5691496  53.6089643  41.8050396
 117.6441992  53.4765857  42.0128088 118.8175909  54.3883862  42.3020339
 128.5176158  49.6758387  43.4511129 127.6093036  49.6073795  43.1569890
 128.4663754  50.1530331  44.2792955 122.3392902  51.1516525  35.0894528
 122.2192527  51.5973576  35.9280009 121.6445491  51.5001843  34.5308066
 115.9300307  53.2522917  42.6394185 116.0592688  53.5057396  43.5533597
 115.2497758  53.8450625  42.3198840 120.0999794  63.9220167  38.7384659
 120.0223824  64.8727992  38.8173140 119.4961438  63.5766039  39.3959586
 122.5917024  51.0948032  51.3946026 121.8150358  51.6541952  51.3848891
 123.2307587  51.5804815  51.9160896 130.3837805  47.8774825  45.2289003
 129.7412185  48.1707358  44.5828798 129.8792733  47.7627745  46.0342200
 128.0377968  51.6237998  35.9174862 128.9495825  51.8565385  35.7422560
 127.5287615  52.2075042  35.3549941 120.8463396  53.9033485  50.9563993
 121.5878081  54.4418529  50.6798817 120.1400382  54.5299774  51.1135545
 126.3218736  56.0462626  49.5536155 126.7302092  55.6045036  48.8090787
 125.5995998  55.4715253  49.8070348 122.6749806  50.9835233  46.9269712
 123.5211001  51.4074646  47.0704361 122.6148444  50.3268857  47.6208275
 126.6447551  56.6063817  43.3088444 126.0156413  56.7709531  42.6064512
 126.2573213  57.0205426  44.0799408 130.5236783  57.5418254  40.6632808
 129.8387821  57.9217156  40.1129841 130.6080632  58.1513581  41.3964755
 125.8249251  48.6439601  48.5850885 125.5810183  49.3981662  48.0485161
 126.1009182  49.0224949  49.4198133 127.7787714  55.1878213  47.2628151
 127.9904609  55.8309973  46.5862532 127.7317462  54.3540530  46.7950081
 125.3813943  47.7996034  44.1664723 124.5198422  48.0977288  44.4581461
 125.4076378  48.0166433  43.2345756 122.1975513  56.3438225  40.5738529
 122.6613858  56.6225928  39.7843151 121.9332311  55.4421669  40.3911620
 121.1344399  52.4661377  37.3828094 121.8368442  52.9182421  37.8502020
 120.8025027  51.8245196  38.0107987 119.5824760  51.0573134  51.7579303
 118.9523421  51.7389415  51.9914700 119.4760848  50.9456215  50.8132442
 114.8769733  50.7244930  42.6845228 114.0868787  50.9802458  42.2085338
 115.3680980  51.5393268  42.7897268 128.8933542  58.0650169  45.4350508
 129.7150986  57.6630356  45.1533190 128.8895945  57.9618403  46.3866624
 116.8284478  51.0889509  39.6428704 116.0315641  51.2008203  40.1612200
 116.6010070  51.4276161  38.7769595 113.1607436  50.9775420  45.1160218
 113.4115474  51.8622430  45.3817794 113.6966984  50.7980022  44.3435310
 136.9839535  54.4088917  41.7835480 136.2303244  53.8396315  41.6279484
 137.1187076  54.3751582  42.7306115 122.3738163  59.2802320  37.4590199
 122.2383838  60.1253855  37.8875047 122.9147976  59.4821597  36.6956133
 118.8605503  45.3593899  54.1204554 118.4672448  44.8060098  54.7952199
 119.6771643  45.6704478  54.5111072 115.8267561  56.7977758  38.0318124
 116.3392081  57.5921008  38.1823689 116.4790273  56.1004048  37.9651726
 117.6362445  59.9143514  40.1140877 117.8129074  60.8361479  39.9261861
 118.4319279  59.6001933  40.5435257 121.7773464  46.7751779  51.7124811
 122.5183177  47.3758932  51.6329273 122.0091387  46.0329416  51.1542854
 116.9214802  51.9608146  49.9903041 116.8068317  51.0593403  50.2910140
 116.0659320  52.2071843  49.6387857 124.0006640  59.9025886  51.5890541
 123.5570494  59.1162265  51.2711446 124.6623853  60.0905037  50.9234432
 126.0987878  60.1828686  49.6171943 126.0806353  61.0037567  49.1252212
 127.0207798  60.0582761  49.8422084 125.7230627  42.8032882  45.9889093
 125.3794896  43.6934523  45.9128203 126.0909589  42.6134539  45.1258678
 113.7916477  55.1266412  38.8077695 114.6291699  55.5363420  38.5911403
 113.9694745  54.1865854  38.7777889 125.6880910  52.7941493  34.4961528
 125.1727533  53.5646097  34.7349915 125.4158218  52.1206629  35.1194589
 123.2728021  47.6391193  39.5546766 122.4169617  47.2498044  39.3752405
 123.6854972  47.7183154  38.6946552 124.8027167  45.1737537  43.9538326
 124.2991963  45.1367672  43.1406131 125.0957774  46.0830279  44.0134983
 121.0470053  45.2576266  42.9604508 121.9123050  45.0619075  42.6010397
 121.1147562  45.0286618  43.8873864 130.6615184  55.5473847  36.4314701
 129.8844626  55.2085007  35.9869863 131.3406665  55.5526470  35.7569666
 125.4767213  50.6668585  36.3221309 125.1717348  50.9814734  37.1731452
 126.4297655  50.7450005  36.3648642 123.9213645  56.8258808  37.9714263
 123.3935006  56.0911568  37.6587500 123.4201147  57.6033484  37.7254231
 128.9006491  55.0207829  43.0881309 128.2430165  55.7107090  43.1761438
 129.7046890  55.4104260  43.4315296 118.6532372  47.4878474  40.3320874
 119.2276124  47.2653656  39.5994067 119.2403355  47.5567169  41.0849476
 127.7111949  53.3752201  41.1385251 128.2243831  54.0082193  41.6406961
 128.3613173  52.7753397  40.7728611 118.9801959  49.5182935  34.3516760
 118.1439272  49.8557622  34.6726034 118.8406729  49.3831915  33.4143897
 120.9555040  44.3619723  39.0595944 120.3019452  44.0468740  38.4352559
 120.9135514  43.7395464  39.7855767 122.0666245  54.6439018  30.9749236
 121.1593306  54.4128272  31.1740385 122.5637277  53.8476638  31.1623218
 124.9734324  63.3536525  33.8945922 124.2996022  63.6568222  34.5030880
 125.3600146  64.1565606  33.5451379 124.1892780  50.8501657  43.3843592
 123.2715342  51.0716604  43.2265280 124.6052924  50.9247967  42.5255299
 124.9727828  52.2493072  38.5146272 125.7199647  52.7614470  38.2053394
 125.2419418  51.9277125  39.3750665 123.2454478  54.7451613  35.4973226
 122.3365697  54.4610646  35.5945696 123.2749562  55.1650692  34.6376533
 128.4773746  58.3558203  39.2664394 128.0236073  57.5149113  39.3229584
 127.8467712  58.9919601  39.6039174 127.4206665  49.2850189  40.4965061
 126.6829422  48.7727575  40.8275304 127.6733439  48.8450570  39.6848338
 126.9206685  60.1934699  40.2014212 127.2129659  60.7539756  39.4826577
 127.4305305  60.4863260  40.9567371 127.5218292  42.0626441  41.0906830
 127.8277169  41.2023804  40.8032745 128.2470897  42.6544061  40.8905824
 113.8142649  52.4657127  39.4788428 113.6167048  51.8726488  38.7539495
 113.2589313  52.1609337  40.1964367 121.7939372  52.3580234  41.5983021
 121.8487982  51.4054070  41.5225498 120.9830574  52.5139673  42.0824320
 122.9430566  56.2860357  32.8361305 122.5049996  55.5696216  32.3766942
 123.6841007  56.5136472  32.2746396 119.7331732  50.9757294  39.3573400
 118.9199598  51.2751464  39.7638592 120.2290726  50.5812982  40.0747883
 121.8840310  60.9715050  41.2907665 121.8416489  61.1975897  40.3616197
 122.8003009  60.7378425  41.4393466 125.3305944  51.4399118  48.1888294
 125.6855332  51.6670591  49.0482760 125.9778075  51.7717495  47.5665549
 131.0603681  54.5617554  38.8937623 130.9221579  54.7519150  37.9658812
 130.7039900  55.3236937  39.3505674 119.2245807  48.5475649  44.9734635
 119.8645186  48.4064408  44.2757599 118.3923337  48.2610162  44.5973237
 131.0873060  56.6294081  43.9048895 131.5209567  56.5369370  44.7531949
 131.8004641  56.6051581  43.2668911 120.0006111  57.8478079  41.0869628
 120.7946709  57.3528400  40.8852203 119.2897803  57.3195943  40.7237333
 116.3088874  51.9921161  37.1629380 115.3786462  51.9305617  37.3799343
 116.4046346  51.4697114  36.3666022 116.2274423  48.5175974  39.7507622
 116.4881241  49.4321307  39.6416783 117.0491596  48.0500417  39.9004235
 117.6999349  49.9313731  46.9206447 118.3722402  49.7231093  46.2719095
 116.8729135  49.7335817  46.4811679 131.9488610  56.6717782  46.4381780
 132.1424500  57.5763592  46.6841055 131.8489228  56.2125201  47.2720365
 123.6024921  46.5575672  48.9372107 122.9552836  47.2565622  48.8436584
 124.3725936  46.9911816  49.3048356 127.0103719  56.8224524  52.0122661
 126.8589225  56.5935076  51.0952744 127.0008398  57.7795126  52.0254006
 123.7789055  54.3956437  46.9968927 124.7081115  54.5467597  46.8237894
 123.3580085  54.4840458  46.1417574 123.1725539  63.5216198  36.1093001
 123.3477294  63.0504241  36.9238624 122.4858327  64.1481964  36.3374262
 124.1282602  57.7988704  42.1556303 123.7932435  57.7589474  43.0513952
 123.6286548  57.1333420  41.6826713 118.1026846  53.2056334  47.6808884
 117.9646644  52.4736573  48.2820423 119.0131769  53.1165234  47.3993071
 127.0641794  55.1444738  32.4293362 126.4470964  54.4191567  32.3326415
 126.5958282  55.9054099  32.0860436 120.7309147  52.9176294  47.1692563
 121.4408765  52.2769486  47.1279182 120.6878455  53.1689188  48.0918744
 128.7195925  59.8543647  50.0899143 128.6608471  59.1702867  49.4229726
 129.1215444  60.5962637  49.6379769 119.4438081  49.9041511  48.9888203
 118.9075438  49.4532250  49.6409799 118.8554789  50.0387420  48.2458667
 117.7386624  66.6705561  42.8832861 117.9783222  67.3024085  43.5611880
 116.8955821  66.3193601  43.1698221 118.8540340  49.3630163  31.5514667
 117.9769806  49.2418964  31.1876913 119.3298093  48.5716241  31.2993555
 128.7213333  57.8183231  48.3213122 127.8340111  57.4809153  48.4439521
 129.2911884  57.0866262  48.5581888 110.3742480  54.1507323  41.6456174
 111.0613519  53.8369053  41.0577189 110.2190608  55.0548687  41.3723425
 115.1777202  49.0397519  46.0741197 115.0935391  48.4323189  45.3391607
 114.3559908  49.5306537  46.0750694 122.0404266  61.7156453  38.7977187
 121.2571787  62.2578133  38.8915412 122.7397011  62.2330433  39.1971428
 125.3500916  47.5251083  41.4411392 125.8469615  46.7721045  41.1212463
 124.5787897  47.5615399  40.8754602 133.2030673  53.2291448  43.0829684
 133.1920549  54.1116164  42.7123617 132.3348052  52.8762999  42.8884221
 126.4330696  56.2822770  39.0149816 125.4986975  56.4024232  38.8454520
 126.6107365  55.3795237  38.7509826 121.9335884  49.6668466  41.1683077
 121.5633672  49.1139506  41.8563983 122.4294977  49.0626599  40.6158077
 129.8203248  52.1240089  39.5499850 130.2863700  52.9568081  39.4760153
 130.2710748  51.6585071  40.2545108 127.8879479  58.4683910  36.5486002
 128.1639323  58.3540505  37.4579876 127.0183978  58.0701395  36.5098175
 127.7919910  44.4920676  43.5890751 126.8782990  44.7224903  43.7572958
 128.2213012  44.5759120  44.4404784 127.5626369  52.6810568  46.0890645
 126.9097819  52.9286476  45.4343098 127.9406749  51.8674706  45.7553123
 124.5233543  62.7170261  40.1918816 124.7055937  61.8991917  40.6546568
 125.3466529  62.9337954  39.7543706 124.8575708  61.6438446  37.4533864
 125.3863475  61.1330901  36.8404026 125.1203928  61.3280977  38.3179397
 123.6113942  53.4230379  52.5756682 122.9354579  53.3224508  53.2459058
 124.4341576  53.2669593  53.0392680 118.2131456  62.6953563  40.2131640
 117.5441832  63.1799691  39.7295680 118.0744326  62.9422784  41.1275019
 109.9510456  52.2307916  43.9173641 109.9894555  51.6971507  44.7110759
 109.4450749  51.7043121  43.2984618 117.3301218  47.0772456  47.4136183
 117.3942545  47.9387287  47.0013581 117.2668338  46.4646458  46.6808542
 116.8053491  49.1495589  51.0609217 117.4325529  48.7672666  51.6746742
 115.9481409  48.9309791  51.4264910 127.2047599  59.5558564  52.6662953
 127.7487503  60.1688522  52.1717908 126.6234444  60.1138142  53.1829966
 113.5819033  50.9572018  36.9927572 113.8772474  50.0482696  36.9394626
 112.6807069  50.9359757  36.6708575 125.4905112  62.6779282  43.7977981
 125.3656252  61.8769022  43.2888926 126.1484203  63.1725475  43.3091951
 117.1113280  49.0328015  42.9755121 116.3899866  49.6463982  42.8362594
 117.9006536  49.5685779  42.8971767 127.5540021  60.4788302  45.4257531
 126.6070356  60.3593653  45.3535857 127.9022794  59.5910800  45.5083792
 119.9139594  46.3682441  49.2495773 120.4373996  46.6144738  50.0122082
 119.6951927  47.2002476  48.8298910 115.3106875  48.6386116  37.1166897
 114.9819581  47.7583495  36.9342003 115.6646246  48.5833784  38.0043287
 124.5586454  60.2741018  41.6261883 124.4111416  59.3457726  41.8069453
 125.3839947  60.2961109  41.1418958 118.4248698  48.9259085  37.4842375
 118.7644771  49.4545007  36.7620983 118.8720819  49.2639492  38.2600942
 128.1620576  61.0969577  42.7126756 129.0867123  60.8912438  42.5751207
 127.9935879  60.8485978  43.6216097 121.1192139  47.3096136  46.9345443
 120.7788959  46.5103949  47.3366123 120.4131145  47.6097847  46.3622276
 121.7708611  44.3945449  45.3872766 122.5934680  43.9205927  45.2651656
 122.0146674  45.1735932  45.8871452 120.4116845  47.4233707  35.6835668
 121.1325208  47.8014960  35.1799385 119.7882149  48.1422584  35.7870646
 124.5547968  48.1278856  36.6194000 124.7711583  49.0103494  36.3182828
 124.0742035  47.7365069  35.8899642 119.2947190  51.0864569  43.1964745
 119.1491770  51.4004872  44.0889026 118.8172393  51.7049470  42.6435643
 121.1543572  48.0767117  43.2445634 121.1405141  47.1808211  42.9077932
 121.8716000  48.0837781  43.8783920 123.0069703  48.5104457  45.2898762
 122.7487481  49.4321528  45.2883092 122.4754743  48.1134892  45.9799226
 127.9515892  61.6155245  38.0688847 128.1252769  61.0501667  37.3162700
 128.4444783  62.4156139  37.8868337 113.7692852  53.6269914  46.1352406
 113.2246320  54.4029722  46.2672680 114.6472202  53.9740718  45.9771527
 120.5580468  46.9581498  38.5133204 120.6796380  46.0298144  38.7124092
 120.2682511  46.9720184  37.6011520 123.4271659  44.6436408  41.6499924
 123.4493356  44.7075741  40.6951904 123.8439718  43.8040917  41.8440430
 133.8055283  54.3791668  39.6879147 134.2486429  53.6298993  39.2898270
 132.9281793  54.3701804  39.3052879 128.9391064  60.9322009  35.1685745
 129.6341969  61.5528702  35.3873060 129.2814214  60.0817360  35.4438123
 114.5558874  52.7539810  49.0282563 113.8140610  52.9022445  49.6147193
 114.2351618  53.0148076  48.1649312 130.8382487  58.3821715  36.6973076
 131.3633812  58.7208987  35.9722396 130.7504840  57.4468730  36.5136211
 115.0015487  60.6405239  41.0592957 115.8273507  60.3409011  40.6791601
 114.6509539  59.8712861  41.5082746 113.2024092  58.5591565  42.0181891
 112.3656001  58.1313739  41.8365892 113.1747738  58.7524008  42.9552682
 120.0421548  48.4713495  52.7223137 120.0909703  49.3475618  52.3400907
 120.5844062  47.9290888  52.1494780 130.5276394  59.0154618  52.0024274
 129.7371937  58.9978757  51.4628773 130.2909748  59.5542912  52.7573311
 130.6474269  55.8647085  49.3157003 130.6972274  55.6997092  50.2572525
 130.5388192  54.9974344  48.9254883 119.5310527  58.5435630  36.6049092
 119.6798648  59.2271095  35.9515764 120.3376971  58.5240720  37.1198547
 127.9378031  51.8478013  50.6316309 128.8387894  51.7084477  50.3400307
 128.0126005  52.0132467  51.5714487 122.2720836  49.2244867  49.4769496
 121.4024146  49.5178433  49.2052084 122.5080317  49.8085312  50.1976759
 132.1492465  58.2844026  49.5599024 131.8577274  58.6474007  50.3962485
 131.5364597  57.5711034  49.3812356 133.3488148  55.8496906  42.0801594
 134.1835039  56.2886710  42.2439155 133.4847277  55.3735559  41.2609840
 130.3979654  53.4076641  48.0279082 130.8733775  53.6004287  47.2197934
 129.4745219  53.4635827  47.7822466 117.2863160  54.5700808  37.6110160
 117.0409202  53.6663138  37.8090371 117.4559075  54.5717958  36.6689638
 124.9759870  45.4424484  46.9934916 125.4941814  46.1785511  46.6681405
 124.6215003  45.7488478  47.8281675 116.5558808  50.3029165  35.1096322
 115.8628053  50.3773520  34.4536358 116.3110560  49.5389509  35.6317839
 125.2272464  41.8624767  42.5135813 125.5074218  41.1947956  43.1396239
 126.0123071  42.0553862  42.0010476 123.0305933  61.0383761  34.0760839
 122.4579900  61.6573948  33.6231311 123.6038726  61.5883122  34.6100761
 129.0981323  50.2842401  46.2607388 130.0498746  50.3840498  46.2819612
 128.9284773  49.4920669  46.7705472 127.1195702  47.3697984  46.4466789
 126.5245634  47.6502997  45.7513277 126.8345399  47.8591885  47.2183530
 126.2503193  61.3220911  35.2069421 127.1833866  61.2566472  35.4102297
 126.1626405  62.1577178  34.7483954 128.8791209  60.6386781  32.1673369
 128.8004841  60.3046645  33.0609127 129.7000876  61.1308549  32.1664841
 131.5769400  53.5048520  45.3749687 131.5445721  52.5664521  45.5609371
 132.1870024  53.5832557  44.6415512 123.4152731  52.3744573  31.4176891
 124.3611836  52.2450782  31.4865309 123.0366976  51.6359235  31.8946320
 131.7263889  50.2959564  45.4207971 131.2102938  49.5118021  45.2337899
 132.6103837  49.9678281  45.5854490 129.3874616  44.0400579  41.3803783
 129.1899437  43.7315668  42.2647115 129.9974321  44.7662218  41.5101713
 135.4761247  52.7072390  45.1130175 134.7494411  52.5728355  44.5046667
 135.0608534  53.0149218  45.9186893 123.2991424  56.4262320  52.8777548
 124.2194433  56.6040919  53.0717595 123.2641007  55.4818365  52.7257248
 121.5995648  50.2994550  31.3531777 120.6927104  50.0027663  31.4294490
 121.8771629  50.0024368  30.4866063 112.5173589  51.6200913  41.8030823
 112.1976373  50.7666221  41.5105197 111.9707017  51.8349491  42.5588790
 116.2953496  54.3363354  45.5200330 116.5139506  55.2680462  45.5388363
 116.7079270  53.9771329  46.3055133 123.2157714  44.8431440  37.5076018
 122.4058442  44.4978525  37.8831264 123.9042131  44.5338983  38.0963630
 125.1448262  43.9209486  39.1300315 125.6979301  44.3404940  39.7890338
 125.3818349  42.9945234  39.1723271 121.1681362  49.9096560  54.9103079
 121.0678089  50.8590917  54.8415170 120.9502904  49.5814799  54.0379149
 120.3694433  47.1581485  31.4943756 121.2313597  47.4836383  31.7539573
 120.5544777  46.3712981  30.9816822 112.3861849  55.2403825  43.7723945
 111.6925320  54.8257778  43.2593899 113.1334840  55.2824361  43.1757364
 128.5227070  46.0310011  38.6378979 127.9425739  46.6894816  38.2557031
 128.2563002  45.2087356  38.2266396 126.9730636  45.4315069  40.8400299
 127.4730414  45.5431604  40.0314618 127.6166244  45.1276122  41.4801108
 121.0312632  53.3393699  53.7268140 120.5479713  54.1394059  53.9332029
 121.1173571  53.3501644  52.7735584 114.2998591  55.1722079  41.6489960
 114.2769279  55.2709766  40.6971843 114.6099228  56.0187229  41.9707126
 127.3051948  48.1910102  37.6935327 126.4177803  48.4759753  37.4755522
 127.7205937  48.0303865  36.8462604 130.6566484  48.2156623  41.4089666
 131.4326874  48.7053075  41.6814283 129.9314618  48.6414677  41.8661536
 133.0939042  48.9284242  42.4663607 133.6883533  48.6879978  41.7556915
 133.1665626  48.2091373  43.0937143 126.4495161  57.9554777  31.7883347
 127.1531011  58.1604779  32.4041003 125.7257810  58.5231538  32.0532431
 127.2792971  53.7064638  37.9085617 127.2228173  54.1633189  37.0693250
 127.8321314  52.9455322  37.7308460 131.0897777  49.4954370  38.7335737
 130.8334711  49.0951005  39.5643944 130.4650645  50.2098164  38.6085876
 135.4010115  52.2350443  41.2407028 134.8409673  52.3043632  42.0138590
 134.7953618  52.0591428  40.5206524 128.3581858  58.3937306  33.8381807
 129.1927462  57.9618504  33.6559282 128.1966201  58.2219319  34.7658702
 128.0127751  54.8969419  35.2038146 127.9576554  54.7313690  34.2626591
 127.3873806  55.6045452  35.3600336 112.8020266  50.1337483  49.0299569
 113.4479129  49.6236437  49.5186794 112.5937417  50.8706165  49.6042994
 125.3273658  57.2018331  54.5291709 126.1964817  57.3758983  54.1678344
 124.8480409  58.0212748  54.4067439 121.3223876  44.3977528  34.7823465
 121.3102546  45.3419368  34.9391736 122.2147298  44.2147673  34.4882926
 121.2513440  63.0746418  42.8691222 120.3009071  63.0748280  42.7555594
 121.5545926  62.3279153  42.3527256 125.1375996  40.9920305  39.0369402
 124.3708391  40.4378791  39.1826084 125.5486701  41.0642173  39.8983553
 117.1417757  47.2805101  53.1274583 118.0049218  46.9241905  53.3377907
 116.5683167  46.9418995  53.8149987 133.7955840  68.8634385  43.8698509
 133.4574351  68.7475450  42.9819043 134.6645608  68.4625550  43.8499515
 129.6542656  70.7169861  39.8595400 129.0907521  70.6259798  39.0911687
 129.5395051  69.8969766  40.3397892 134.2775623  70.0169237  49.8284714
 134.2664264  69.6222035  48.9565218 134.4396262  69.2835309  50.4218486
 127.2007087  72.2121053  42.6979620 127.9928379  71.8711878  42.2825919
 127.4403738  72.3216028  43.6181773 135.2342214  74.3840829  35.1709864
 134.5830194  74.9694909  34.7843878 136.0286577  74.9147024  35.2304902
 129.1597841  71.4729966  35.5696999 129.9328717  70.9258953  35.4309875
 129.5123240  72.3374216  35.7811460 130.9982884  72.8006348  48.7763898
 130.7072750  73.7051979  48.6610564 131.6339868  72.8422876  49.4907968
 131.9239091  70.1783197  45.3665258 132.5202663  69.9539219  44.6522221
 131.9814062  69.4367942  45.9690706 131.4964119  67.6322632  33.2015449
 131.7489640  67.1104154  32.4398912 130.5588678  67.4688778  33.3042132
 136.5407402  66.6358411  41.0090192 137.3270491  66.2177834  40.6580609
 136.8046106  67.5404503  41.1771840 136.7117479  72.0731261  35.7078849
 136.0763312  72.1465888  36.4199753 136.3814886  72.6624860  35.0297928
 131.2160408  69.5350738  35.4039824 131.0996666  68.8595642  36.0720908
 131.3262668  69.0483112  34.5871977 133.5591949  68.9960885  39.1086513
 133.1950156  68.4691506  39.8199434 134.4159065  68.6059354  38.9352998
 133.1997436  64.0250785  34.1047861 133.3671838  64.8931022  34.4718332
 133.0094605  64.1878067  33.1809151 135.9572769  72.4867764  45.7713692
 135.6573492  73.3892803  45.6629499 135.6123829  72.2199947  46.6234845
 129.4085251  68.9381561  41.8050396 128.4835747  68.8057775  42.0128088
 129.6569664  69.7175780  42.3020339 133.1786657  66.4808443  35.0894528
 133.0586282  66.9265493  35.9280009 132.4839245  66.8293760  34.5308066
 126.7694062  68.5814834  42.6394185 126.8986443  68.8349313  43.5533597
 126.0891513  69.1742542  42.3198840 130.9393549  79.2512084  38.7384659
 130.8617579  80.2019909  38.8173140 130.3355192  78.9057957  39.3959586
 133.4310779  66.4239950  51.3946026 132.6544113  66.9833870  51.3848891
 134.0701342  66.9096733  51.9160896 131.6857151  69.2325403  50.9563993
 132.4271835  69.7710447  50.6798817 130.9794136  69.8591692  51.1135545
 137.1612491  71.3754544  49.5536155 137.5695847  70.9336954  48.8090787
 136.4389752  70.8007171  49.8070348 133.5143561  66.3127150  46.9269712
 134.3604756  66.7366564  47.0704361 133.4542198  65.6560775  47.6208275
 137.4841305  71.9355734  43.3088444 136.8550168  72.1001448  42.6064512
 137.0966967  72.3497344  44.0799408 136.6643006  63.9731519  48.5850885
 136.4203938  64.7273579  48.0485161 136.9402936  64.3516866  49.4198133
 136.2207698  63.1287952  44.1664723 135.3592177  63.4269205  44.4581461
 136.2470132  63.3458351  43.2345756 133.0369267  71.6730142  40.5738529
 133.5007613  71.9517845  39.7843151 132.7726065  70.7713587  40.3911620
 129.9293348  71.2201624  43.5118292 130.4994705  71.6488892  42.8735777
 130.5201460  70.9384209  44.2102478 131.9738153  67.7953295  37.3828094
 132.6762196  68.2474338  37.8502020 131.6418782  67.1537114  38.0107987
 130.4218515  66.3865051  51.7579303 129.7917175  67.0681332  51.9914700
 130.3154603  66.2748133  50.8132442 125.7163487  66.0536847  42.6845228
 124.9262541  66.3094376  42.2085338 126.2074734  66.8685185  42.7897268
 127.6678232  66.4181427  39.6428704 126.8709396  66.5300121  40.1612200
 127.4403825  66.7568079  38.7769595 133.4983900  72.9426130  47.5911219
 133.5628333  73.4046537  48.4269391 132.7894824  72.3123495  47.7193529
 133.2131918  74.6094237  37.4590199 133.0777593  75.4545773  37.8875047
 133.7541730  74.8113515  36.6956133 129.6999257  60.6885817  54.1204554
 129.3066203  60.1352016  54.7952199 130.5165398  60.9996396  54.5111072
 126.6661315  72.1269675  38.0318124 127.1785836  72.9212926  38.1823689
 127.3184028  71.4295966  37.9651726 128.4756200  75.2435432  40.1140877
 128.6522828  76.1653396  39.9261861 129.2713033  74.9293851  40.5435257
 132.6167218  62.1043696  51.7124811 133.3576932  62.7050849  51.6329273
 132.8485141  61.3621334  51.1542854 127.7608556  67.2900064  49.9903041
 127.6462072  66.3885321  50.2910140 126.9053074  67.5363760  49.6387857
 134.8400394  75.2317804  51.5890541 134.3964248  74.4454182  51.2711446
 135.5017608  75.4196954  50.9234432 129.5987515  76.7613605  46.1151220
 130.1494940  76.6330669  45.3428214 128.7598991  77.0608494  45.7646113
 133.3954686  73.0264733  50.4595451 133.9283023  72.2653021  50.2294759
 132.8668767  72.7338385  51.2019605 136.5624381  58.1324799  45.9889093
 136.2188651  59.0226441  45.9128203 136.9303344  57.9426457  45.1258678
 124.6310232  70.4558330  38.8077695 125.4685454  70.8655338  38.5911403
 124.8088500  69.5157772  38.7777889 136.5274664  68.1233410  34.4961528
 136.0121287  68.8938015  34.7349915 136.2551972  67.4498546  35.1194589
 134.1121775  62.9683111  39.5546766 133.2563371  62.5789961  39.3752405
 134.5248727  63.0475072  38.6946552 135.6420922  60.5029454  43.9538326
 135.1385717  60.4659590  43.1406131 135.9351529  61.4122197  44.0134983
 131.8863808  60.5868184  42.9604508 132.7516804  60.3910993  42.6010397
 131.9541316  60.3578536  43.8873864 136.3160967  65.9960502  36.3221309
 136.0111103  66.3106652  37.1731452 137.2691409  66.0741922  36.3648642
 134.7607399  72.1550726  37.9714263 134.2328761  71.4203485  37.6587500
 134.2594902  72.9325402  37.7254231 129.4926127  62.8170392  40.3320874
 130.0669879  62.5945573  39.5994067 130.0797109  62.8859087  41.0849476
 129.8195714  64.8474853  34.3516760 128.9833026  65.1849540  34.6726034
 129.6800483  64.7123833  33.4143897 131.7948794  59.6911641  39.0595944
 131.1413207  59.3760658  38.4352559 131.7529269  59.0687381  39.7855767
 132.9059999  69.9730936  30.9749236 131.9987061  69.7420189  31.1740385
 133.4031031  69.1768555  31.1623218 135.8128078  78.6828443  33.8945922
 135.1389777  78.9860140  34.5030880 136.1993900  79.4857524  33.5451379
 135.0286535  66.1793574  43.3843592 134.1109096  66.4008521  43.2265280
 135.4446678  66.2539885  42.5255299 135.8121582  67.5784990  38.5146272
 136.5593401  68.0906387  38.2053394 136.0813172  67.2569043  39.3750665
 134.0848233  70.0743531  35.4973226 133.1759452  69.7902564  35.5945696
 134.1143316  70.4942609  34.6376533 124.6536403  67.7949045  39.4788428
 124.4560803  67.2018406  38.7539495 124.0983067  67.4901255  40.1964367
 132.6333127  67.6872151  41.5983021 132.6881736  66.7345988  41.5225498
 131.8224329  67.8431591  42.0824320 133.7824320  71.6152275  32.8361305
 133.3443750  70.8988133  32.3766942 134.5234761  71.8428389  32.2746396
 130.5725487  66.3049211  39.3573400 129.7593352  66.6043382  39.7638592
 131.0684481  65.9104900  40.0747883 132.7234065  76.3006968  41.2907665
 132.6810243  76.5267814  40.3616197 133.6396763  76.0670343  41.4393466
 136.1699698  66.7691036  48.1888294 136.5249086  66.9962509  49.0482760
 136.8171830  67.1009412  47.5665549 130.0639561  63.8767567  44.9734635
 130.7038941  63.7356326  44.2757599 129.2317092  63.5902080  44.5973237
 130.8399865  73.1769997  41.0869628 131.6340464  72.6820317  40.8852203
 130.1291558  72.6487860  40.7237333 135.6594710  75.5588093  45.4381995
 135.7131732  76.1279029  46.2059711 134.7909491  75.7289978  45.0736032
 127.1482629  67.3213079  37.1629380 126.2180217  67.2597534  37.3799343
 127.2440101  66.7989032  36.3666022 127.0668178  63.8467892  39.7507622
 127.3274995  64.7613225  39.6416783 127.8885350  63.3792334  39.9004235
 128.5393103  65.2605649  46.9206447 129.2116157  65.0523011  46.2719095
 127.7122890  65.0627735  46.4811679 134.4418675  61.8867590  48.9372107
 133.7946590  62.5857539  48.8436584 135.2119691  62.3203734  49.3048356
 134.6182810  69.7248355  46.9968927 135.5474870  69.8759514  46.8237894
 134.1973840  69.8132375  46.1417574 133.4171141  73.7499019  44.7667465
 133.2782227  73.3817804  45.6393403 132.6285738  74.2646659  44.5951423
 134.0119293  78.8508116  36.1093001 134.1871049  78.3796159  36.9238624
 133.3252081  79.4773882  36.3374262 134.9676356  73.1280622  42.1556303
 134.6326189  73.0881392  43.0513952 134.4680302  72.4625338  41.6826713
 128.9420600  68.5348252  47.6808884 128.8040398  67.8028491  48.2820423
 129.8525524  68.4457152  47.3993071 131.5702901  68.2468211  47.1692563
 132.2802520  67.6061403  47.1279182 131.5272209  68.4981106  48.0918744
 130.2831835  65.2333429  48.9888203 129.7469192  64.7824168  49.6409799
 129.6948543  65.3679338  48.2458667 128.5780379  81.9997478  42.8832861
 128.8176977  82.6316003  43.5611880 127.7349575  81.6485518  43.1698221
 129.6934094  64.6922080  31.5514667 128.8163560  64.5710881  31.1876913
 130.1691847  63.9008159  31.2993555 121.2136234  69.4799240  41.6456174
 121.9007274  69.1660970  41.0577189 121.0584363  70.3840605  41.3723425
 126.0170956  64.3689437  46.0741197 125.9329145  63.7615106  45.3391607
 125.1953663  64.8598455  46.0750694 133.0908240  77.8076601  45.2874365
 133.0178412  78.6131572  45.7993670 132.6485634  78.0068567  44.4622387
 132.8798020  77.0448371  38.7977187 132.0965542  77.5870051  38.8915412
 133.5790765  77.5622350  39.1971428 136.1894670  62.8543000  41.4411392
 136.6863370  62.1012963  41.1212463 135.4181652  62.8907317  40.8754602
 135.5506924  77.7063435  47.4432524 136.2634896  78.3410900  47.3708426
 135.0596953  77.8027301  46.6272526 137.2724451  71.6114688  39.0149816
 136.3380730  71.7316150  38.8454520 137.4501119  70.7087154  38.7509826
 132.7729639  64.9960383  41.1683077 132.4027426  64.4431424  41.8563983
 133.2688731  64.3918517  40.6158077 130.6018837  75.4557878  48.2638095
 131.3028297  76.0894361  48.4167489 130.1313952  75.7972610  47.5033734
 135.3627297  78.0462179  40.1918816 135.5449692  77.2283835  40.6546568
 136.1860283  78.2629871  39.7543706 135.6969463  76.9730364  37.4533864
 136.2257229  76.4622819  36.8404026 135.9597682  76.6572894  38.3179397
 134.4507696  68.7522297  52.5756682 133.7748333  68.6516426  53.2459058
 135.2735330  68.5961511  53.0392680 126.1986556  74.9894233  45.1969198
 126.7839992  74.2437921  45.3297102 126.0011394  75.2998190  46.0805862
 129.0525211  78.0245481  40.2131640 128.3835586  78.5091608  39.7295680
 128.9138080  78.2714701  41.1275019 133.1930479  80.0589224  46.8114298
 133.7448787  80.2220846  47.5763384 133.5336673  80.6493662  46.1394323
 128.1694973  62.4064374  47.4136183 128.2336299  63.2679205  47.0013581
 128.1062093  61.7938376  46.6808542 127.6447245  64.4787507  51.0609217
 128.2719284  64.0964584  51.6746742 126.7875164  64.2601709  51.4264910
 124.4212788  66.2863936  36.9927572 124.7166229  65.3774614  36.9394626
 123.5200824  66.2651675  36.6708575 136.3298867  78.0071200  43.7977981
 136.2050006  77.2060940  43.2888926 136.9877958  78.5017393  43.3091951
 127.9507035  64.3619932  42.9755121 127.2293621  64.9755900  42.8362594
 128.7400291  64.8977697  42.8971767 130.7533348  61.6974359  49.2495773
 131.2767750  61.9436655  50.0122082 130.5345682  62.5294394  48.8298910
 126.1500629  63.9678033  37.1166897 125.8213336  63.0875412  36.9342003
 126.5040000  63.9125702  38.0043287 135.3980208  75.6032936  41.6261883
 135.2505171  74.6749643  41.8069453 136.2233702  75.6253027  41.1418958
 129.2642453  64.2551003  37.4842375 129.6038525  64.7836924  36.7620983
 129.7114573  64.5931409  38.2600942 131.9585893  62.6388054  46.9345443
 131.6182714  61.8395867  47.3366123 131.2524900  62.9389765  46.3622276
 132.6102365  59.7237366  45.3872766 133.4328435  59.2497845  45.2651656
 132.8540429  60.5027850  45.8871452 131.2510600  62.7525625  35.6835668
 131.9718962  63.1306878  35.1799385 130.6275904  63.4714502  35.7870646
 135.3941723  63.4570774  36.6194000 135.6105337  64.3395412  36.3182828
 134.9135790  63.0656987  35.8899642 130.1340944  66.4156487  43.1964745
 129.9885525  66.7296790  44.0889026 129.6566148  67.0341387  42.6435643
 131.9937327  63.4059035  43.2445634 131.9798896  62.5100128  42.9077932
 132.7109755  63.4129699  43.8783920 133.8463458  63.8396375  45.2898762
 133.5881235  64.7613446  45.2883092 133.3148498  63.4426810  45.9799226
 124.6086606  68.9561831  46.1352406 124.0640074  69.7321639  46.2672680
 125.4865956  69.3032636  45.9771527 131.3974223  62.2873415  38.5133204
 131.5190134  61.3590061  38.7124092 131.1076265  62.3012101  37.6011520
 134.2665413  59.9728326  41.6499924 134.2887110  60.0367659  40.6951904
 134.6833472  59.1332834  41.8440430 125.3952628  68.0831728  49.0282563
 124.6534364  68.2314363  49.6147193 125.0745372  68.3439993  48.1649312
 133.3396291  77.6247706  48.8262953 133.6483417  77.3796853  49.6985652
 134.1371773  77.8294344  48.3381823 133.3616903  79.7785615  41.0568329
 132.9221893  79.2861994  41.7501186 134.1125020  79.2358583  40.8160405
 125.8409242  75.9697156  41.0592957 126.6667262  75.6700928  40.6791601
 125.4903294  75.2004779  41.5082746 130.8090775  75.3223625  43.1290631
 130.1870784  74.6594330  42.8292859 131.4795642  75.3484756  42.4464279
 124.0417847  73.8883483  42.0181891 123.2049755  73.4605657  41.8365892
 124.0141492  74.0815926  42.9552682 130.8815302  63.8005413  52.7223137
 130.9303458  64.6767535  52.3400907 131.4237817  63.2582806  52.1494780
 130.3704282  73.8727548  36.6049092 130.5192402  74.5563012  35.9515764
 131.1770725  73.8532638  37.1198547 133.1114591  64.5536785  49.4769496
 132.2417900  64.8470351  49.2052084 133.3474071  65.1377230  50.1976759
 128.1256915  69.8992726  37.6110160 127.8802957  68.9955056  37.8090371
 128.2952829  69.9009876  36.6689638 135.8153625  60.7716402  46.9934916
 136.3335568  61.5077429  46.6681405 135.4608757  61.0780395  47.8281675
 127.3952562  65.6321083  35.1096322 126.7021807  65.7065438  34.4536358
 127.1504314  64.8681427  35.6317839 136.0666219  57.1916684  42.5135813
 136.3467973  56.5239874  43.1396239 136.8516826  57.3845780  42.0010476
 133.8699687  76.3675678  34.0760839 133.2973654  76.9865865  33.6231311
 134.4432481  76.9175040  34.6100761 134.2546486  67.7036491  31.4176891
 135.2005591  67.5742699  31.4865309 133.8760731  66.9651153  31.8946320
 134.1385178  71.7554237  52.8777548 135.0588188  71.9332836  53.0717595
 134.1034761  70.8110283  52.7257248 132.4389403  65.6286467  31.3531777
 131.5320858  65.3319580  31.4294490 132.7165384  65.3316286  30.4866063
 123.3567343  66.9492831  41.8030823 123.0370128  66.0958139  41.5105197
 122.8100772  67.1641409  42.5588790 127.1347251  69.6655272  45.5200330
 127.3533261  70.5972380  45.5388363 127.5473025  69.3063246  46.3055133
 134.0551469  60.1723357  37.5076018 133.2452197  59.8270442  37.8831264
 134.7435886  59.8630901  38.0963630 135.9842017  59.2501404  39.1300315
 136.5373056  59.6696857  39.7890338 136.2212103  58.3237152  39.1723271
 132.0075116  65.2388478  54.9103079 131.9071843  66.1882835  54.8415170
 131.7896658  64.9106717  54.0379149 131.2088188  62.4873403  31.4943756
 132.0707352  62.8128301  31.7539573 131.3938532  61.7004899  30.9816822
 123.2255603  70.5695742  43.7723945 122.5319075  70.1549695  43.2593899
 123.9728594  70.6116279  43.1757364 131.8706386  68.6685617  53.7268140
 131.3873468  69.4685977  53.9332029 131.9567325  68.6793561  52.7735584
 125.1392346  70.5013996  41.6489960 125.1163034  70.6001683  40.6971843
 125.4492982  71.3479147  41.9707126 127.7979724  72.5590151  45.7636574
 128.7522977  72.5274094  45.6966506 127.5992247  72.0980775  46.5786800
 128.3879106  71.1291267  48.3307372 129.2071995  71.6235346  48.3542209
 128.6615914  70.2123235  48.3024939 126.1529953  78.1009771  42.7806772
 126.0184420  77.3410172  42.2144770 125.7362015  78.8250671  42.3135561
 129.3099078  78.9979088  42.9925214 129.1931463  79.9424520  42.8903905
 128.4891525  78.6952649  43.3811014 136.1667412  72.5310249  54.5291709
 137.0358572  72.7050901  54.1678344 135.6874164  73.3504665  54.4067439
 132.1617631  59.7269446  34.7823465 132.1496300  60.6711286  34.9391736
 133.0541052  59.5439591  34.4882926 130.3353593  79.6507350  46.2081143
 131.2380839  79.6830960  46.5247638 130.1090963  78.7207801  46.2227479
 132.0907195  78.4038336  42.8691222 131.1402826  78.4040198  42.7555594
 132.3939681  77.6571071  42.3527256 135.9769750  56.3212222  39.0369402
 135.2102146  55.7670709  39.1826084 136.3880455  56.3934091  39.8983553
 127.9811511  62.6097018  53.1274583 128.8442973  62.2533823  53.3377907
 127.4076922  62.2710913  53.8149987 136.5557242  81.3828765  42.6845228
 135.7656296  81.6386294  42.2085338 137.0468489  82.1977103  42.7897268
 134.8394945  81.6359255  45.1160218 135.0902983  82.5206265  45.3817794
 135.3754493  81.4563857  44.3435310 135.4703986  85.7850247  38.8077695
 136.3079208  86.1947256  38.5911403 135.6482254  84.8449689  38.7777889
 135.4930158  83.1240963  39.4788428 135.2954557  82.5310323  38.7539495
 134.9376822  82.8193173  40.1964367 132.0529989  84.8091158  41.6456174
 132.7401028  84.4952888  41.0577189 131.8978117  85.7132523  41.3723425
 136.8564711  79.6981354  46.0741197 136.7722900  79.0907024  45.3391607
 136.0347417  80.1890373  46.0750694 131.6297965  82.8891751  43.9173641
 131.6682064  82.3555342  44.7110759 131.1238258  82.3626957  43.2984618
 135.2606542  81.6155853  36.9927572 135.5559983  80.7066532  36.9394626
 134.3594578  81.5943593  36.6708575 136.9894384  79.2969951  37.1166897
 136.6607090  78.4167330  36.9342003 137.3433755  79.2417620  38.0043287
 135.4480361  84.2853749  46.1352406 134.9033829  85.0613557  46.2672680
 136.3259711  84.6324554  45.9771527 136.2346383  83.4123645  49.0282563
 135.4928119  83.5606281  49.6147193 135.9139127  83.6731911  48.1649312
 136.6802996  91.2989074  41.0592957 137.5061016  90.9992846  40.6791601
 136.3297048  90.5296696  41.5082746 134.8811601  89.2175400  42.0181891
 134.0443510  88.7897575  41.8365892 134.8535247  89.4107844  42.9552682
 134.1961098  82.2784749  41.8030823 133.8763882  81.4250057  41.5105197
 133.6494526  82.4933327  42.5588790 134.0649358  85.8987660  43.7723945
 133.3712829  85.4841613  43.2593899 134.8122349  85.9408197  43.1757364
 135.9786100  85.8305914  41.6489960 135.9556788  85.9293601  40.6971843
 136.2886737  86.6771065  41.9707126 136.9923707  93.4301688  42.7806772
 136.8578175  92.6702089  42.2144770 136.5755769  94.1542588  42.3135561
 134.4807775  80.7921319  49.0299569 135.1266638  80.2820273  49.5186794
 134.2724926  81.5290000  49.6042994  98.4212287  10.2698454  25.4629966
  98.3436316  11.2206279  25.5418447  97.8173930   9.9244326  26.1204892
  97.0806253   7.7799975  32.8396526  97.6313678   7.6517038  32.0673520
  96.2417729   8.0794864  32.4891419 103.2946816   9.7014813  20.6191229
 102.6208515  10.0046509  21.2276187 103.6812638  10.5043893  20.2696686
 101.4938031   9.8694485  22.8338308 101.6689787   9.3982528  23.6483931
 100.8070819  10.4960251  23.0619569  96.0599116  13.0183848  29.6078168
  96.2995715  13.6502372  30.2857187  95.2168313  12.6671888  29.8943527
 100.5726978   8.8262970  32.0119672 100.4997150   9.6317942  32.5238977
 100.1304371   9.0254936  31.1867694 100.3616758   8.0634740  25.5222494
  99.5784280   8.6056421  25.6160718 101.0609503   8.5808720  25.9216735
 103.0325662   8.7249804  34.1677831 103.7453634   9.3597269  34.0953732
 102.5415690   8.8213670  33.3517833  93.6805293   6.0080603  31.9214504
  94.2658730   5.2624291  32.0542408  93.4830132   6.3184560  32.8051168
  96.5343949   9.0431850  26.9376947  95.8654324   9.5277978  26.4540987
  96.3956818   9.2901071  27.8520325 100.6749217  11.0775594  33.5359605
 101.2267525  11.2407215  34.3008690 101.0155411  11.6680032  32.8639630
 100.8215028   8.6434075  35.5508259 101.1302155   8.3983222  36.4230959
 101.6190510   8.8480714  35.0627130 100.8435640  10.7971985  27.7813636
 100.4040631  10.3048364  28.4746493 101.5943757  10.2544953  27.5405711
  93.3227979   6.9883526  27.7838264  94.1485999   6.6887298  27.4036908
  92.9722031   6.2191148  28.2328053  91.5236585   4.9069852  28.7427198
  90.6868493   4.4792027  28.5611199  91.4960230   5.1002296  29.6797989
  93.6348690   9.1196140  29.5052078  93.5003158   8.3596541  28.9390076
  93.2180753   9.8437040  29.0380867  96.7917816  10.0165457  29.7170521
  96.6750200  10.9610890  29.6149211  95.9710262   9.7139019  30.1056320
  97.8172330  10.6693719  32.9326450  98.7199577  10.7017329  33.2492944
  97.5909700   9.7394170  32.9472785  99.5725932   9.4224706  29.5936528
  98.6221563   9.4226567  29.4800900  99.8758418   8.6757440  29.0772563
 115.3078626  15.2585244  30.6582291 115.9457036  15.1391991  29.9545631
 115.1899469  16.2066088  30.7170243 112.1168332  15.2112672  30.5943815
 111.7786844  15.0953737  29.7064350 112.9858100  14.8103837  30.5744821
 107.9755148  17.0648149  26.5840706 107.4120013  16.9738086  25.8156994
 107.8607543  16.2448053  27.0643199 112.5988115  16.3647524  36.5530021
 112.5876756  15.9700322  35.6810524 112.7608755  15.6313597  37.1463792
 105.5219580  18.5599340  29.4224927 106.3140872  18.2190165  29.0071226
 105.7616230  18.6694315  30.3427080 113.5554707  20.7319116  21.8955171
 112.9042686  21.3173197  21.5089185 114.3499069  21.2625311  21.9550209
 107.4810334  17.8208253  22.2942305 108.2541210  17.2737241  22.1555181
 107.8335733  18.6852503  22.5056767 109.3195376  19.1484636  35.5009205
 109.0285242  20.0530267  35.3855871 109.9552361  19.1901163  36.2153274
 110.2451583  16.5261484  32.0910564 110.8415155  16.3017507  31.3767527
 110.3026555  15.7846230  32.6936012 109.5372900  15.8829026  22.1285130
 109.4209158  15.2073929  22.7966215 109.6475160  15.3961399  21.3117283
 111.8804441  15.3439173  25.8331820 111.5162648  14.8169794  26.5444741
 112.7371557  14.9537642  25.6598305 114.2785261  18.8346051  32.4958998
 113.9785984  19.7371090  32.3874806 113.9336321  18.5678234  33.3480151
 107.7297743  15.2859848  28.5295703 106.8048239  15.1536062  28.7373395
 107.9782156  16.0654067  29.0265645 105.0906554  14.9293122  29.3639492
 105.2198935  15.1827601  30.2778904 104.4104005  15.5220830  29.0444147
 109.2606041  25.5990372  25.4629966 109.1830071  26.5498197  25.5418447
 108.6567685  25.2536244  26.1204892 111.7523271  12.7718237  38.1191333
 110.9756605  13.3312157  38.1094198 112.3913834  13.2575020  38.6406203
 110.0069643  15.5803690  37.6809300 110.7484328  16.1188734  37.4044124
 109.3006629  16.2069979  37.8380852 115.4824983  17.7232831  36.2781462
 115.8908339  17.2815241  35.5336094 114.7602244  17.1485458  36.5315654
 111.8356053  12.6605438  33.6515018 112.6817248  13.0844851  33.7949667
 111.7754691  12.0039062  34.3453582 115.8053797  18.2834021  30.0333750
 115.1762660  18.4479736  29.3309818 115.4179460  18.6975631  30.8044714
 119.6843029  19.2188459  27.3878114 118.9994068  19.5987361  26.8375147
 119.7686879  19.8283786  28.1210062 116.9393961  16.8648418  33.9873458
 117.1510856  17.5080178  33.3107839 116.8923709  16.0310735  33.5195388
 111.3581759  18.0208430  27.2983835 111.8220105  18.2996133  26.5088458
 111.0938557  17.1191874  27.1156926 108.2505840  17.5679911  30.2363599
 108.8207197  17.9967179  29.5981083 108.8413952  17.2862496  30.9347784
 110.2950645  14.1431582  24.1073401 110.9974689  14.5952626  24.5747327
 109.9631274  13.5015401  24.7353294 108.7431007  12.7343339  38.4824610
 108.1129668  13.4159619  38.7160007 108.6367095  12.6226420  37.5377748
 104.0375979  12.4015135  29.4090534 103.2475033  12.6572663  28.9330645
 104.5287227  13.2163472  29.5142575 118.0539789  19.7420374  32.1595815
 118.8757233  19.3400561  31.8778497 118.0502192  19.6388608  33.1111931
 105.9890725  12.7659714  26.3674011 105.1921888  12.8778408  26.8857507
 105.7616317  13.1046366  25.5014901 111.8196392  19.2904417  34.3156526
 111.8840825  19.7524824  35.1514697 111.1107316  18.6601782  34.4438835
 102.3213682  12.6545625  31.8405525 102.5721721  13.5392635  32.1063101
 102.8573231  12.4750227  31.0680617 111.5344410  20.9572525  24.1835506
 111.3990085  21.8024060  24.6120354 112.0754223  21.1591802  23.4201440
 104.9873807  18.4747963  24.7563431 105.4998328  19.2691213  24.9068996
 105.6396520  17.7774253  24.6897032 106.7968692  21.5913719  26.8386184
 106.9735320  22.5131684  26.6507168 107.5925526  21.2772138  27.2680564
 106.0821049  13.6378351  36.7148347 105.9674564  12.7363608  37.0155446
 105.2265566  13.8842048  36.3633164 113.1612886  21.5796091  38.3135848
 112.7176741  20.7932470  37.9956752 113.8230100  21.7675242  37.6479739
 107.9200008  23.1091893  32.8396526 108.4707433  22.9808956  32.0673520
 107.0811483  23.4086782  32.4891419 115.2594124  21.8598891  36.3417249
 115.2412600  22.6807772  35.8497518 116.1814045  21.7352966  36.5667390
 111.7167179  19.3743020  37.1840758 112.2495515  18.6131309  36.9540066
 111.1881260  19.0816672  37.9264912 102.9522724  16.8036617  25.5323001
 103.7897946  17.2133625  25.3156709 103.1300992  15.8636059  25.5023195
 113.0819891  18.5029013  24.6959570 112.5541253  17.7681773  24.3832807
 112.5807394  19.2803689  24.4499538 118.0612737  16.6978033  29.8126616
 117.4036412  17.3877295  29.9006745 118.8653137  17.0874465  30.1560602
 114.1340570  25.0306730  20.6191229 113.4602269  25.3338427  21.2276187
 114.5206392  25.8335811  20.2696686 113.3499027  12.5271862  30.1088898
 112.4321588  12.7486809  29.9510586 113.7659171  12.6018172  29.2500606
 117.6379992  20.0328408  25.9909700 117.1842319  19.1919317  26.0474891
 117.0073959  20.6689806  26.3284480 116.0812932  21.8704904  26.9259518
 116.3735906  22.4309961  26.2071884 116.5911552  22.1633465  27.6812678
 102.9748895  14.1427332  26.2033735 102.7773295  13.5496693  25.4784801
 102.4195559  13.8379542  26.9209674 110.9545619  14.0350439  28.3228328
 111.0094229  13.0824275  28.2470805 110.1436821  14.1909878  28.8069626
 108.8937979  12.6527498  26.0818707 108.0805844  12.9521669  26.4883899
 109.3896973  12.2583187  26.7993189 111.0446557  22.6485255  28.0152972
 111.0022736  22.8746102  27.0861504 111.9609256  22.4148630  28.1638773
 114.4912191  13.1169323  34.9133601 114.8461578  13.3440796  35.7728067
 115.1384322  13.4487700  34.2910856 120.2479307  18.3064286  30.6294201
 120.6815814  18.2139575  31.4777255 120.9610888  18.2821786  29.9914217
 109.1612358  19.5248284  27.8114934 109.9552956  19.0298605  27.6097509
 108.4504050  18.9966148  27.4482640 113.9807202  21.9066380  32.1627302
 114.0344224  22.4757316  32.9305018 113.1121983  22.0768265  31.7981339
 105.4695121  13.6691366  23.8874687 104.5392709  13.6075822  24.1044649
 105.5652593  13.1467319  23.0911328 105.3880670  10.1946179  26.4752929
 105.6487487  11.1091512  26.3662089 106.2097842   9.7270622  26.6249542
 106.8605595  11.6083936  33.6451753 107.5328649  11.4001298  32.9964402
 106.0335382  11.4106022  33.2056986 121.1094857  18.3487986  33.1627087
 121.3030747  19.2533797  33.4086362 121.0095475  17.8895406  33.9965672
 116.1709965  18.4994729  38.7367967 116.0195472  18.2705281  37.8198051
 116.1614645  19.4565331  38.7499312 112.9395302  16.0726642  33.7214234
 113.8687362  16.2237802  33.5483201 112.5186332  16.1610663  32.8662880
 111.7383634  20.0977306  31.4912771 111.5994719  19.7296091  32.3638710
 110.9498230  20.6124946  31.3196729 112.3331786  25.1986403  22.8338308
 112.5083541  24.7274446  23.6483931 111.6464574  25.8252169  23.0619569
 113.2888849  19.4758909  28.8801609 112.9538681  19.4359679  29.7759259
 112.7892794  18.8103625  28.4072019 107.2633093  14.8826539  34.4054190
 107.1252891  14.1506778  35.0065729 108.1738016  14.7935439  34.1238378
 109.8915393  14.5946498  33.8937870 110.6015012  13.9539691  33.8524488
 109.8484702  14.8459393  34.8164051 117.8802172  21.5313852  36.8144449
 117.8214718  20.8473072  36.1475032 118.2821690  22.2732842  36.3625075
 108.6044327  11.5811716  35.7133509 108.0681684  11.1302455  36.3655106
 108.0161036  11.7157625  34.9703974 106.8992871  28.3475766  29.6078168
 107.1389469  28.9794290  30.2857187 106.0562067  27.9963806  29.8943527
 117.8819579  19.4953436  35.0458429 116.9946358  19.1579357  35.1684828
 118.4518130  18.7636467  35.2827194  99.5348726  15.8277527  28.3701480
 100.2219766  15.5139257  27.7822496  99.3796855  16.7318892  28.0968732
 104.3383449  10.7167724  32.7986504 104.2541637  10.1093394  32.0636914
 103.5166155  11.2076742  32.7996000 111.4120733  24.1554888  32.0119672
 111.3390904  24.9609860  32.5238977 110.9698126  24.3546854  31.1867694
 111.2010512  23.3926658  25.5222494 110.4178034  23.9348338  25.6160718
 111.9003257  23.9100638  25.9216735 113.8719416  24.0541722  34.1677831
 114.5847388  24.6889187  34.0953732 113.3809445  24.1505588  33.3517833
 115.5936943  17.9592975  25.7395122 114.6593222  18.0794437  25.5699827
 115.7713612  17.0565442  25.4755132 108.9231330  21.8036166  34.9883402
 109.6240789  22.4372649  35.1412796 108.4526445  22.1450897  34.2279041
 116.7232616  14.3580773  32.8135952 116.0704066  14.6056680  32.1588405
 117.1012996  13.5444911  32.4798429 113.6839790  24.3940466  26.9164122
 113.8662184  23.5762122  27.3791875 114.5072776  24.6108158  26.4789012
 114.0181955  23.3208651  24.1779171 114.5469722  22.8101106  23.5649333
 114.2810175  23.0051182  25.0424704 112.7720189  15.1000584  39.3001989
 112.0960826  14.9994713  39.9704364 113.5947823  14.9439798  39.7637986
 104.5199048  21.3372521  31.9214504 105.1052485  20.5916208  32.0542408
 104.3223886  21.6476477  32.8051168 107.3737703  24.3723768  26.9376947
 106.7048078  24.8569896  26.4540987 107.2350573  24.6192988  27.8520325
  99.1116703  13.9078121  30.6418947  99.1500802  13.3741711  31.4356066
  98.6056995  13.3813326  30.0229925 111.5142972  26.4067512  33.5359605
 112.0661280  26.5699133  34.3008690 111.8549165  26.9971949  32.8639630
 105.9659737  10.8265794  37.7854524 106.5931776  10.4442871  38.3992048
 105.1087656  10.6079996  38.1510216 116.3653846  21.2328769  39.3908259
 116.9093750  21.8458727  38.8963214 115.7840691  21.7908347  39.9075272
 102.7425280  12.6342223  23.7172879 103.0378721  11.7252901  23.6639933
 101.8413316  12.6129962  23.3953881 114.6511359  24.3549487  30.5223287
 114.5262498  23.5539227  30.0134233 115.3090450  24.8495680  30.0337257
 106.2719527  10.7098220  29.7000427 105.5506113  11.3234187  29.5607901
 107.0612783  11.2455984  29.6217073 116.7146267  22.1558507  32.1502837
 115.7676603  22.0363858  32.0781164 117.0629040  21.2681005  32.2329099
 104.4713122  10.3156321  23.8412204 104.1425828   9.4353700  23.6587310
 104.8252492  10.2603989  24.7288593 113.7192701  21.9511223  28.3507189
 113.5717663  21.0227931  28.5314760 114.5446194  21.9731314  27.8664265
 107.5854945  10.6029290  24.2087682 107.9251017  11.1315212  23.4866290
 108.0327065  10.9409697  24.9846248 117.3226822  22.7739782  29.4372062
 118.2473370  22.5682643  29.2996513 117.1542126  22.5256183  30.3461404
 108.4553436  12.7634774  29.9210051 108.3098017  13.0775077  30.8134333
 107.9778640  13.3819675  29.3680950 117.1122139  23.2925450  24.7934154
 117.2859016  22.7271872  24.0408006 117.6051030  24.0926344  24.6113644
 102.9299098  15.3040119  32.8597713 102.3852567  16.0799927  32.9917987
 103.8078448  15.6510923  32.7016834 103.7165120  14.4310015  35.7527869
 102.9746856  14.5792650  36.3392500 103.3957865  14.6918280  34.8894619
 111.6608783  23.9725993  35.5508259 111.9695909  23.7275140  36.4230959
 112.4584265  24.1772632  35.0627130 111.6829395  26.1263903  27.7813636
 111.2434385  25.6340281  28.4746493 112.4337512  25.5836870  27.5405711
 104.1621734  22.3175444  27.7838264 104.9879754  22.0179215  27.4036908
 103.8115786  21.5483066  28.2328053 109.1303267  21.6701912  29.8535938
 108.5083276  21.0072617  29.5538165 109.8008134  21.6963044  29.1709585
 102.3630339  20.2361770  28.7427198 101.5262247  19.8083944  28.5611199
 102.3353984  20.4294213  29.6797989 119.6882640  20.6924823  38.7269581
 118.8978184  20.6748962  38.1874080 119.4515995  21.2313117  39.4818617
 119.8080515  17.5417289  36.0402309 119.8578520  17.3767297  36.9817832
 119.6994439  16.6744548  35.6500190 108.6916774  20.2205835  23.3294398
 108.8404894  20.9041300  22.6761071 109.4983217  20.2010925  23.8443854
 121.3098712  19.9614231  36.2844331 121.0183520  20.3244212  37.1207792
 120.6970843  19.2481239  36.1057663 119.5585900  15.0846846  34.7524389
 120.0340022  15.2774492  33.9443240 118.6351466  15.1406031  34.5067772
 106.4469407  16.2471013  24.3355467 106.2015449  15.3433343  24.5335677
 106.6165322  16.2488163  23.3934945 105.7165055  11.9799370  21.8341629
 105.0234299  12.0543725  21.1781664 105.4716806  11.2159714  22.3563145
 112.1912180  22.7153966  20.8006146 111.6186147  23.3344153  20.3476617
 112.7644973  23.2653327  21.3346068 112.4597671  18.1032524  39.6022855
 113.3800680  18.2811123  39.7962902 112.4247254  17.1588570  39.4502554
 101.6779836  13.2971118  28.5276130 101.3582620  12.4436426  28.2350504
 101.1313264  13.5119696  29.2834097 105.4559743  16.0133559  32.2445636
 105.6745753  16.9450667  32.2633670 105.8685517  15.6541534  33.0300440
 110.3287608  11.5866765  41.6348385 110.2284335  12.5361122  41.5660476
 110.1109151  11.2585004  40.7624455 101.5468096  16.9174030  30.4969251
 100.8531567  16.5027982  29.9839206 102.2941087  16.9594566  29.9002670
 110.1918879  15.0163904  40.4513447 109.7085960  15.8164264  40.6577336
 110.2779818  15.0271849  39.4980891 103.4604838  16.8492283  28.3735266
 103.4375526  16.9479971  27.4217149 103.7705475  17.6957434  28.6952432
 106.1192216  18.9068438  32.4881881 107.0735470  18.8752381  32.4211812
 105.9204740  18.4459062  33.3032106 106.7091598  17.4769554  35.0552678
 107.5284487  17.9713633  35.0787516 106.9828406  16.5601523  35.0270246
 104.4742445  24.4488058  29.5052078 104.3396913  23.6888459  28.9390076
 104.0574507  25.1728958  29.0380867 107.6311571  25.3457375  29.7170521
 107.5143955  26.2902807  29.6149211 106.8104017  25.0430937  30.1056320
 101.9626512  11.8107688  35.7544875 102.6085376  11.3006642  36.2432100
 101.7543663  12.5476370  36.3288301 114.4879905  18.8788536  41.2537016
 115.3571064  19.0529188  40.8923651 114.0086656  19.6982953  41.1312745
 108.6566085  25.9985637  32.9326450 109.5593332  26.0309247  33.2492944
 108.4303455  25.0686088  32.9472785 110.4119687  24.7516623  29.5936528
 109.4615318  24.7518485  29.4800900 110.7152173  24.0049358  29.0772563
 126.1472380  30.5877162  30.6582291 126.7850790  30.4683909  29.9545631
 126.0293223  31.5358006  30.7170243 122.9562087  30.5404590  30.5943815
 122.6180598  30.4245655  29.7064350 123.8251855  30.1395755  30.5744821
 118.8148902  32.3940066  26.5840706 118.2513767  32.3030003  25.8156994
 118.7001297  31.5739971  27.0643199 123.4381870  31.6939442  36.5530021
 123.4270510  31.2992240  35.6810524 123.6002509  30.9605514  37.1463792
 116.3613334  33.8891258  29.4224927 117.1534626  33.5482083  29.0071226
 116.6009984  33.9986233  30.3427080 124.3948461  36.0611034  21.8955171
 123.7436441  36.6465114  21.5089185 125.1892824  36.5917229  21.9550209
 118.3204088  33.1500171  22.2942305 119.0934964  32.6029158  22.1555181
 118.6729487  34.0144420  22.5056767 120.1589131  34.4776553  35.5009205
 119.8678997  35.3822184  35.3855871 120.7946115  34.5193081  36.2153274
 121.0845338  31.8553402  32.0910564 121.6808910  31.6309424  31.3767527
 121.1420309  31.1138147  32.6936012 120.3766655  31.2120943  22.1285130
 120.2602913  30.5365847  22.7966215 120.4868915  30.7253317  21.3117283
 122.7198196  30.6731090  25.8331820 122.3556403  30.1461711  26.5444741
 123.5765312  30.2829559  25.6598305 128.6247496  21.9625423  33.0963086
 128.2930821  22.8320834  32.8724301 128.0293110  21.6461707  33.7757116
 125.1179016  34.1637969  32.4958998 124.8179739  35.0663008  32.3874806
 124.7730075  33.8970152  33.3480151 118.5691497  30.6151766  28.5295703
 117.6441994  30.4827980  28.7373395 118.8175910  31.3945985  29.0265645
 128.5176160  26.6820509  30.1756436 127.6093037  26.6135918  29.8815197
 128.4663755  27.1592454  31.0038261 115.9300308  30.2585039  29.3639492
 116.0592689  30.5119518  30.2778904 115.2497760  30.8512747  29.0444147
 120.0999796  40.9282289  25.4629966 120.0223825  41.8790114  25.5418447
 119.4961439  40.5828162  26.1204892 122.5917025  28.1010155  38.1191333
 121.8150359  28.6604075  38.1094198 123.2307588  28.5866938  38.6406203
 120.8463398  30.9095608  37.6809300 121.5878082  31.4480652  37.4044124
 120.1400383  31.5361897  37.8380852 126.3218737  33.0524749  36.2781462
 126.7302093  32.6107159  35.5336094 125.5995999  32.4777376  36.5315654
 122.6749807  27.9897355  33.6515018 123.5211003  28.4136769  33.7949667
 122.6148445  27.3330980  34.3453582 126.6447552  33.6125939  30.0333750
 126.0156414  33.7771653  29.3309818 126.2573214  34.0267549  30.8044714
 130.5236784  34.5480377  27.3878114 129.8387822  34.9279278  26.8375147
 130.6080633  35.1575704  28.1210062 125.8249253  25.6501724  35.3096192
 125.5810185  26.4043784  34.7730468 126.1009183  26.0287071  36.1443439
 127.7787715  32.1940336  33.9873458 127.9904611  32.8372096  33.3107839
 127.7317464  31.3602653  33.5195388 125.3813944  24.8058157  30.8910030
 124.5198423  25.1039410  31.1826767 125.4076379  25.0228556  29.9591062
 122.1975514  33.3500347  27.2983835 122.6613859  33.6288050  26.5088458
 121.9332312  32.4483792  27.1156926 119.0899595  32.8971829  30.2363599
 119.6600952  33.3259097  29.5981083 119.6807707  32.6154413  30.9347784
 121.1344400  29.4723500  24.1073401 121.8368443  29.9244543  24.5747327
 120.8025028  28.8307318  24.7353294 119.5824761  28.0635256  38.4824610
 118.9523422  28.7451537  38.7160007 119.4760849  27.9518338  37.5377748
 114.8769734  27.7307052  29.4090534 114.0868788  27.9864581  28.9330645
 115.3680981  28.5455390  29.5142575 128.8933543  35.0712291  32.1595815
 129.7150987  34.6692479  31.8778497 128.8895946  34.9680526  33.1111931
 116.8284479  28.0951632  26.3674011 116.0315643  28.2070326  26.8857507
 116.6010071  28.4338284  25.5014901 122.6590147  34.6196335  34.3156526
 122.7234579  35.0816742  35.1514697 121.9501071  33.9893700  34.4438835
 113.1607437  27.9837543  31.8405525 113.4115475  28.8684553  32.1063101
 113.6966985  27.8042144  31.0680617 122.3738165  36.2864442  24.1835506
 122.2383839  37.1315978  24.6120354 122.9147977  36.4883720  23.4201440
 118.8605504  22.3656022  40.8449861 118.4672450  21.8122221  41.5197505
 119.6771644  22.6766601  41.2356379 115.8267562  33.8039880  24.7563431
 116.3392082  34.5983131  24.9068996 116.4790275  33.1066171  24.6897032
 117.6362447  36.9205637  26.8386184 117.8129075  37.8423601  26.6507168
 118.4319280  36.6064056  27.2680564 121.7773465  23.7813901  38.4370118
 122.5183179  24.3821054  38.3574580 122.0091388  23.0391539  37.8788160
 116.9214803  28.9670268  36.7148347 116.8068318  28.0655526  37.0155446
 116.0659321  29.2133965  36.3633164 124.0006641  36.9088009  38.3135848
 123.5570495  36.1224387  37.9956752 124.6623854  37.0967159  37.6479739
 118.7593762  38.4383810  32.8396526 119.3101187  38.3100874  32.0673520
 117.9205238  38.7378699  32.4891419 126.0987879  37.1890809  36.3417249
 126.0806354  38.0099690  35.8497518 127.0207799  37.0644884  36.5667390
 122.5560933  34.7034938  37.1840758 123.0889270  33.9423226  36.9540066
 122.0275014  34.4108590  37.9264912 113.7916479  32.1328535  25.5323001
 114.6291701  32.5425543  25.3156709 113.9694746  31.1927977  25.5023195
 124.8027168  22.1799659  30.6783633 124.2991964  22.1429794  29.8651438
 125.0957775  23.0892402  30.7380289 121.0470054  22.2638389  29.6849814
 121.9123051  22.0681198  29.3255704 121.1147563  22.0348741  30.6119171
 123.9213646  33.8320931  24.6959570 123.3935007  33.0973690  24.3832807
 123.4201149  34.6095607  24.4499538 128.9006492  32.0269951  29.8126616
 128.2430166  32.7169213  29.9006745 129.7046891  32.4166383  30.1560602
 118.6532373  24.4940597  27.0566181 119.2276125  24.2715778  26.3239374
 119.2403356  24.5629291  27.8094782 124.9734325  40.3598648  20.6191229
 124.2996024  40.6630345  21.2276187 125.3600147  41.1627728  20.2696686
 124.1892782  27.8563779  30.1088898 123.2715343  28.0778726  29.9510586
 124.6052925  27.9310090  29.2500606 128.4773747  35.3620325  25.9909700
 128.0236074  34.5211235  26.0474891 127.8467714  35.9981724  26.3284480
 126.9206686  37.1996822  26.9259518 127.2129660  37.7601879  26.2071884
 127.4305307  37.4925383  27.6812678 113.8142650  29.4719250  26.2033735
 113.6167050  28.8788611  25.4784801 113.2589314  29.1671460  26.9209674
 121.7939373  29.3642356  28.3228328 121.8487983  28.4116193  28.2470805
 120.9830576  29.5201795  28.8069626 119.7331733  27.9819416  26.0818707
 118.9199599  28.2813587  26.4883899 120.2290728  27.5875105  26.7993189
 121.8840311  37.9777173  28.0152972 121.8416490  38.2038019  27.0861504
 122.8003010  37.7440548  28.1638773 125.3305945  28.4461241  34.9133601
 125.6855333  28.6732714  35.7728067 125.9778076  28.7779617  34.2910856
 119.2245808  25.5537772  31.6979942 119.8645187  25.4126531  31.0002905
 118.3923339  25.2672285  31.3218544 131.0873062  33.6356203  30.6294201
 131.5209568  33.5431493  31.4777255 131.8004642  33.6113704  29.9914217
 120.0006112  34.8540202  27.8114934 120.7946711  34.3590522  27.6097509
 119.2897804  34.3258065  27.4482640 124.8200957  37.2358298  32.1627302
 124.8737979  37.8049234  32.9305018 123.9515738  37.4060183  31.7981339
 116.3088876  28.9983284  23.8874687 115.3786464  28.9367739  24.1044649
 116.4046348  28.4759237  23.0911328 116.2274425  25.5238097  26.4752929
 116.4881242  26.4383430  26.3662089 117.0491597  25.0562539  26.6249542
 117.6999350  26.9375854  33.6451753 118.3722403  26.7293216  32.9964402
 116.8729136  26.7397940  33.2056986 131.9488611  33.6779904  33.1627087
 132.1424501  34.5825715  33.4086362 131.8489229  33.2187323  33.9965672
 123.6024922  23.5637795  35.6617414 122.9552837  24.2627744  35.5681890
 124.3725937  23.9973939  36.0293662 127.0103720  33.8286647  38.7367967
 126.8589226  33.5997199  37.8198051 127.0008399  34.7857248  38.7499312
 123.7789056  31.4018560  33.7214234 124.7081116  31.5529719  33.5483201
 123.3580086  31.4902580  32.8662880 122.5777388  35.4269224  31.4912771
 122.4388474  35.0588008  32.3638710 121.7891984  35.9416863  31.3196729
 123.1725540  40.5278321  22.8338308 123.3477296  40.0566364  23.6483931
 122.4858328  41.1544087  23.0619569 124.1282603  34.8050827  28.8801609
 123.7932436  34.7651597  29.7759259 123.6286549  34.1395543  28.4072019
 118.1026847  30.2118457  34.4054190 117.9646645  29.4798696  35.0065729
 119.0131771  30.1227357  34.1238378 120.7309148  29.9238416  33.8937870
 121.4408766  29.2831608  33.8524488 120.6878456  30.1751311  34.8164051
 128.7195927  36.8605769  36.8144449 128.6608473  36.1764990  36.1475032
 129.1215445  37.6024759  36.3625075 119.4438082  26.9103634  35.7133509
 118.9075439  26.4594372  36.3655106 118.8554790  27.0449543  34.9703974
 117.7386625  43.6767683  29.6078168 117.9783224  44.3086207  30.2857187
 116.8955822  43.3255723  29.8943527 128.7213334  34.8245353  35.0458429
 127.8340113  34.4871275  35.1684828 129.2911885  34.0928385  35.2827194
 110.3742481  31.1569445  28.3701480 111.0613521  30.8431175  27.7822496
 110.2190610  32.0610810  28.0968732 115.1777203  26.0459642  32.7986504
 115.0935392  25.4385311  32.0636914 114.3559909  26.5368660  32.7996000
 122.2514487  39.4846806  32.0119672 122.1784659  40.2901777  32.5238977
 121.8091880  39.6838772  31.1867694 122.0404267  38.7218576  25.5222494
 121.2571789  39.2640256  25.6160718 122.7397012  39.2392555  25.9216735
 124.7113171  39.3833640  34.1677831 125.4241143  40.0181105  34.0953732
 124.2203199  39.4797506  33.3517833 126.4330698  33.2884892  25.7395122
 125.4986976  33.4086355  25.5699827 126.6107366  32.3857359  25.4755132
 121.9335886  26.6730588  27.8928384 121.5633673  26.1201629  28.5809289
 122.4294978  26.0688722  27.3403384 119.7625084  37.1328083  34.9883402
 120.4634544  37.7664566  35.1412796 119.2920199  37.4742815  34.2279041
 127.5626370  29.6872691  32.8135952 126.9097820  29.9348598  32.1588405
 127.9406750  28.8736829  32.4798429 124.5233544  39.7232384  26.9164122
 124.7055939  38.9054040  27.3791875 125.3466530  39.9400076  26.4789012
 124.8575710  38.6500569  24.1779171 125.3863476  38.1393024  23.5649333
 125.1203929  38.3343099  25.0424704 123.6113943  30.4292502  39.3001989
 122.9354580  30.3286631  39.9704364 124.4341577  30.2731715  39.7637986
 115.3592802  36.6664438  31.9214504 115.9446239  35.9208126  32.0542408
 115.1617641  36.9768395  32.8051168 118.2131458  39.7015686  26.9376947
 117.5441833  40.1861813  26.4540987 118.0744327  39.9484906  27.8520325
 109.9510457  29.2370038  30.6418947 109.9894557  28.7033629  31.4356066
 109.4450750  28.7105244  30.0229925 122.3536726  41.7359429  33.5359605
 122.9055034  41.8991051  34.3008690 122.6942920  42.3263867  32.8639630
 117.3301219  24.0834579  34.1381490 117.3942546  24.9449410  33.7258887
 117.2668340  23.4708581  33.4053848 116.8053492  26.1557712  37.7854524
 117.4325531  25.7734789  38.3992048 115.9481411  25.9371913  38.1510216
 127.2047600  36.5620687  39.3908259 127.7487504  37.1750645  38.8963214
 126.6234445  37.1200265  39.9075272 113.5819035  27.9634141  23.7172879
 113.8772476  27.0544819  23.6639933 112.6807070  27.9421880  23.3953881
 125.4905113  39.6841405  30.5223287 125.3656253  38.8831145  30.0134233
 126.1484204  40.1787598  30.0337257 117.1113282  26.0390137  29.7000427
 116.3899867  26.6526105  29.5607901 117.9006537  26.5747902  29.6217073
 127.5540022  37.4850425  32.1502837 126.6070357  37.3655776  32.0781164
 127.9022795  36.5972923  32.2329099 119.9139595  23.3744564  35.9741079
 120.4373997  23.6206860  36.7367388 119.6951928  24.2064599  35.5544217
 115.3106876  25.6448238  23.8412204 114.9819582  24.7645617  23.6587310
 115.6646247  25.5895907  24.7288593 124.5586455  37.2803141  28.3507189
 124.4111417  36.3519848  28.5314760 125.3839949  37.3023232  27.8664265
 118.4248699  25.9321208  24.2087682 118.7644772  26.4607129  23.4866290
 118.8720820  26.2701614  24.9846248 128.1620577  38.1031700  29.4372062
 129.0867124  37.8974561  29.2996513 127.9935880  37.8548101  30.3461404
 121.1192140  24.3158259  33.6590750 120.7788961  23.5166072  34.0611430
 120.4131146  24.6159970  33.0867583 121.7708612  21.4007571  32.1118073
 122.5934681  20.9268049  31.9896963 122.0146676  22.1798055  32.6116759
 119.2947191  28.0926692  29.9210051 119.1491771  28.4066995  30.8134333
 118.8172394  28.7111592  29.3680950 121.1543574  25.0829240  29.9690941
 121.1405142  24.1870333  29.6323239 121.8716002  25.0899904  30.6029227
 123.0069704  25.5166580  32.0144068 122.7487482  26.4383651  32.0128399
 122.4754745  25.1197015  32.7044532 127.9515893  38.6217367  24.7934154
 128.1252771  38.0563790  24.0408006 128.4444784  39.4218262  24.6113644
 113.7692853  30.6332036  32.8597713 113.2246321  31.4091844  32.9917987
 114.6472203  30.9802841  32.7016834 114.5558875  29.7601933  35.7527869
 113.8140611  29.9084568  36.3392500 114.2351619  30.0210198  34.8894619
 122.5002537  39.3017911  35.5508259 122.8089664  39.0567058  36.4230959
 123.2978019  39.5064549  35.0627130 122.5223149  41.4555820  27.7813636
 122.0828140  40.9632199  28.4746493 123.2731266  40.9128788  27.5405711
 115.0015488  37.6467361  27.7838264 115.8273508  37.3471133  27.4036908
 114.6509540  36.8774984  28.2328053 119.9697022  36.9993829  29.8535938
 119.3477031  36.3364535  29.5538165 120.6401889  37.0254961  29.1709585
 113.2024094  35.5653688  28.7427198 112.3656002  35.1375862  28.5611199
 113.1747739  35.7586131  29.6797989 120.0421549  25.4775618  39.4468444
 120.0909705  26.3537740  39.0646213 120.5844063  24.9353011  38.8740087
 130.5276395  36.0216741  38.7269581 129.7371938  36.0040880  38.1874080
 130.2909749  36.5605034  39.4818617 130.6474270  32.8709207  36.0402309
 130.6972275  32.7059215  36.9817832 130.5388193  32.0036466  35.6500190
 119.5310529  35.5497753  23.3294398 119.6798649  36.2333217  22.6761071
 120.3376972  35.5302843  23.8443854 127.9378032  28.8540135  37.3561616
 128.8387895  28.7146600  37.0645614 128.0126007  29.0194590  38.2959793
 122.2720838  26.2306990  36.2014802 121.4024147  26.5240556  35.9297391
 122.5080318  26.8147435  36.9222066 132.1492467  35.2906149  36.2844331
 131.8577275  35.6536129  37.1207792 131.5364598  34.5773157  36.1057663
 130.3979655  30.4138763  34.7524389 130.8733777  30.6066410  33.9443240
 129.4745220  30.4697949  34.5067772 117.2863162  31.5762930  24.3355467
 117.0409203  30.6725260  24.5335677 117.4559076  31.5780081  23.3934945
 124.9759871  22.4486607  33.7180223 125.4941815  23.1847634  33.3926711
 124.6215004  22.7550600  34.5526982 116.5558809  27.3091288  21.8341629
 115.8628054  27.3835643  21.1781664 116.3110561  26.5451632  22.3563145
 123.0305934  38.0445883  20.8006146 122.4579901  38.6636070  20.3476617
 123.6038728  38.5945245  21.3346068 129.0981324  27.2904523  32.9852694
 130.0498747  27.3902621  33.0064918 128.9284774  26.4982792  33.4950779
 127.1195703  24.3760107  33.1712095 126.5245635  24.6565119  32.4758584
 126.8345400  24.8654008  33.9428836 131.5769402  30.5110643  32.0994994
 131.5445722  29.5726644  32.2854678 132.1870025  30.5894680  31.3660819
 123.2991425  33.4324442  39.6022855 124.2194435  33.6103041  39.7962902
 123.2641008  32.4880488  39.4502554 112.5173590  28.6263036  28.5276130
 112.1976374  27.7728344  28.2350504 111.9707018  28.8411614  29.2834097
 116.2953498  31.3425477  32.2445636 116.5139507  32.2742585  32.2633670
 116.7079271  30.9833451  33.0300440 121.1681363  26.9158683  41.6348385
 121.0678090  27.8653040  41.5660476 120.9502905  26.5876921  40.7624455
 112.3861850  32.2465947  30.4969251 111.6925322  31.8319900  29.9839206
 113.1334841  32.2886484  29.9002670 121.0312633  30.3455821  40.4513447
 120.5479715  31.1456182  40.6577336 121.1173572  30.3563766  39.4980891
 114.2998593  32.1784201  28.3735266 114.2769281  32.2771888  27.4217149
 114.6099229  33.0249352  28.6952432 116.9585970  34.2360356  32.4881881
 117.9129224  34.2044298  32.4211812 116.7598494  33.7750980  33.3032106
 117.5485353  32.8061472  35.0552678 118.3678242  33.3005551  35.0787516
 117.8222160  31.8893440  35.0270246 115.3136199  39.7779976  29.5052078
 115.1790667  39.0180376  28.9390076 114.8968262  40.5020875  29.0380867
 118.4705325  40.6749293  29.7170521 118.3537709  41.6194725  29.6149211
 117.6497771  40.3722854  30.1056320 112.8020267  27.1399606  35.7544875
 113.4479130  26.6298560  36.2432100 112.5937418  27.8768288  36.3288301
 125.3273659  34.2080454  41.2537016 126.1964819  34.3821106  40.8923651
 124.8480411  35.0274870  41.1312745 119.4959839  41.3277555  32.9326450
 120.3987086  41.3601165  33.2492944 119.2697209  40.3978005  32.9472785
 121.2513441  40.0808541  29.5936528 120.3009072  40.0810403  29.4800900
 121.5545927  39.3341276  29.0772563 117.1417758  24.2867223  39.8519890
 118.0049219  23.9304028  40.0623214 116.5683169  23.9481118  40.5395294
 133.7955841  45.8696508  30.5943815 133.4574353  45.7537572  29.7064350
 134.6645609  45.4687673  30.5744821 129.6542657  47.7231984  26.5840706
 129.0907522  47.6321921  25.8156994 129.5395052  46.9031888  27.0643199
 134.2775624  47.0231359  36.5530021 134.2664265  46.6284158  35.6810524
 134.4396264  46.2897432  37.1463792 127.2007089  49.2183176  29.4224927
 127.9928381  48.8774000  29.0071226 127.4403739  49.3278151  30.3427080
 135.2342215  51.3902952  21.8955171 134.5830195  51.9757032  21.5089185
 136.0286578  51.9209147  21.9550209 129.1597843  48.4792089  22.2942305
 129.9328719  47.9321076  22.1555181 129.5123242  49.3436338  22.5056767
 130.9982885  49.8068471  35.5009205 130.7072751  50.7114102  35.3855871
 131.6339870  49.8484999  36.2153274 131.9239092  47.1845320  32.0910564
 132.5202664  46.9601342  31.3767527 131.9814064  46.4430065  32.6936012
 131.2160409  46.5412861  22.1285130 131.0996667  45.8657764  22.7966215
 131.3262669  46.0545235  21.3117283 133.5591950  46.0023008  25.8331820
 133.1950157  45.4753629  26.5444741 134.4159066  45.6121477  25.6598305
 135.9572770  49.4929887  32.4958998 135.6573493  50.3954925  32.3874806
 135.6123830  49.2262070  33.3480151 129.4085252  45.9443683  28.5295703
 128.4835748  45.8119898  28.7373395 129.6569665  46.7237903  29.0265645
 126.7694063  45.5876957  29.3639492 126.8986444  45.8411436  30.2778904
 126.0891514  46.1804665  29.0444147 130.9393550  56.2574207  25.4629966
 130.8617580  57.2082032  25.5418447 130.3355194  55.9120079  26.1204892
 133.4310780  43.4302072  38.1191333 132.6544114  43.9895993  38.1094198
 134.0701343  43.9158855  38.6406203 131.6857152  46.2387526  37.6809300
 132.4271837  46.7772570  37.4044124 130.9794138  46.8653814  37.8380852
 137.1612492  48.3816666  36.2781462 137.5695848  47.9399077  35.5336094
 136.4389753  47.8069294  36.5315654 133.5143562  43.3189273  33.6515018
 134.3604757  43.7428687  33.7949667 133.4542200  42.6622897  34.3453582
 137.4841306  48.9417857  30.0333750 136.8550169  49.1063571  29.3309818
 137.0966969  49.3559466  30.8044714 136.6643007  40.9793641  35.3096192
 136.4203939  41.7335702  34.7730468 136.9402938  41.3578989  36.1443439
 136.2207699  40.1350074  30.8910030 135.3592178  40.4331328  31.1826767
 136.2470134  40.3520473  29.9591062 133.0369268  48.6792265  27.2983835
 133.5007614  48.9579968  26.5088458 132.7726066  47.7775709  27.1156926
 129.9293349  48.2263746  30.2363599 130.4994706  48.6551015  29.5981083
 130.5201461  47.9446331  30.9347784 131.9738154  44.8015417  24.1073401
 132.6762198  45.2536461  24.5747327 131.6418783  44.1599236  24.7353294
 130.4218516  43.3927174  38.4824610 129.7917176  44.0743455  38.7160007
 130.3154604  43.2810256  37.5377748 125.7163488  43.0598970  29.4090534
 124.9262542  43.3156498  28.9330645 126.2074736  43.8747308  29.5142575
 127.6678234  43.4243549  26.3674011 126.8709397  43.5362243  26.8857507
 127.4403826  43.7630201  25.5014901 133.4983901  49.9488252  34.3156526
 133.5628334  50.4108660  35.1514697 132.7894825  49.3185617  34.4438835
 124.0001191  43.3129460  31.8405525 124.2509230  44.1976470  32.1063101
 124.5360740  43.1334062  31.0680617 133.2131919  51.6156360  24.1835506
 133.0777594  52.4607896  24.6120354 133.7541732  51.8175638  23.4201440
 129.6999259  37.6947940  40.8449861 129.3066204  37.1414138  41.5197505
 130.5165399  38.0058518  41.2356379 126.6661316  49.1331798  24.7563431
 127.1785837  49.9275048  24.9068996 127.3184029  48.4358088  24.6897032
 128.4756201  52.2497554  26.8386184 128.6522829  53.1715519  26.6507168
 129.2713035  51.9355973  27.2680564 132.6167220  39.1105819  38.4370118
 133.3576933  39.7112972  38.3574580 132.8485142  38.3683457  37.8788160
 127.7608558  44.2962186  36.7148347 127.6462073  43.3947443  37.0155446
 126.9053075  44.5425883  36.3633164 134.8400395  52.2379926  38.3135848
 134.3964250  51.4516305  37.9956752 135.5017609  52.4259077  37.6479739
 129.5987517  53.7675728  32.8396526 130.1494942  53.6392791  32.0673520
 128.7598992  54.0670617  32.4891419 133.3954688  50.0326856  37.1840758
 133.9283024  49.2715144  36.9540066 132.8668769  49.7400508  37.9264912
 124.6310233  47.4620452  25.5323001 125.4685455  47.8717461  25.3156709
 124.8088501  46.5219894  25.5023195 135.6420923  37.5091577  30.6783633
 135.1385719  37.4721712  29.8651438 135.9351530  38.4184320  30.7380289
 131.8863809  37.5930307  29.6849814 132.7516806  37.3973115  29.3255704
 131.9541318  37.3640658  30.6119171 134.7607400  49.1612848  24.6959570
 134.2328762  48.4265608  24.3832807 134.2594903  49.9387525  24.4499538
 129.4926128  39.8232515  27.0566181 130.0669880  39.6007696  26.3239374
 130.0797110  39.8921209  27.8094782 135.8128079  55.6890566  20.6191229
 135.1389778  55.9922263  21.2276187 136.1993901  56.4919646  20.2696686
 135.0286536  43.1855697  30.1088898 134.1109097  43.4070644  29.9510586
 135.4446680  43.2602008  29.2500606 124.6536404  44.8011168  26.2033735
 124.4560804  44.2080528  25.4784801 124.0983068  44.4963378  26.9209674
 132.6333128  44.6934274  28.3228328 132.6881738  43.7408110  28.2470805
 131.8224330  44.8493713  28.8069626 130.5725488  43.3111334  26.0818707
 129.7593353  43.6105504  26.4883899 131.0684482  42.9167023  26.7993189
 132.7234066  53.3069091  28.0152972 132.6810245  53.5329937  27.0861504
 133.6396765  53.0732465  28.1638773 136.1699700  43.7753158  34.9133601
 136.5249087  44.0024631  35.7728067 136.8171831  44.1071535  34.2910856
 130.0639563  40.8829689  31.6979942 130.7038942  40.7418448  31.0002905
 129.2317093  40.5964203  31.3218544 130.8399867  50.1832120  27.8114934
 131.6340465  49.6882440  27.6097509 130.1291559  49.6549983  27.4482640
 135.6594711  52.5650215  32.1627302 135.7131733  53.1341152  32.9305018
 134.7909492  52.7352100  31.7981339 127.1482630  44.3275201  23.8874687
 126.2180218  44.2659657  24.1044649 127.2440102  43.8051154  23.0911328
 127.0668179  40.8530014  26.4752929 127.3274996  41.7675348  26.3662089
 127.8885351  40.3854457  26.6249542 128.5393104  42.2667771  33.6451753
 129.2116158  42.0585134  32.9964402 127.7122891  42.0689857  33.2056986
 134.4418676  38.8929712  35.6617414 133.7946591  39.5919662  35.5681890
 135.2119692  39.3265856  36.0293662 134.6182811  46.7310477  33.7214234
 135.5474871  46.8821637  33.5483201 134.1973841  46.8194498  32.8662880
 133.4171143  50.7561142  31.4912771 133.2782228  50.3879926  32.3638710
 132.6285739  51.2708781  31.3196729 134.0119295  55.8570238  22.8338308
 134.1871050  55.3858281  23.6483931 133.3252083  56.4836004  23.0619569
 134.9676358  50.1342744  28.8801609 134.6326190  50.0943514  29.7759259
 134.4680303  49.4687460  28.4072019 128.9420602  45.5410374  34.4054190
 128.8040400  44.8090613  35.0065729 129.8525525  45.4519275  34.1238378
 131.5702902  45.2530334  33.8937870 132.2802521  44.6123526  33.8524488
 131.5272210  45.5043229  34.8164051 130.2831836  42.2395552  35.7133509
 129.7469193  41.7886290  36.3655106 129.6948545  42.3741460  34.9703974
 128.5780380  59.0059601  29.6078168 128.8176978  59.6378125  30.2857187
 127.7349576  58.6547641  29.8943527 121.2136235  46.4861363  28.3701480
 121.9007275  46.1723093  27.7822496 121.0584364  47.3902727  28.0968732
 126.0170958  41.3751559  32.7986504 125.9329146  40.7677229  32.0636914
 125.1953664  41.8660578  32.7996000 133.0908242  54.8138723  32.0119672
 133.0178413  55.6193695  32.5238977 132.6485635  55.0130689  31.1867694
 132.8798021  54.0510493  25.5222494 132.0965543  54.5932174  25.6160718
 133.5790766  54.5684473  25.9216735 135.5506925  54.7125557  34.1677831
 136.2634897  55.3473022  34.0953732 135.0596954  54.8089423  33.3517833
 137.2724452  48.6176810  25.7395122 136.3380731  48.7378273  25.5699827
 137.4501121  47.7149277  25.4755132 132.7729640  42.0022506  27.8928384
 132.4027428  41.4493546  28.5809289 133.2688733  41.3980639  27.3403384
 130.6018839  52.4620001  34.9883402 131.3028298  53.0956484  35.1412796
 130.1313954  52.8034732  34.2279041 135.3627299  55.0524302  26.9164122
 135.5449693  54.2345957  27.3791875 136.1860285  55.2691994  26.4789012
 135.6969464  53.9792487  24.1779171 136.2257230  53.4684941  23.5649333
 135.9597684  53.6635017  25.0424704 134.4507698  45.7584419  39.3001989
 133.7748335  45.6578549  39.9704364 135.2735332  45.6023633  39.7637986
 126.1986557  51.9956356  31.9214504 126.7839994  51.2500044  32.0542408
 126.0011395  52.3060313  32.8051168 129.0525212  55.0307603  26.9376947
 128.3835587  55.5153731  26.4540987 128.9138082  55.2776824  27.8520325
 120.7904212  44.5661956  30.6418947 120.8288311  44.0325547  31.4356066
 120.2844504  44.0397162  30.0229925 133.1930481  57.0651347  33.5359605
 133.7448789  57.2282968  34.3008690 133.5336674  57.6555785  32.8639630
 128.1694974  39.4126497  34.1381490 128.2336300  40.2741328  33.7258887
 128.1062094  38.8000498  33.4053848 127.6447246  41.4849629  37.7854524
 128.2719285  41.1026707  38.3992048 126.7875165  41.2663831  38.1510216
 124.4212789  43.2926058  23.7172879 124.7166230  42.3836737  23.6639933
 123.5200825  43.2713798  23.3953881 136.3298868  55.0133322  30.5223287
 136.2050007  54.2123062  30.0134233 136.9877959  55.5079516  30.0337257
 127.9507036  41.3682055  29.7000427 127.2293622  41.9818023  29.5607901
 128.7400292  41.9039820  29.6217073 130.7533350  38.7036481  35.9741079
 131.2767751  38.9498778  36.7367388 130.5345683  39.5356516  35.5544217
 126.1500631  40.9740156  23.8412204 125.8213337  40.0937535  23.6587310
 126.5040001  40.9187825  24.7288593 135.3980210  52.6095059  28.3507189
 135.2505172  51.6811766  28.5314760 136.2233703  52.6315149  27.8664265
 129.2642454  41.2613126  24.2087682 129.6038526  41.7899047  23.4866290
 129.7114574  41.5993532  24.9846248 131.9585895  39.6450176  33.6590750
 131.6182715  38.8457990  34.0611430 131.2524901  39.9451887  33.0867583
 132.6102366  36.7299489  32.1118073 133.4328436  36.2559967  31.9896963
 132.8540430  37.5089973  32.6116759 130.1340945  43.4218610  29.9210051
 129.9885526  43.7358913  30.8134333 129.6566149  44.0403510  29.3680950
 131.9937328  40.4121158  29.9690941 131.9798897  39.5162251  29.6323239
 132.7109756  40.4191821  30.6029227 133.8463459  40.8458498  32.0144068
 133.5881237  41.7675568  32.0128399 133.3148499  40.4488932  32.7044532
 124.6086607  45.9623954  32.8597713 124.0640075  46.7383762  32.9917987
 125.4865957  46.3094758  32.7016834 125.3952629  45.0893850  35.7527869
 124.6534365  45.2376486  36.3392500 125.0745374  45.3502116  34.8894619
 133.3396292  54.6309828  35.5508259 133.6483418  54.3858975  36.4230959
 134.1371774  54.8356467  35.0627130 133.3616904  56.7847738  27.7813636
 132.9221894  56.2924117  28.4746493 134.1125021  56.2420706  27.5405711
 125.8409243  52.9759279  27.7838264 126.6667263  52.6763051  27.4036908
 125.4903295  52.2066901  28.2328053 130.8090776  52.3285747  29.8535938
 130.1870785  51.6656452  29.5538165 131.4795643  52.3546879  29.1709585
 124.0417848  50.8945605  28.7427198 123.2049756  50.4667780  28.5611199
 124.0141493  51.0878049  29.6797989 130.8815304  40.8067535  39.4468444
 130.9303459  41.6829658  39.0646213 131.4237818  40.2644928  38.8740087
 130.3704283  50.8789671  23.3294398 130.5192403  51.5625135  22.6761071
 131.1770726  50.8594761  23.8443854 133.1114592  41.5598908  36.2014802
 132.2417901  41.8532474  35.9297391 133.3474072  42.1439353  36.9222066
 128.1256916  46.9054848  24.3355467 127.8802958  46.0017178  24.5335677
 128.2952831  46.9071999  23.3934945 135.8153626  37.7778525  33.7180223
 136.3335570  38.5139551  33.3926711 135.4608759  38.0842518  34.5526982
 127.3952564  42.6383206  21.8341629 126.7021808  42.7127561  21.1781664
 127.1504315  41.8743549  22.3563145 133.8699689  53.3737801  20.8006146
 133.2973656  53.9927988  20.3476617 134.4432482  53.9237163  21.3346068
 134.1385180  48.7616360  39.6022855 135.0588189  48.9394959  39.7962902
 134.1034763  47.8172405  39.4502554 123.3567345  43.9554954  28.5276130
 123.0370129  43.1020262  28.2350504 122.8100773  44.1703532  29.2834097
 127.1347252  46.6717395  32.2445636 127.3533262  47.6034502  32.2633670
 127.5473026  46.3125369  33.0300440 132.0075117  42.2450600  41.6348385
 131.9071844  43.1944957  41.5660476 131.7896659  41.9168839  40.7624455
 123.2255605  47.5757865  30.4969251 122.5319076  47.1611818  29.9839206
 123.9728596  47.6178402  29.9002670 131.8706387  45.6747739  40.4513447
 131.3873469  46.4748099  40.6577336 131.9567327  45.6855684  39.4980891
 125.1392347  47.5076119  28.3735266 125.1163035  47.6063806  27.4217149
 125.4492984  48.3541270  28.6952432 127.7979725  49.5652274  32.4881881
 128.7522979  49.5336216  32.4211812 127.5992249  49.1042898  33.3032106
 128.3879107  48.1353390  35.0552678 129.2071996  48.6297469  35.0787516
 128.6615915  47.2185358  35.0270246 126.1529954  55.1071893  29.5052078
 126.0184422  54.3472294  28.9390076 125.7362016  55.8312793  29.0380867
 129.3099080  56.0041210  29.7170521 129.1931464  56.9486643  29.6149211
 128.4891526  55.7014772  30.1056320 123.6414021  42.4691524  35.7544875
 124.2872885  41.9590478  36.2432100 123.4331172  43.2060205  36.3288301
 136.1667414  49.5372371  41.2537016 137.0358573  49.7113023  40.8923651
 135.6874165  50.3566788  41.1312745 130.3353594  56.6569472  32.9326450
 131.2380840  56.6893082  33.2492944 130.1090964  55.7269923  32.9472785
 132.0907196  55.4100459  29.5936528 131.1402827  55.4102320  29.4800900
 132.3939682  54.6633193  29.0772563 127.9811512  39.6159141  39.8519890
 128.8442974  39.2595946  40.0623214 127.4076923  39.2773036  40.5395294
 136.5557243  58.3890888  29.4090534 135.7656297  58.6448416  28.9330645
 137.0468490  59.2039225  29.5142575 134.8394946  58.6421378  31.8405525
 135.0902984  59.5268388  32.1063101 135.3754494  58.4625980  31.0680617
 135.4703988  62.7912370  25.5323001 136.3079210  63.2009378  25.3156709
 135.6482255  61.8511812  25.5023195 135.4930159  60.1303085  26.2033735
 135.2954559  59.5372446  25.4784801 134.9376823  59.8255295  26.9209674
 132.0529990  61.8153280  28.3701480 132.7401030  61.5015011  27.7822496
 131.8978119  62.7194645  28.0968732 136.8564712  56.7043477  32.7986504
 136.7722901  56.0969147  32.0636914 136.0347418  57.1952495  32.7996000
 131.6297966  59.8953874  30.6418947 131.6682066  59.3617465  31.4356066
 131.1238259  59.3689079  30.0229925 135.2606544  58.6217976  23.7172879
 135.5559985  57.7128654  23.6639933 134.3594579  58.6005715  23.3953881
 136.9894385  56.3032074  23.8412204 136.6607091  55.4229453  23.6587310
 137.3433756  56.2479742  24.7288593 135.4480362  61.2915872  32.8597713
 134.9033830  62.0675680  32.9917987 136.3259712  61.6386676  32.7016834
 136.2346384  60.4185768  35.7527869 135.4928120  60.5668403  36.3392500
 135.9139128  60.6794034  34.8894619 136.6802997  68.3051197  27.7838264
 137.5061017  68.0054968  27.4036908 136.3297049  67.5358819  28.2328053
 134.8811602  66.2237523  28.7427198 134.0443511  65.7959697  28.5611199
 134.8535248  66.4169966  29.6797989 134.1961099  59.2846871  28.5276130
 133.8763883  58.4312179  28.2350504 133.6494527  59.4995449  29.2834097
 134.0649359  62.9049783  30.4969251 133.3712831  62.4903735  29.9839206
 134.8122350  62.9470319  29.9002670 135.9786102  62.8368036  28.3735266
 135.9556790  62.9355724  27.4217149 136.2886738  63.6833187  28.6952432
 136.9923708  70.4363811  29.5052078 136.8578176  69.6764212  28.9390076
 136.5755771  71.1604711  29.0380867 134.4807776  57.7983441  35.7544875
 135.1266639  57.2882395  36.2432100 134.2724927  58.5352123  36.3288301
   0.7657426  58.3821720 116.3501233   1.2908750  58.7208993 115.6250553
   0.6779779  57.4468735 116.1664368   6.9141072  68.9106962 123.5865141
   7.5519482  68.7913710 122.8828481   6.7961915  69.8587806 123.6453093
   3.7230778  68.8634390 123.5226666   3.3849290  68.7475455 122.6347201
   4.5920547  68.4625555 123.5027672   5.1617153  74.3840834 114.8238022
   4.5105133  74.9694915 114.4372035   5.9561516  74.9147029 114.8833059
   1.8514029  70.1783202 125.0193415   2.4477602  69.9539225 124.3050378
   1.9089001  69.4367948 125.6218863   1.4239058  67.6322638 112.8543606
   1.6764578  67.1104159 112.0927069   0.4863617  67.4688783 112.9570289
   6.4682341  66.6358416 120.6618349   7.2545430  66.2177839 120.3108766
   6.7321045  67.5404508 120.8299997   6.6392418  72.0731266 115.3607006
   6.0038251  72.1465893 116.0727910   6.3089824  72.6624865 114.6826085
  11.8690768  66.5733649 121.5651328  12.6015940  66.0032866 121.7989157
  11.1130123  66.1855250 122.0057833   1.1435347  69.5350744 115.0567981
   1.0271605  68.8595647 115.7249065   1.2537606  69.0483118 114.2400134
   3.4866887  68.9960891 118.7614670   3.1225095  68.4691512 119.4727591
   4.3434003  68.6059360 118.5881155   3.1272374  64.0250790 113.7576019
   3.2946777  64.8931027 114.1246490   2.9369544  64.1878072 112.8337308
   5.8847708  72.4867769 125.4241849   5.5848431  73.3892808 125.3157656
   5.5398767  72.2199953 126.2763002   9.2844851  65.0050310 123.1039286
   8.3761729  64.9365718 122.8098047   9.2332447  65.4822254 123.9321112
   3.1061595  66.4808448 114.7422685   2.9861221  66.9265499 115.5808166
   2.4114184  66.8293766 114.1836223  11.1506498  63.2066748 124.8817160
  10.5080878  63.4999281 124.2356955  10.6461426  63.0919668 125.6870357
   8.8046661  66.9529921 115.5703019   9.7164518  67.1857308 115.3950717
   8.2956309  67.5366965 115.0078098   7.4116244  71.9355740 122.9616601
   6.7825106  72.1001454 122.2592669   7.0241906  72.3497349 123.7327565
  11.2905476  72.8710177 120.3160965  10.6056514  73.2509079 119.7657998
  11.3749325  73.4805504 121.0492912   8.5456407  70.5170136 126.9156308
   8.7573303  71.1601896 126.2390689   8.4986156  69.6832453 126.4478238
   2.9644206  71.6730148 120.2266686   3.4282551  71.9517851 119.4371308
   2.7001004  70.7713592 120.0439777   1.9013092  67.7953300 117.0356251
   2.6037135  68.2474344 117.5030177   1.5693720  67.1537119 117.6636144
   9.6602235  73.3942092 125.0878665  10.4819679  72.9922279 124.8061347
   9.6564638  73.2910326 126.0394781  17.7508228  69.7380840 121.4363637
  16.9971937  69.1688238 121.2807641  17.8855769  69.7043505 122.3834272
   3.1406856  74.6094243 117.1118356   3.0052531  75.4545778 117.5403204
   3.6816669  74.8113520 116.3484290   6.4549603  68.1233416 114.1489685
   5.9396226  68.8938020 114.3878072   6.1826911  67.4498552 114.7722746
   4.0396714  62.9683116 119.2074923   3.1838310  62.5789967 119.0280562
   4.4523665  63.0475077 118.3474709  11.4283877  70.8765770 116.0842858
  10.6513320  70.5376930 115.6398020  12.1075358  70.8818393 115.4097823
   6.2435906  65.9960508 115.9749466   5.9386041  66.3106657 116.8259609
   7.1966348  66.0741928 116.0176799   4.6882338  72.1550731 117.6242420
   4.1603699  71.4203491 117.3115657   4.1869840  72.9325407 117.3782388
   9.6675184  70.3499752 122.7409466   9.0098858  71.0399013 122.8289595
  10.4715583  70.7396183 123.0843453   8.4780642  68.7044124 120.7913408
   8.9912524  69.3374116 121.2935118   9.1281866  68.1045320 120.4256768
   1.7223733  59.6911646 118.7124101   1.0688145  59.3760663 118.0880716
   1.6804207  59.0687387 119.4383924   2.8334938  69.9730941 110.6277393
   1.9262000  69.7420195 110.8268542   3.3305970  69.1768561 110.8151375
   5.7403017  78.6828449 113.5474079   5.0664715  78.9860145 114.1559037
   6.1268839  79.4857529 113.1979536   4.9561473  66.1793580 123.0371749
   4.0384035  66.4008527 122.8793437   5.3721617  66.2539890 122.1783456
   5.7396521  67.5784995 118.1674429   6.4868340  68.0906393 117.8581551
   6.0088111  67.2569048 119.0278822   4.0123171  70.0743536 115.1501383
   3.1034391  69.7902569 115.2473853   4.0418255  70.4942615 114.2904690
   9.2442439  73.6850126 118.9192551   8.7904766  72.8441036 118.9757741
   8.6136405  74.3211524 119.2567331   8.1875358  64.6142112 120.1493218
   7.4498115  64.1019498 120.4803461   8.4402132  64.1742493 119.3376495
   7.6875378  75.5226622 119.8542369   7.9798352  76.0831679 119.1354734
   8.1973998  75.8155183 120.6095528   8.2886986  57.3918364 120.7434987
   8.5945862  56.5315727 120.4560903   9.0139590  57.9835984 120.5433981
   2.5608065  67.6872157 121.2511179   2.6156675  66.7345993 121.1753655
   1.7499267  67.8431596 121.7352477   3.7099259  71.6152280 112.4889462
   3.2718689  70.8988139 112.0295099   4.4509700  71.8428395 111.9274553
   2.6509003  76.3006973 120.9435822   2.6085182  76.5267820 120.0144354
   3.5671702  76.0670348 121.0921623  11.8272374  69.8909477 118.5465780
  11.6890272  70.0811073 117.6186970  11.4708593  70.6528860 119.0033831
  11.8541753  71.9586004 123.5577052  12.2878260  71.8661293 124.4060106
  12.5673334  71.9343504 122.9197068  12.7157303  72.0009705 126.0909937
  12.9093193  72.9055515 126.3369212  12.6157921  71.5417124 126.9248522
   4.5457748  69.7248360 126.6497084   5.4749808  69.8759520 126.4766052
   4.1248778  69.8132381 125.7945731   3.9394232  78.8508121 115.7621158
   4.1145988  78.3796164 116.5766781   3.2527020  79.4773887 115.9902419
   4.8951295  73.1280627 121.8084460   4.5601128  73.0881397 122.7042110
   4.3955241  72.4625343 121.3354870   7.8310487  70.4736662 112.0821519
   7.2139657  69.7483490 111.9854572   7.3626975  71.2346022 111.7388594
   9.4882026  73.1475154 127.9741279   8.6008804  72.8101076 128.0967678
  10.0580577  72.4158185 128.2110045   2.8072959  77.0448376 118.4505344
   2.0240481  77.5870056 118.5443569   3.5065704  77.5622356 118.8499585
   6.1169609  62.8543006 121.0939550   6.6138308  62.1012968 120.7740620
   5.3456590  62.8907322 120.5282759  13.9699366  68.5583371 122.7357841
  13.9589242  69.4408087 122.3651774  13.1016746  68.2054922 122.5412378
   7.1999389  71.6114693 118.6677973   6.2655668  71.7316155 118.4982677
   7.3776058  70.7087160 118.4037983   2.7004577  64.9960389 120.8211234
   2.3302365  64.4431429 121.5092140   3.1963670  64.3918522 120.2686234
  10.5871941  67.4532012 119.2028007  11.0532393  68.2860004 119.1288310
  11.0379441  66.9876994 119.9073266   8.6548172  73.7975833 116.2014159
   8.9308016  73.6832428 117.1108033   7.7852671  73.3993318 116.1626332
   8.3295062  68.0102491 125.7418802   7.6766512  68.2578399 125.0871255
   8.7075442  67.1966629 125.4081280   5.2902236  78.0462184 119.8446973
   5.4724630  77.2283840 120.3074725   6.1135222  78.2629877 119.4071863
   5.6244401  76.9730369 117.1062021   6.1532168  76.4622824 116.4932183
   5.8872621  76.6572900 117.9707554   6.2573805  78.0071205 123.4506138
   6.1324945  77.2060945 122.9417083   6.9152896  78.5017398 122.9620108
   8.3208714  75.8080225 125.0785688   7.3739049  75.6885576 125.0064014
   8.6691487  74.9202723 125.1611949   5.3255147  75.6032941 121.2790040
   5.1780109  74.6749649 121.4597610   6.1508640  75.6253032 120.7947115
   8.9289269  76.4261500 122.3654913   9.8535816  76.2204361 122.2279364
   8.7604572  76.1777901 123.2744254   1.1785538  62.7525630 115.3363825
   1.8993901  63.1306883 114.8327542   0.5550842  63.4714507 115.4398803
   5.3216661  63.4570779 116.2722157   5.5380276  64.3395417 115.9710985
   4.8410728  63.0656992 115.5427799   8.7184585  76.9447168 117.7217004
   8.8921462  76.3793590 116.9690857   9.2113476  77.7448062 117.5396494
   1.3249161  62.2873421 118.1661361   1.4465073  61.3590067 118.3652249
   1.0351204  62.3012107 117.2539677  14.5723976  69.7083591 119.3407304
  15.0155122  68.9590916 118.9426427  13.6950486  69.6993727 118.9581036
   9.7059757  76.2613932 114.8213902  10.4010662  76.8820625 115.0401217
  10.0482908  75.4109283 115.0966280  11.6051181  73.7113638 116.3501233
  12.1302505  74.0500910 115.6250553  11.5173533  72.7760653 116.1664368
  11.4142962  71.1939008 128.9685160  11.4640967  71.0289015 129.9100682
  11.3056885  70.3266267 128.5783040  12.9161158  73.6135949 129.2127181
  12.6245967  73.9765930 130.0490642  12.3033290  72.9002957 129.0340513
  14.1156841  71.1788829 121.7329751  14.9503732  71.6178633 121.8967312
  14.2515970  70.7027482 120.9137997  11.1648347  68.7368564 127.6807239
  11.6402468  68.9296210 126.8726091  10.2413912  68.7927750 127.4350623
   3.7974626  76.3675684 113.7288996   3.2248593  76.9865871 113.2759468
   4.3707420  76.9175045 114.2628918   9.8650016  65.6134324 125.9135545
  10.8167439  65.7132421 125.9347769   9.6953466  64.8212592 126.4233629
   7.0171886  76.6512834 114.8597578   7.9502559  76.5858395 115.0630454
   6.9295098  77.4869101 114.4012111   9.6459902  75.9678704 111.8201526
   9.5673534  75.6338568 112.7137284  10.4669569  76.4600472 111.8192998
  12.3438094  68.8340443 125.0277844  12.3114414  67.8956444 125.2137528
  12.9538717  68.9124480 124.2943669   4.1821424  67.7036496 111.0705049
   5.1280529  67.5742705 111.1393467   3.8035669  66.9651158 111.5474477
  12.4932582  65.6251487 125.0736128  11.9771631  64.8409944 124.8866057
  13.3772531  65.2970204 125.2382647  10.1543309  59.3692502 121.0331940
   9.9568130  59.0607591 121.9175272  10.7643014  60.0954141 121.1629870
  18.1614643  69.8956450 124.1683881  18.8918032  69.6341738 124.7291585
  17.5521589  69.1585172 124.2085949  16.2429940  68.0364313 124.7658332
  15.5163104  67.9020278 124.1574824  15.8277227  68.3441142 125.5715051
   2.3664342  65.6286473 111.0059934   1.4595797  65.3319586 111.0822647
   2.6440323  65.3316291 110.1394220   3.9826407  60.1723363 117.1604175
   3.1727136  59.8270448 117.5359421   4.6710824  59.8630906 117.7491787
   5.9116956  59.2501409 118.7828472   6.4647994  59.6696863 119.4418495
   6.1487042  58.3237157 118.8251428   1.1363126  62.4873408 111.1471913
   1.9982290  62.8128306 111.4067730   1.3213470  61.7004904 110.6344979
   9.2895763  61.3601935 118.2907136   8.7094432  62.0186739 117.9085188
   9.0231695  60.5379279 117.8794553   7.7399329  60.7606992 120.4928456
   8.2399107  60.8723527 119.6842775   8.3834937  60.4568045 121.1329265
   8.0720641  63.5202025 117.3463484   7.1846496  63.8051676 117.1283679
   8.4874630  63.3595788 116.4990761  11.4235177  63.5448546 121.0617823
  12.1995567  64.0344998 121.3342440  10.6983311  63.9706600 121.5189693
  13.8607735  64.2576165 122.1191764  14.4552226  64.0171901 121.4085072
  13.9334319  63.5383296 122.7465300   7.2163854  73.2846700 111.4411504
   7.9199704  73.4896702 112.0569160   6.4926503  73.8523461 111.7060588
   8.0461664  69.0356561 117.5613774   7.9896866  69.4925112 116.7221407
   8.5990007  68.2747245 117.3836617  11.8566470  64.8246293 118.3863894
  11.6003405  64.4242928 119.2172102  11.2319338  65.5390087 118.2614033
  16.1678808  67.5642366 120.8935185  15.6078366  67.6335555 121.6666747
  15.5622312  67.3883351 120.1734682   9.1250552  73.7229229 113.4909964
   9.9596155  73.2910427 113.3087439   8.9634894  73.5511242 114.4186859
   8.7796444  70.2261342 114.8566304   8.7245247  70.0605614 113.9154748
   8.1542499  70.9337375 115.0128493   2.0892569  59.7269451 114.4351622
   2.0771239  60.6711291 114.5919893   2.9815991  59.5439596 114.1411083
   5.9044689  56.3212228 118.6897559   5.1377084  55.7670714 118.8354241
   6.3155394  56.3934096 119.5511710  17.7534827  84.2398880 123.5865141
  18.3913237  84.1205627 122.8828481  17.6355669  85.1879724 123.6453093
  14.5624533  84.1926308 123.5226666  14.2243044  84.0767373 122.6347201
  15.4314301  83.7917473 123.5027672  10.4211349  86.0461784 119.5123557
   9.8576214  85.9551721 118.7439844  10.3063744  85.2261689 119.9926049
  16.0010907  89.7132752 114.8238022  15.3498887  90.2986833 114.4372035
  16.7955270  90.2438947 114.8833059   9.9266534  86.8021889 115.2225156
  10.6997410  86.2550876 115.0838032  10.2791933  87.6666139 115.4339617
  12.6907784  85.5075120 125.0193415  13.2871356  85.2831142 124.3050378
  12.7482755  84.7659866 125.6218863  12.2632812  82.9614555 112.8543606
  12.5158333  82.4396077 112.0927069  11.3257371  82.7980701 112.9570289
  17.3076095  81.9650334 120.6618349  18.0939184  81.5469757 120.3108766
  17.5714799  82.8696426 120.8299997  17.4786172  87.4023184 115.3607006
  16.8432005  87.4757811 116.0727910  17.1483579  87.9916783 114.6826085
  22.7084522  81.9025567 121.5651328  23.4409694  81.3324784 121.7989157
  21.9523878  81.5147167 122.0057833  11.9829101  84.8642661 115.0567981
  11.8665359  84.1887565 115.7249065  12.0931361  84.3775035 114.2400134
  14.3260642  84.3252808 118.7614670  13.9618849  83.7983429 119.4727591
  15.1827758  83.9351277 118.5881155  20.2309943  75.6147141 126.0245936
  19.8993267  76.4842552 125.8007151  19.6355556  75.2983425 126.7039967
  13.9666129  79.3542708 113.7576019  14.1340531  80.2222945 114.1246490
  13.7763298  79.5169990 112.8337308  16.7241462  87.8159687 125.4241849
  16.4242185  88.7184726 125.3157656  16.3792522  87.5491870 126.2763002
  10.1753944  84.2673484 121.4578553   9.2504440  84.1349698 121.6656245
  10.4238357  85.0467703 121.9548496  20.1238606  80.3342227 123.1039286
  19.2155483  80.2657636 122.8098047  20.0726202  80.8114172 123.9321112
  13.9455350  81.8100366 114.7422685  13.8254975  82.2557416 115.5808166
  13.2507938  82.1585683 114.1836223  11.7062242  94.5804007 118.3912817
  11.6286272  95.5311832 118.4701297  11.1023885  94.2349880 119.0487743
  21.9900252  78.5358666 124.8817160  21.3474633  78.8291199 124.2356955
  21.4855181  78.4211586 125.6870357  19.6440416  82.2821839 115.5703019
  20.5558272  82.5149226 115.3950717  19.1350063  82.8658883 115.0078098
  14.2812254  81.6419073 126.5797869  15.1273449  82.0658487 126.7232518
  14.2210891  80.9852698 127.2736432  18.2509998  87.2647657 122.9616601
  17.6218861  87.4293371 122.2592669  17.8635660  87.6789267 123.7327565
  22.1299230  88.2002095 120.3160965  21.4450268  88.5800996 119.7657998
  22.2143079  88.8097422 121.0492912  17.4311699  79.3023442 128.2379043
  17.1872631  80.0565502 127.7013318  17.7071630  79.6808789 129.0726290
  19.3850162  85.8462054 126.9156308  19.5967057  86.4893814 126.2390689
  19.3379910  85.0124371 126.4478238  16.9876391  78.4579875 123.8192880
  16.1260870  78.7561128 124.1109618  17.0138825  78.6750274 122.8873913
  13.8037960  87.0022065 120.2266686  14.2676306  87.2809768 119.4371308
  13.5394758  86.1005510 120.0439777  10.6962041  86.5493547 123.1646449
  11.2663398  86.9780815 122.5263934  11.2870153  86.2676132 123.8630635
  12.7406846  83.1245218 117.0356251  13.4430890  83.5766261 117.5030177
  12.4087475  82.4829037 117.6636144   6.4832180  81.3828770 122.3373385
   5.6931234  81.6386299 121.8613495   6.9743428  82.1977108 122.4425425
  20.4995990  88.7234010 125.0878665  21.3213433  88.3214197 124.8061347
  20.4958393  88.6202244 126.0394781   8.4346926  81.7473350 119.2956861
   7.6378089  81.8592044 119.8140357   8.2072518  82.0860002 118.4297752
  28.5901983  85.0672758 121.4363637  27.8365691  84.4980156 121.2807641
  28.7249524  85.0335423 122.3834272  13.9800611  89.9386160 117.1118356
  13.8446286  90.7837696 117.5403204  14.5210423  90.1405438 116.3484290
   7.4330008  87.4561598 117.6846281   7.9454529  88.2504849 117.8351846
   8.0852721  86.7587889 117.6179883  17.3293074  73.4616722 125.6417250
  16.9857344  74.3518364 125.5656360  17.6972037  73.2718380 124.7786835
   5.3978925  85.7850253 118.4605852   6.2354147  86.1947261 118.2439560
   5.5757193  84.8449695 118.4306046  17.2943357  83.4525333 114.1489685
  16.7789981  84.2229938 114.3878072  17.0220666  82.7790469 114.7722746
  14.8790468  78.2975034 119.2074923  14.0232064  77.9081884 119.0280562
  15.2917420  78.3766995 118.3474709  16.4089615  75.8321377 123.6066483
  15.9054410  75.7951513 122.7934288  16.7020222  76.7414120 123.6663140
  12.6532501  75.9160107 122.6132665  13.5185497  75.7202916 122.2538554
  12.7210010  75.6870459 123.5402022  22.2677631  86.2057688 116.0842858
  21.4907074  85.8668847 115.6398020  22.9469112  86.2110311 115.4097823
  17.0829660  81.3252425 115.9749466  16.7779796  81.6398575 116.8259609
  18.0360102  81.4033845 116.0176799  15.5276092  87.4842649 117.6242420
  14.9997454  86.7495408 117.3115657  15.0263595  88.2617325 117.3782388
  20.5068938  85.6791669 122.7409466  19.8492613  86.3690931 122.8289595
  21.3109337  86.0688101 123.0843453  10.2594820  78.1462315 119.9849032
  10.8338572  77.9237497 119.2522225  10.8465802  78.2151010 120.7377633
  19.3174397  84.0336042 120.7913408  19.8306279  84.6666034 121.2935118
  19.9675621  83.4337237 120.4256768  10.5864407  80.1766776 114.0044917
   9.7501719  80.5141463 114.3254192  10.4469176  80.0415756 113.0672054
  12.5617487  75.0203564 118.7124101  11.9081900  74.7052581 118.0880716
  12.5197962  74.3979304 119.4383924  13.6728692  85.3022859 110.6277393
  12.7655754  85.0712112 110.8268542  14.1699724  84.5060478 110.8151375
  16.5796771  94.0120366 113.5474079  15.9058470  94.3152063 114.1559037
  16.9662593  94.8149447 113.1979536  15.7955228  81.5085497 123.0371749
  14.8777789  81.7300444 122.8793437  16.2115371  81.5831808 122.1783456
  16.5790276  82.9076913 118.1674429  17.3262095  83.4198310 117.8581551
  16.8481865  82.5860966 119.0278822  14.8516926  85.4035454 115.1501383
  13.9428145  85.1194487 115.2473853  14.8812010  85.8234532 114.2904690
  20.0836193  89.0142043 118.9192551  19.6298520  88.1732953 118.9757741
  19.4530160  89.6503442 119.2567331  19.0269113  79.9434029 120.1493218
  18.2891870  79.4311416 120.4803461  19.2795886  79.5034411 119.3376495
  18.5269132  90.8518540 119.8542369  18.8192107  91.4123597 119.1354734
  19.0367753  91.1447101 120.6095528  19.1280740  72.7210281 120.7434987
  19.4339617  71.8607645 120.4560903  19.8533345  73.3127902 120.5433981
   5.4205096  83.1240968 119.1316585   5.2229496  82.5310329 118.4067652
   4.8651760  82.8193178 119.8492524  13.4001820  83.0164074 121.2511179
  13.4550430  82.0637911 121.1753655  12.5893022  83.1723514 121.7352477
  14.5493014  86.9444198 112.4889462  14.1112443  86.2280056 112.0295099
  15.2903454  87.1720312 111.9274553  11.3394180  81.6341134 119.0101557
  10.5262045  81.9335305 119.4166750  11.8353174  81.2396823 119.7276040
  13.4902758  91.6298891 120.9435822  13.4478936  91.8559737 120.0144354
  14.4065456  91.3962266 121.0921623  16.9368391  82.0982959 127.8416451
  17.2917779  82.3254432 128.7010917  17.5840523  82.4301335 127.2193707
  22.6666128  85.2201395 118.5465780  22.5284027  85.4102991 117.6186970
  22.3102347  85.9820777 119.0033831  10.8308254  79.2059490 124.6262792
  11.4707634  79.0648249 123.9285756   9.9985785  78.9194003 124.2501394
  22.6935508  87.2877922 123.5577052  23.1272015  87.1953211 124.4060106
  23.4067089  87.2635422 122.9197068  11.6068558  88.5061920 120.7397785
  12.4009157  88.0112240 120.5380360  10.8960251  87.9779783 120.3765490
   7.9151322  82.6505002 116.8157537   6.9848910  82.5889457 117.0327500
   8.0108794  82.1280955 116.0194179   7.8336871  79.1759815 119.4035779
   8.0943688  80.0905148 119.2944940   8.6554043  78.7084257 119.5532392
  23.5551057  87.3301622 126.0909937  23.7486948  88.2347433 126.3369212
  23.4551676  86.8709041 126.9248522  15.2087368  77.2159513 128.5900265
  14.5615283  77.9149462 128.4964741  15.9788384  77.6495657 128.9576513
  15.3851503  85.0540278 126.6497084  16.3143563  85.2051437 126.4766052
  14.9642533  85.1424299 125.7945731  14.7787986  94.1800039 115.7621158
  14.9539742  93.7088082 116.5766781  14.0920774  94.8065805 115.9902419
  15.7345050  88.4572545 121.8084460  15.3994882  88.4173315 122.7042110
  15.2348995  87.7917261 121.3354870  18.6704241  85.8028579 112.0821519
  18.0533412  85.0775407 111.9854572  18.2020730  86.5637939 111.7388594
  10.4602787  80.0214003 111.2042824   9.5832253  79.9002804 110.8405070
  10.9360540  79.2300082 110.9521712  20.3275780  88.4767071 127.9741279
  19.4402559  88.1392993 128.0967678  20.8974331  87.7450103 128.2110045
  13.6466713  92.3740294 118.4505344  12.8634235  92.9161974 118.5443569
  14.3459458  92.8914273 118.8499585  16.9563363  78.1834923 121.0939550
  17.4532063  77.4304886 120.7740620  16.1850345  78.2199240 120.5282759
  24.8093121  83.8875289 122.7357841  24.7982997  84.7700004 122.3651774
  23.9410500  83.5346840 122.5412378  18.0393144  86.9406611 118.6677973
  17.1049423  87.0608073 118.4982677  18.2169812  86.0379077 118.4037983
  13.5398332  80.3252306 120.8211234  13.1696119  79.7723347 121.5092140
  14.0357424  79.7210440 120.2686234  21.4265695  82.7823930 119.2028007
  21.8926147  83.6151921 119.1288310  21.8773196  82.3168911 119.9073266
  19.4941926  89.1267751 116.2014159  19.7701770  89.0124346 117.1108033
  18.6246425  88.7285236 116.1626332  19.3982358  75.1504517 123.2418908
  18.4845438  75.3808744 123.4101115  19.8275459  75.2342961 124.0932941
  19.1688816  83.3394409 125.7418802  18.5160267  83.5870316 125.0871255
  19.5469196  82.5258547 125.4081280  16.1295990  93.3754102 119.8446973
  16.3118385  92.5575758 120.3074725  16.9528976  93.5921794 119.4071863
  16.4638156  92.3022287 117.1062021  16.9925922  91.7914742 116.4932183
  16.7266375  91.9864817 117.9707554   5.1881481  81.6155859 116.6455729
   5.4834922  80.7066537 116.5922783   4.2869517  81.5943598 116.3236732
  17.0967560  93.3363123 123.4506138  16.9718699  92.5352863 122.9417083
  17.7546651  93.8309316 122.9620108   8.7175728  79.6911855 122.6283278
   7.9962314  80.3047823 122.4890751   9.5068984  80.2269620 122.5499924
  19.1602468  91.1372143 125.0785688  18.2132804  91.0177494 125.0064014
  19.5085241  90.2494641 125.1611949  11.5202041  77.0266282 128.9023930
  12.0436443  77.2728578 129.6650239  11.3014375  77.8586317 128.4827067
   6.9169322  79.2969956 116.7695054   6.5882029  78.4167335 116.5870160
   7.2708693  79.2417625 117.6571444  16.1648901  90.9324859 121.2790040
  16.0173864  90.0041567 121.4597610  16.9902395  90.9544950 120.7947115
  10.0311146  79.5842926 117.1370532  10.3707218  80.1128847 116.4149140
  10.4783266  79.9223332 117.9129099  19.7683023  91.7553418 122.3654913
  20.6929571  91.5496279 122.2279364  19.5998327  91.5069819 123.2744254
  12.7254586  77.9679977 126.5873600  12.3851407  77.1687790 126.9894280
  12.0193593  78.2681688 126.0150433  13.3771058  75.0529289 125.0400923
  14.1997128  74.5789768 124.9179813  13.6209122  75.8319773 125.5399609
  12.0179293  78.0817548 115.3363825  12.7387655  78.4598801 114.8327542
  11.3944597  78.8006425 115.4398803  16.1610416  78.7862697 116.2722157
  16.3774030  79.6687335 115.9710985  15.6804483  78.3948910 115.5427799
  10.9009637  81.7448410 122.8492902  10.7554218  82.0588713 123.7417183
  10.4234841  82.3633310 122.2963800  12.7606020  78.7350958 122.8973791
  12.7467589  77.8392051 122.5606089  13.4778448  78.7421622 123.5312077
  14.6132151  79.1688298 124.9426919  14.3549928  80.0905369 124.9411249
  14.0817191  78.7718733 125.6327383  19.5578339  92.2739085 117.7217004
  19.7315217  91.7085508 116.9690857  20.0507231  93.0739980 117.5396494
  12.1642916  77.6165338 118.1661361  12.2858827  76.6881984 118.3652249
  11.8744958  77.6304024 117.2539677  15.0334106  75.3020249 121.3028081
  15.0555803  75.3659582 120.3480061  15.4502165  74.4624757 121.4968587
  25.4117731  85.0375508 119.3407304  25.8548877  84.2882833 118.9426427
  24.5344241  85.0285645 118.9581036  20.5453512  91.5905850 114.8213902
  21.2404417  92.2112542 115.0401217  20.8876662  90.7401201 115.0966280
  22.4444935  89.0405555 116.3501233  22.9696259  89.3792828 115.6250553
  22.3567288  88.1052571 116.1664368  22.2536716  86.5230925 128.9685160
  22.3034721  86.3580933 129.9100682  22.1450639  85.6558184 128.5783040
  11.1372975  89.2019471 116.2577249  11.2861095  89.8854935 115.6043921
  11.9439418  89.1824561 116.7726704  19.5440479  82.5061853 130.2844466
  20.4450341  82.3668318 129.9928464  19.6188453  82.6716308 131.2242644
  23.7554913  88.9427867 129.2127181  23.4639721  89.3057847 130.0490642
  23.1427044  88.2294875 129.0340513  24.9550595  86.5080747 121.7329751
  25.7897487  86.9470551 121.8967312  25.0909724  86.0319400 120.9137997
  22.0042101  84.0660481 127.6807239  22.4796223  84.2588128 126.8726091
  21.0807667  84.1219667 127.4350623   8.8925608  85.2284649 117.2638318
   8.6471650  84.3246979 117.4618528   9.0621522  85.2301799 116.3217796
  16.5822318  76.1008325 126.6463073  17.1004262  76.8369352 126.3209562
  16.2277450  76.4072318 127.4809832   8.1621255  80.9613006 114.7624479
   7.4690500  81.0357361 114.1064515   7.9173007  80.1973350 115.2845996
  16.8334912  72.5208607 122.1663970  17.1136666  71.8531797 122.7924396
  17.6185519  72.7137703 121.6538634  14.6368380  91.6967601 113.7288996
  14.0642347  92.3157789 113.2759468  15.2101174  92.2466963 114.2628918
  20.7043770  80.9426241 125.9135545  21.6561193  81.0424339 125.9347769
  20.5347221  80.1504510 126.4233629  18.7258150  78.0281825 126.0994946
  18.1308082  78.3086837 125.4041434  18.4407846  78.5175726 126.8711687
  17.8565640  91.9804752 114.8597578  18.7896313  91.9150313 115.0630454
  17.7688853  92.8161018 114.4012111  20.4853657  91.2970622 111.8201526
  20.4067288  90.9630485 112.7137284  21.3063324  91.7892390 111.8192998
  23.1831848  84.1632361 125.0277844  23.1508168  83.2248362 125.2137528
  23.7932472  84.2416398 124.2943669  15.0215179  83.0328414 111.0705049
  15.9674284  82.9034622 111.1393467  14.6429424  82.2943076 111.5474477
  23.3326336  80.9543405 125.0736128  22.8165385  80.1701861 124.8866057
  24.2166285  80.6262121 125.2382647  20.9937063  74.6984420 121.0331940
  20.7961885  74.3899508 121.9175272  21.6036769  75.4246059 121.1629870
  29.0008398  85.2248368 124.1683881  29.7311786  84.9633656 124.7291585
  28.3915343  84.4877090 124.2085949  27.0823695  83.3656231 124.7658332
  26.3556859  83.2312196 124.1574824  26.6670982  83.6733059 125.5715051
  13.2058096  80.9578391 111.0059934  12.2989551  80.6611503 111.0822647
  13.4834077  80.6608209 110.1394220  14.8220162  75.5015280 117.1604175
  14.0120890  75.1562365 117.5359421  15.5104579  75.1922824 117.7491787
  16.7510710  74.5793327 118.7828472  17.3041749  74.9988780 119.4418495
  16.9880796  73.6529075 118.8251428  11.9756881  77.8165326 111.1471913
  12.8376045  78.1420224 111.4067730  12.1607225  77.0296822 110.6344979
  20.1289517  76.6893852 118.2907136  19.5488186  77.3478656 117.9085188
  19.8625450  75.8671197 117.8794553  18.5793083  76.0898910 120.4928456
  19.0792862  76.2015444 119.6842775  19.2228691  75.7859963 121.1329265
  18.9114395  78.8493943 117.3463484  18.0240250  79.1343593 117.1283679
  19.3268384  78.6887706 116.4990761  22.2628931  78.8740464 121.0617823
  23.0389321  79.3636916 121.3342440  21.5377065  79.2998518 121.5189693
  24.7001490  79.5868083 122.1191764  25.2945981  79.3463819 121.4085072
  24.7728074  78.8675213 122.7465300  18.0557609  88.6138617 111.4411504
  18.7593459  88.8188620 112.0569160  17.3320257  89.1815379 111.7060588
  18.8855419  84.3648479 117.5613774  18.8290620  84.8217030 116.7221407
  19.4383761  83.6039163 117.3836617  22.6960225  80.1538210 118.3863894
  22.4397159  79.7534846 119.2172102  22.0713093  80.8682004 118.2614033
  27.0072563  82.8934284 120.8935185  26.4472121  82.9627473 121.6666747
  26.4016066  82.7175268 120.1734682  19.9644306  89.0521146 113.4909964
  20.7989910  88.6202345 113.3087439  19.8028649  88.8803160 114.4186859
  19.6190198  85.5553260 114.8566304  19.5639002  85.3897531 113.9154748
  18.9936253  86.2629293 115.0128493  12.9286324  75.0561369 114.4351622
  12.9164993  76.0003209 114.5919893  13.8209746  74.8731514 114.1411083
  16.7438443  71.6504145 118.6897559  15.9770839  71.0962632 118.8354241
  17.1549148  71.7226014 119.5511710  28.5928581  99.5690798 123.5865141
  29.2306991  99.4497545 122.8828481  28.4749424 100.5171642 123.6453093
  25.4018287  99.5218226 123.5226666  25.0636799  99.4059290 122.6347201
  26.2708056  99.1209391 123.5027672  21.2605103 101.3753702 119.5123557
  20.6969968 101.2843639 118.7439844  21.1457498 100.5553607 119.9926049
  26.8404662 105.0424670 114.8238022  26.1892642 105.6278750 114.4372035
  27.6349025 105.5730865 114.8833059  20.7660289 102.1313807 115.2225156
  21.5391165 101.5842794 115.0838032  21.1185688 102.9958056 115.4339617
  23.5301538 100.8367038 125.0193415  24.1265111 100.6123060 124.3050378
  23.5876510 100.0951783 125.6218863  23.1026567  98.2906473 112.8543606
  23.3552087  97.7687994 112.0927069  22.1651126  98.1272618 112.9570289
  28.1469850  97.2942251 120.6618349  28.9332939  96.8761675 120.3108766
  28.4108554  98.1988344 120.8299997  28.3179927 102.7315102 115.3607006
  27.6825760 102.8049728 116.0727910  27.9877333 103.3208701 114.6826085
  33.5478277  97.2317485 121.5651328  34.2803449  96.6616701 121.7989157
  32.7917632  96.8439085 122.0057833  22.8222855 100.1934579 115.0567981
  22.7059114  99.5179482 115.7249065  22.9325115  99.7066953 114.2400134
  25.1654396  99.6544726 118.7614670  24.8012604  99.1275347 119.4727591
  26.0221512  99.2643195 118.5881155  31.0703697  90.9439059 126.0245936
  30.7387022  91.8134470 125.8007151  30.4749310  90.6275343 126.7039967
  24.8059883  94.6834626 113.7576019  24.9734286  95.5514862 114.1246490
  24.6157052  94.8461907 112.8337308  27.5635217 103.1451605 125.4241849
  27.2635940 104.0476644 125.3157656  27.2186276 102.8783788 126.2763002
  21.0147698  99.5965402 121.4578553  20.0898195  99.4641616 121.6656245
  21.2632111 100.3759621 121.9548496  30.9632360  95.6634145 123.1039286
  30.0549238  95.5949553 122.8098047  30.9119956  96.1406090 123.9321112
  24.7849104  97.1392283 114.7422685  24.6648729  97.5849334 115.5808166
  24.0901693  97.4877601 114.1836223  22.5455996 109.9095925 118.3912817
  22.4680026 110.8603750 118.4701297  21.9417640 109.5641798 119.0487743
  32.8294007  93.8650583 124.8817160  32.1868387  94.1583116 124.2356955
  32.3248935  93.7503504 125.6870357  30.4834170  97.6113756 115.5703019
  31.3952027  97.8441143 115.3950717  29.9743818  98.1950801 115.0078098
  25.1206008  96.9710991 126.5797869  25.9667203  97.3950405 126.7232518
  25.0604646  96.3144615 127.2736432  29.0903753 102.5939575 122.9616601
  28.4612615 102.7585289 122.2592669  28.7029415 103.0081184 123.7327565
  32.9692985 103.5294013 120.3160965  32.2844023 103.9092914 119.7657998
  33.0536834 104.1389339 121.0492912  28.2705453  94.6315359 128.2379043
  28.0266385  95.3857420 127.7013318  28.5465384  95.0100707 129.0726290
  30.2243916 101.1753972 126.9156308  30.4360811 101.8185732 126.2390689
  30.1773665 100.3416288 126.4478238  27.8270145  93.7871792 123.8192880
  26.9654624  94.0853046 124.1109618  27.8532580  94.0042191 122.8873913
  24.6431715 102.3313983 120.2266686  25.1070060 102.6101686 119.4371308
  24.3788513 101.4297428 120.0439777  21.5355796 101.8785465 123.1646449
  22.1057153 102.3072733 122.5263934  22.1263908 101.5968049 123.8630635
  23.5800601  98.4537135 117.0356251  24.2824644  98.9058179 117.5030177
  23.2481229  97.8120954 117.6636144  17.3225935  96.7120688 122.3373385
  16.5324989  96.9678217 121.8613495  17.8137182  97.5269026 122.4425425
  31.3389744 104.0525927 125.0878665  32.1607188 103.6506114 124.8061347
  31.3352147 103.9494161 126.0394781  19.2740680  97.0765267 119.2956861
  18.4771843  97.1883962 119.8140357  19.0466272  97.4151920 118.4297752
  39.4295737 100.3964676 121.4363637  38.6759446  99.8272074 121.2807641
  39.5643278 100.3627340 122.3834272  24.8194365 105.2678078 117.1118356
  24.6840040 106.1129614 117.5403204  25.3604178 105.4697356 116.3484290
  18.2723763 102.7853516 117.6846281  18.7848283 103.5796766 117.8351846
  18.9246476 102.0879806 117.6179883  28.1686829  88.7908640 125.6417250
  27.8251098  89.6810282 125.5656360  28.5365791  88.6010298 124.7786835
  16.2372679 101.1142170 118.4605852  17.0747901 101.5239179 118.2439560
  16.4150947 100.1741613 118.4306046  28.1337112  98.7817251 114.1489685
  27.6183735  99.5521856 114.3878072  27.8614420  98.1082387 114.7722746
  25.7184223  93.6266952 119.2074923  24.8625819  93.2373802 119.0280562
  26.1311174  93.7058913 118.3474709  27.2483369  91.1613295 123.6066483
  26.7448165  91.1243430 122.7934288  27.5413976  92.0706038 123.6663140
  23.4926255  91.2452025 122.6132665  24.3579252  91.0494833 122.2538554
  23.5603764  91.0162377 123.5402022  33.1071386 101.5349606 116.0842858
  32.3300828 101.1960765 115.6398020  33.7862867 101.5402229 115.4097823
  27.9223415  96.6544343 115.9749466  27.6173550  96.9690492 116.8259609
  28.8753857  96.7325763 116.0176799  26.3669847 102.8134566 117.6242420
  25.8391208 102.0787326 117.3115657  25.8657349 103.5909243 117.3782388
  31.3462693 101.0083587 122.7409466  30.6886367 101.6982848 122.8289595
  32.1503092 101.3980019 123.0843453  21.0988574  93.4754233 119.9849032
  21.6732326  93.2529414 119.2522225  21.6859557  93.5442927 120.7377633
  30.1568151  99.3627960 120.7913408  30.6700033  99.9957951 121.2935118
  30.8069375  98.7629155 120.4256768  21.4258161  95.5058694 114.0044917
  20.5895474  95.8433380 114.3254192  21.2862931  95.3707674 113.0672054
  23.4011242  90.3495482 118.7124101  22.7475654  90.0344499 118.0880716
  23.3591716  89.7271222 119.4383924  24.5122447 100.6314777 110.6277393
  23.6049509 100.4004030 110.8268542  25.0093479  99.8352396 110.8151375
  27.4190526 109.3412284 113.5474079  26.7452224 109.6443981 114.1559037
  27.8056348 110.1441364 113.1979536  26.6348982  96.8377415 123.0371749
  25.7171544  97.0592362 122.8793437  27.0509126  96.9123726 122.1783456
  27.4184030  98.2368831 118.1674429  28.1655849  98.7490228 117.8581551
  27.6875620  97.9152884 119.0278822  25.6910680 100.7327372 115.1501383
  24.7821899 100.4486404 115.2473853  25.7205764 101.1526450 114.2904690
  30.9229948 104.3433961 118.9192551  30.4692275 103.5024871 118.9757741
  30.2923914 104.9795359 119.2567331  29.8662867  95.2725947 120.1493218
  29.1285624  94.7603333 120.4803461  30.1189641  94.8326329 119.3376495
  29.3662887 106.1810458 119.8542369  29.6585861 106.7415515 119.1354734
  29.8761507 106.4739019 120.6095528  29.9674495  88.0502199 120.7434987
  30.2733371  87.1899563 120.4560903  30.6927099  88.6419819 120.5433981
  16.2598851  98.4532886 119.1316585  16.0623250  97.8602246 118.4067652
  15.7045515  98.1485096 119.8492524  24.2395574  98.3455992 121.2511179
  24.2944184  97.3929829 121.1753655  23.4286776  98.5015431 121.7352477
  25.3886768 102.2736115 112.4889462  24.9506198 101.5571974 112.0295099
  26.1297209 102.5012230 111.9274553  22.1787934  96.9633052 119.0101557
  21.3655800  97.2627222 119.4166750  22.6746928  96.5688741 119.7276040
  24.3296512 106.9590809 120.9435822  24.2872691 107.1851655 120.0144354
  25.2459211 106.7254183 121.0921623  27.7762146  97.4274876 127.8416451
  28.1311534  97.6546349 128.7010917  28.4234277  97.7593253 127.2193707
  33.5059883 100.5493312 118.5465780  33.3677781 100.7394908 117.6186970
  33.1496102 101.3112695 119.0033831  21.6702009  94.5351407 124.6262792
  22.3101388  94.3940167 123.9285756  20.8379539  94.2485921 124.2501394
  33.5329262 102.6169839 123.5577052  33.9665769 102.5245128 124.4060106
  34.2460843 102.5927340 122.9197068  22.4462313 103.8353838 120.7397785
  23.2402911 103.3404158 120.5380360  21.7354005 103.3071701 120.3765490
  18.7545076  97.9796920 116.8157537  17.8242664  97.9181375 117.0327500
  18.8502548  97.4572872 116.0194179  18.6730625  94.5051732 119.4035779
  18.9337443  95.4197066 119.2944940  19.4947798  94.0376175 119.5532392
  34.3944812 102.6593540 126.0909937  34.5880702 103.5639350 126.3369212
  34.2945430 102.2000959 126.9248522  26.0481123  92.5451430 128.5900265
  25.4009038  93.2441380 128.4964741  26.8182138  92.9787574 128.9576513
  26.2245257 100.3832195 126.6497084  27.1537317 100.5343355 126.4766052
  25.8036287 100.4716216 125.7945731  25.6181741 109.5091956 115.7621158
  25.7933497 109.0379999 116.5766781  24.9314529 110.1357722 115.9902419
  26.5738804 103.7864463 121.8084460  26.2388637 103.7465232 122.7042110
  26.0742750 103.1209178 121.3354870  29.5097996 101.1320497 112.0821519
  28.8927166 100.4067325 111.9854572  29.0414484 101.8929857 111.7388594
  21.2996542  95.3505921 111.2042824  20.4226008  95.2294722 110.8405070
  21.7754295  94.5591999 110.9521712  31.1669535 103.8058989 127.9741279
  30.2796313 103.4684911 128.0967678  31.7368086 103.0742020 128.2110045
  24.4860468 107.7032212 118.4505344  23.7027989 108.2453892 118.5443569
  25.1853213 108.2206191 118.8499585  27.7957118  93.5126841 121.0939550
  28.2925817  92.7596803 120.7740620  27.0244099  93.5491158 120.5282759
  35.6486875  99.2167207 122.7357841  35.6376751 100.0991922 122.3651774
  34.7804255  98.8638757 122.5412378  28.8786898 102.2698528 118.6677973
  27.9443177 102.3899991 118.4982677  29.0563567 101.3670995 118.4037983
  24.3792086  95.6544224 120.8211234  24.0089874  95.1015264 121.5092140
  24.8751179  95.0502357 120.2686234  32.2659450  98.1115847 119.2028007
  32.7319902  98.9443839 119.1288310  32.7166950  97.6460829 119.9073266
  30.3335681 104.4559669 116.2014159  30.6095525 104.3416263 117.1108033
  29.4640180 104.0577154 116.1626332  30.2376112  90.4796434 123.2418908
  29.3239192  90.7100661 123.4101115  30.6669214  90.5634879 124.0932941
  30.0082571  98.6686326 125.7418802  29.3554021  98.9162234 125.0871255
  30.3862951  97.8550465 125.4081280  26.9689745 108.7046020 119.8446973
  27.1512139 107.8867676 120.3074725  27.7922731 108.9213712 119.4071863
  27.3031910 107.6314205 117.1062021  27.8319677 107.1206659 116.4932183
  27.5660130 107.3156735 117.9707554  16.0275235  96.9447776 116.6455729
  16.3228676  96.0358455 116.5922783  15.1263271  96.9235516 116.3236732
  27.9361314 108.6655040 123.4506138  27.8112454 107.8644780 122.9417083
  28.5940405 109.1601234 122.9620108  19.5569482  95.0203773 122.6283278
  18.8356068  95.6339741 122.4890751  20.3462738  95.5561538 122.5499924
  29.9996223 106.4664061 125.0785688  29.0526558 106.3469412 125.0064014
  30.3478996 105.5786559 125.1611949  22.3595796  92.3558199 128.9023930
  22.8830198  92.6020496 129.6650239  22.1408129  93.1878234 128.4827067
  17.7563077  94.6261874 116.7695054  17.4275783  93.7459253 116.5870160
  18.1102448  94.5709543 117.6571444  27.0042656 106.2616777 121.2790040
  26.8567618 105.3333484 121.4597610  27.8296149 106.2836867 120.7947115
  20.8704900  94.9134844 117.1370532  21.2100973  95.4420765 116.4149140
  21.3177021  95.2515250 117.9129099  30.6076778 107.0845335 122.3654913
  31.5323325 106.8788197 122.2279364  30.4392081 106.8361737 123.2744254
  23.5648341  93.2971895 126.5873600  23.2245161  92.4979708 126.9894280
  22.8587347  93.5973605 126.0150433  24.2164813  90.3821207 125.0400923
  25.0390882  89.9081685 124.9179813  24.4602876  91.1611691 125.5399609
  22.8573047  93.4109465 115.3363825  23.5781410  93.7890718 114.8327542
  22.2338351  94.1298342 115.4398803  27.0004170  94.1154614 116.2722157
  27.2167785  94.9979252 115.9710985  26.5198237  93.7240828 115.5427799
  21.7403392  97.0740328 122.8492902  21.5947972  97.3880631 123.7417183
  21.2628595  97.6925228 122.2963800  23.5999774  94.0642876 122.8973791
  23.5861343  93.1683969 122.5606089  24.3172203  94.0713539 123.5312077
  25.4525905  94.4980216 124.9426919  25.1943683  95.4197286 124.9411249
  24.9210946  94.1010650 125.6327383  30.3972094 107.6031003 117.7217004
  30.5708971 107.0377425 116.9690857  30.8900985 108.4031898 117.5396494
  23.0036670  92.9457256 118.1661361  23.1252582  92.0173902 118.3652249
  22.7138713  92.9595942 117.2539677  25.8727861  90.6312166 121.3028081
  25.8949558  90.6951499 120.3480061  26.2895920  89.7916675 121.4968587
  36.2511485 100.3667426 119.3407304  36.6942631  99.6174751 118.9426427
  35.3737995 100.3577562 118.9581036  31.3847266 106.9197767 114.8213902
  32.0798171 107.5404460 115.0401217  31.7270417 106.0693119 115.0966280
  33.2838690 104.3697473 116.3501233  33.8090014 104.7084746 115.6250553
  33.1961042 103.4344488 116.1664368  33.0930471 101.8522843 128.9685160
  33.1428476 101.6872850 129.9100682  32.9844394 100.9850102 128.5783040
  21.9766729 104.5311389 116.2577249  22.1254850 105.2146853 115.6043921
  22.7833173 104.5116479 116.7726704  30.3834233  97.8353771 130.2844466
  31.2844096  97.6960236 129.9928464  30.4582208  98.0008226 131.2242644
  34.5948667 104.2719784 129.2127181  34.3033476 104.6349765 130.0490642
  33.9820799 103.5586793 129.0340513  35.7944350 101.8372664 121.7329751
  36.6291241 102.2762468 121.8967312  35.9303479 101.3611317 120.9137997
  32.8435856  99.3952399 127.6807239  33.3189977  99.5880045 126.8726091
  31.9201421  99.4511585 127.4350623  19.7319362 100.5576566 117.2638318
  19.4865404  99.6538896 117.4618528  19.9015277 100.5593717 116.3217796
  27.4216072  91.4300243 126.6463073  27.9398016  92.1661270 126.3209562
  27.0671205  91.7364236 127.4809832  19.0015010  96.2904924 114.7624479
  18.3084255  96.3649279 114.1064515  18.7566762  95.5265267 115.2845996
  27.6728666  87.8500525 122.1663970  27.9530420  87.1823714 122.7924396
  28.4579273  88.0429621 121.6538634  25.4762135 107.0259519 113.7288996
  24.9036102 107.6449706 113.2759468  26.0494929 107.5758881 114.2628918
  31.5437525  96.2718159 125.9135545  32.4954948  96.3716257 125.9347769
  31.3740975  95.4796428 126.4233629  29.5651904  93.3573742 126.0994946
  28.9701836  93.6378755 125.4041434  29.2801601  93.8467643 126.8711687
  28.6959395 107.3096669 114.8597578  29.6290068 107.2442231 115.0630454
  28.6082607 108.1452936 114.4012111  31.3247411 106.6262540 111.8201526
  31.2461043 106.2922403 112.7137284  32.1457078 107.1184307 111.8192998
  34.0225602  99.4924279 125.0277844  33.9901923  98.5540280 125.2137528
  34.6326226  99.5708316 124.2943669  25.8608933  98.3620332 111.0705049
  26.8068038  98.2326540 111.1393467  25.4823178  97.6234994 111.5474477
  34.1720091  96.2835322 125.0736128  33.6559140  95.4993779 124.8866057
  35.0560039  95.9554039 125.2382647  31.8330818  90.0276338 121.0331940
  31.6355639  89.7191426 121.9175272  32.4430523  90.7537977 121.1629870
  39.8402152 100.5540286 124.1683881  40.5705541 100.2925574 124.7291585
  39.2309098  99.8169008 124.2085949  37.9217449  98.6948148 124.7658332
  37.1950613  98.5604113 124.1574824  37.5064736  99.0024977 125.5715051
  24.0451850  96.2870308 111.0059934  23.1383306  95.9903421 111.0822647
  24.3227832  95.9900126 110.1394220  25.6613916  90.8307198 117.1604175
  24.8514645  90.4854283 117.5359421  26.3498333  90.5214742 117.7491787
  27.5904465  89.9085245 118.7828472  28.1435503  90.3280698 119.4418495
  27.8274551  88.9820993 118.8251428  22.8150635  93.1457243 111.1471913
  23.6769799  93.4712142 111.4067730  23.0000979  92.3588739 110.6344979
  30.9683272  92.0185770 118.2907136  30.3881941  92.6770574 117.9085188
  30.7019204  91.1963114 117.8794553  29.4186838  91.4190828 120.4928456
  29.9186616  91.5307362 119.6842775  30.0622446  91.1151880 121.1329265
  29.7508150  94.1785860 117.3463484  28.8634005  94.4635511 117.1283679
  30.1662139  94.0179624 116.4990761  33.1022686  94.2032381 121.0617823
  33.8783076  94.6928834 121.3342440  32.3770820  94.6290435 121.5189693
  35.5395244  94.9160000 122.1191764  36.1339735  94.6755736 121.4085072
  35.6121828  94.1967131 122.7465300  28.8951363 103.9430535 111.4411504
  29.5987213 104.1480537 112.0569160  28.1714012 104.5107297 111.7060588
  29.7249173  99.6940396 117.5613774  29.6684375 100.1508948 116.7221407
  30.2777516  98.9331081 117.3836617  33.5353979  95.4830128 118.3863894
  33.2790914  95.0826764 119.2172102  32.9106847  96.1973922 118.2614033
  37.8466317  98.2226201 120.8935185  37.2865875  98.2919391 121.6666747
  37.2409820  98.0467186 120.1734682  30.8038060 104.3813064 113.4909964
  31.6383664 103.9494263 113.3087439  30.6422403 104.2095078 114.4186859
  30.4583953 100.8845177 114.8566304  30.4032756 100.7189449 113.9154748
  29.8330008 101.5921210 115.0128493  23.7680078  90.3853286 114.4351622
  23.7558748  91.3295126 114.5919893  24.6603500  90.2023432 114.1411083
  27.5832198  86.9796063 118.6897559  26.8164593  86.4254550 118.8354241
  27.9942903  87.0517932 119.5511710  39.4322336 114.8982715 123.5865141
  40.0700746 114.7789463 122.8828481  39.3143178 115.8463559 123.6453093
  36.2412042 114.8510143 123.5226666  35.9030553 114.7351208 122.6347201
  37.1101810 114.4501308 123.5027672  32.0998858 116.7045620 119.5123557
  31.5363723 116.6135557 118.7439844  31.9851253 115.8845524 119.9926049
  37.6798416 120.3716587 114.8238022  37.0286396 120.9570668 114.4372035
  38.4742779 120.9022782 114.8833059  31.6054043 117.4605725 115.2225156
  32.3784919 116.9134712 115.0838032  31.9579442 118.3249974 115.4339617
  34.3695293 116.1658955 125.0193415  34.9658865 115.9414978 124.3050378
  34.4270264 115.4243701 125.6218863  33.9420321 113.6198391 112.8543606
  34.1945842 113.0979912 112.0927069  33.0044880 113.4564536 112.9570289
  38.9863604 112.6234169 120.6618349  39.7726693 112.2053592 120.3108766
  39.2502308 113.5280261 120.8299997  39.1573681 118.0607019 115.3607006
  38.5219514 118.1341646 116.0727910  38.8271088 118.6500618 114.6826085
  44.3872031 112.5609402 121.5651328  45.1197203 111.9908619 121.7989157
  43.6311387 112.1731003 122.0057833  33.6616610 115.5226497 115.0567981
  33.5452868 114.8471400 115.7249065  33.7718870 115.0358871 114.2400134
  36.0048151 114.9836644 118.7614670  35.6406358 114.4567265 119.4727591
  36.8615267 114.5935113 118.5881155  41.9097452 106.2730976 126.0245936
  41.5780776 107.1426387 125.8007151  41.3143065 105.9567260 126.7039967
  35.6453638 110.0126543 113.7576019  35.8128040 110.8806780 114.1246490
  35.4550807 110.1753825 112.8337308  38.4028971 118.4743522 125.4241849
  38.1029694 119.3768561 125.3157656  38.0580031 118.2075706 126.2763002
  31.8541453 114.9257319 121.4578553  30.9291949 114.7933533 121.6656245
  32.1025866 115.7051538 121.9548496  41.8026115 110.9926063 123.1039286
  40.8942992 110.9241471 122.8098047  41.7513711 111.4698007 123.9321112
  35.6242859 112.4684201 114.7422685  35.5042484 112.9141252 115.5808166
  34.9295447 112.8169519 114.1836223  33.3849751 125.2387843 118.3912817
  33.3073781 126.1895668 118.4701297  32.7811394 124.8933715 119.0487743
  43.6687761 109.1942501 124.8817160  43.0262142 109.4875034 124.2356955
  43.1642690 109.0795421 125.6870357  41.3227925 112.9405674 115.5703019
  42.2345781 113.1733061 115.3950717  40.8137572 113.5242718 115.0078098
  35.9599763 112.3002909 126.5797869  36.8060958 112.7242322 126.7232518
  35.8998400 111.6436533 127.2736432  39.9297507 117.9231493 122.9616601
  39.3006370 118.0877207 122.2592669  39.5423169 118.3373102 123.7327565
  43.8086739 118.8585930 120.3160965  43.1237777 119.2384832 119.7657998
  43.8930588 119.4681257 121.0492912  39.1099208 109.9607277 128.2379043
  38.8660140 110.7149338 127.7013318  39.3859138 110.3392625 129.0726290
  41.0637671 116.5045889 126.9156308  41.2754566 117.1477649 126.2390689
  41.0167419 115.6708206 126.4478238  38.6663900 109.1163710 123.8192880
  37.8048379 109.4144964 124.1109618  38.6926334 109.3334109 122.8873913
  35.4825469 117.6605901 120.2266686  35.9463815 117.9393604 119.4371308
  35.2182267 116.7589345 120.0439777  32.3749550 117.2077382 123.1646449
  32.9450907 117.6364651 122.5263934  32.9657662 116.9259967 123.8630635
  34.4194355 113.7829053 117.0356251  35.1218399 114.2350097 117.5030177
  34.0874984 113.1412872 117.6636144  28.1619689 112.0412606 122.3373385
  27.3718743 112.2970134 121.8613495  28.6530937 112.8560944 122.4425425
  42.1783499 119.3817845 125.0878665  43.0000942 118.9798032 124.8061347
  42.1745902 119.2786079 126.0394781  30.1134435 112.4057185 119.2956861
  29.3165598 112.5175879 119.8140357  29.8860027 112.7443837 118.4297752
  50.2689492 115.7256593 121.4363637  49.5153200 115.1563991 121.2807641
  50.4037033 115.6919258 122.3834272  35.6588120 120.5969996 117.1118356
  35.5233795 121.4421531 117.5403204  36.1997932 120.7989273 116.3484290
  29.1117517 118.1145434 117.6846281  29.6242038 118.9088684 117.8351846
  29.7640230 117.4171724 117.6179883  39.0080583 104.1200558 125.6417250
  38.6644853 105.0102199 125.5656360  39.3759546 103.9302215 124.7786835
  27.0766434 116.4434088 118.4605852  27.9141656 116.8531096 118.2439560
  27.2544702 115.5033530 118.4306046  38.9730866 114.1109169 114.1489685
  38.4577490 114.8813773 114.3878072  38.7008175 113.4374305 114.7722746
  36.5577977 108.9558869 119.2074923  35.7019573 108.5665720 119.0280562
  36.9704929 109.0350830 118.3474709  38.0877124 106.4905213 123.6066483
  37.5841919 106.4535348 122.7934288  38.3807731 107.3997955 123.6663140
  34.3320010 106.5743942 122.6132665  35.1973006 106.3786751 122.2538554
  34.3997519 106.3454294 123.5402022  43.9465140 116.8641523 116.0842858
  43.1694583 116.5252683 115.6398020  44.6256621 116.8694146 115.4097823
  38.7617169 111.9836261 115.9749466  38.4567305 112.2982410 116.8259609
  39.7147611 112.0617681 116.0176799  37.2063601 118.1426484 117.6242420
  36.6784963 117.4079244 117.3115657  36.7051104 118.9201160 117.3782388
  42.1856447 116.3375505 122.7409466  41.5280122 117.0274766 122.8289595
  42.9896846 116.7271937 123.0843453  31.9382329 108.8046150 119.9849032
  32.5126081 108.5821332 119.2522225  32.5253311 108.8734845 120.7377633
  40.9961906 114.6919877 120.7913408  41.5093788 115.3249869 121.2935118
  41.6463130 114.0921073 120.4256768  32.2651916 110.8350611 114.0044917
  31.4289228 111.1725298 114.3254192  32.1256685 110.6999591 113.0672054
  34.2404996 105.6787399 118.7124101  33.5869409 105.3636416 118.0880716
  34.1985471 105.0563140 119.4383924  35.3516201 115.9606694 110.6277393
  34.4443263 115.7295948 110.8268542  35.8487233 115.1644314 110.8151375
  38.2584280 124.6704202 113.5474079  37.5845979 124.9735898 114.1559037
  38.6450102 125.4733282 113.1979536  37.4742737 112.1669333 123.0371749
  36.5565298 112.3884280 122.8793437  37.8902880 112.2415643 122.1783456
  38.2577785 113.5660748 118.1674429  39.0049603 114.0782146 117.8581551
  38.5269374 113.2444801 119.0278822  36.5304435 116.0619289 115.1501383
  35.6215654 115.7778322 115.2473853  36.5599519 116.4818368 114.2904690
  41.7623702 119.6725879 118.9192551  41.3086029 118.8316789 118.9757741
  41.1317669 120.3087277 119.2567331  40.7056622 110.6017865 120.1493218
  39.9679378 110.0895251 120.4803461  40.9583395 110.1618246 119.3376495
  40.2056641 121.5102375 119.8542369  40.4979616 122.0707433 119.1354734
  40.7155262 121.8030936 120.6095528  40.8068249 103.3794117 120.7434987
  41.1127126 102.5191480 120.4560903  41.5320854 103.9711737 120.5433981
  27.0992605 113.7824803 119.1316585  26.9017005 113.1894164 118.4067652
  26.5439269 113.4777014 119.8492524  35.0789329 113.6747910 121.2511179
  35.1337939 112.7221746 121.1753655  34.2680531 113.8307349 121.7352477
  36.2280523 117.6028033 112.4889462  35.7899952 116.8863892 112.0295099
  36.9690963 117.8304148 111.9274553  33.0181689 112.2924970 119.0101557
  32.2049554 112.5919140 119.4166750  33.5140683 111.8980658 119.7276040
  35.1690267 122.2882726 120.9435822  35.1266445 122.5143573 120.0144354
  36.0852965 122.0546101 121.0921623  38.6155900 112.7566794 127.8416451
  38.9705288 112.9838267 128.7010917  39.2628032 113.0885171 127.2193707
  44.3453637 115.8785230 118.5465780  44.2071536 116.0686826 117.6186970
  43.9889856 116.6404613 119.0033831  32.5095763 109.8643325 124.6262792
  33.1495143 109.7232084 123.9285756  31.6773294 109.5777838 124.2501394
  44.3723017 117.9461757 123.5577052  44.8059524 117.8537046 124.4060106
  45.0854598 117.9219257 122.9197068  33.2856067 119.1645756 120.7397785
  34.0796666 118.6696076 120.5380360  32.5747760 118.6363619 120.3765490
  29.5938831 113.3088837 116.8157537  28.6636419 113.2473293 117.0327500
  29.6896303 112.7864790 116.0194179  29.5124380 109.8343650 119.4035779
  29.7731197 110.7488983 119.2944940  30.3341552 109.3668093 119.5532392
  45.2338566 117.9885458 126.0909937  45.4274457 118.8931268 126.3369212
  45.1339185 117.5292877 126.9248522  36.8874877 107.8743348 128.5900265
  36.2402792 108.5733298 128.4964741  37.6575893 108.3079492 128.9576513
  37.0639012 115.7124113 126.6497084  37.9931072 115.8635273 126.4766052
  36.6430042 115.8008134 125.7945731  36.4575495 124.8383874 115.7621158
  36.6327251 124.3671917 116.5766781  35.7708283 125.4649640 115.9902419
  37.4132558 119.1156380 121.8084460  37.0782391 119.0757150 122.7042110
  36.9136504 118.4501096 121.3354870  40.3491750 116.4612415 112.0821519
  39.7320921 115.7359243 111.9854572  39.8808239 117.2221775 111.7388594
  32.1390296 110.6797839 111.2042824  31.2619762 110.5586640 110.8405070
  32.6148049 109.8883917 110.9521712  42.0063289 119.1350907 127.9741279
  41.1190068 118.7976829 128.0967678  42.5761840 118.4033938 128.2110045
  35.3254222 123.0324129 118.4505344  34.5421744 123.5745809 118.5443569
  36.0246967 123.5498109 118.8499585  38.6350872 108.8418759 121.0939550
  39.1319572 108.0888721 120.7740620  37.8637854 108.8783075 120.5282759
  46.4880630 114.5459124 122.7357841  46.4770506 115.4283840 122.3651774
  45.6198009 114.1930675 122.5412378  39.7180653 117.5990446 118.6677973
  38.7836932 117.7191908 118.4982677  39.8957321 116.6962913 118.4037983
  35.2185841 110.9836142 120.8211234  34.8483628 110.4307182 121.5092140
  35.7144933 110.3794275 120.2686234  43.1053204 113.4407765 119.2028007
  43.5713656 114.2735757 119.1288310  43.5560705 112.9752747 119.9073266
  41.1729435 119.7851586 116.2014159  41.4489279 119.6708181 117.1108033
  40.3033934 119.3869071 116.1626332  41.0769867 105.8088352 123.2418908
  40.1632947 106.0392579 123.4101115  41.5062968 105.8926796 124.0932941
  40.8476325 113.9978244 125.7418802  40.1947776 114.2454152 125.0871255
  41.2256705 113.1842382 125.4081280  37.8083499 124.0337937 119.8446973
  37.9905894 123.2159593 120.3074725  38.6316485 124.2505630 119.4071863
  38.1425665 122.9606122 117.1062021  38.6713431 122.4498577 116.4932183
  38.4053884 122.6448653 117.9707554  26.8668990 112.2739694 116.6455729
  27.1622431 111.3650372 116.5922783  25.9657026 112.2527434 116.3236732
  38.7755069 123.9946958 123.4506138  38.6506208 123.1936698 122.9417083
  39.4334160 124.4893152 122.9620108  30.3963237 110.3495691 122.6283278
  29.6749823 110.9631658 122.4890751  31.1856493 110.8853455 122.5499924
  40.8389977 121.7955978 125.0785688  39.8920313 121.6761329 125.0064014
  41.1872750 120.9078476 125.1611949  33.1989550 107.6850117 128.9023930
  33.7223952 107.9312414 129.6650239  32.9801884 108.5170152 128.4827067
  28.5956831 109.9553792 116.7695054  28.2669538 109.0751171 116.5870160
  28.9496202 109.9001460 117.6571444  37.8436410 121.5908694 121.2790040
  37.6961373 120.6625402 121.4597610  38.6689904 121.6128785 120.7947115
  31.7098655 110.2426762 117.1370532  32.0494727 110.7712683 116.4149140
  32.1570775 110.5807168 117.9129099  41.4470532 122.4137253 122.3654913
  42.3717080 122.2080115 122.2279364  41.2785836 122.1653654 123.2744254
  34.4042095 108.6263812 126.5873600  34.0638916 107.8271625 126.9894280
  33.6981102 108.9265523 126.0150433  35.0558567 105.7113125 125.0400923
  35.8784637 105.2373603 124.9179813  35.2996631 106.4903608 125.5399609
  33.6966802 108.7401383 115.3363825  34.4175164 109.1182636 114.8327542
  33.0732106 109.4590260 115.4398803  37.8397925 109.4446532 116.2722157
  38.0561539 110.3271170 115.9710985  37.3591992 109.0532746 115.5427799
  32.5797146 112.4032245 122.8492902  32.4341727 112.7172548 123.7417183
  32.1022350 113.0217146 122.2963800  34.4393529 109.3934793 122.8973791
  34.4255098 108.4975887 122.5606089  35.1565957 109.4005457 123.5312077
  36.2919660 109.8272134 124.9426919  36.0337437 110.7489204 124.9411249
  35.7604700 109.4302568 125.6327383  41.2365848 122.9322921 117.7217004
  41.4102726 122.3669343 116.9690857  41.7294740 123.7323816 117.5396494
  33.8430425 108.2749174 118.1661361  33.9646336 107.3465820 118.3652249
  33.5532467 108.2887860 117.2539677  36.7121615 105.9604084 121.3028081
  36.7343312 106.0243417 120.3480061  37.1289674 105.1208593 121.4968587
  47.0905240 115.6959344 119.3407304  47.5336386 114.9466669 118.9426427
  46.2131750 115.6869480 118.9581036  42.2241021 122.2489685 114.8213902
  42.9191926 122.8696378 115.0401217  42.5664171 121.3985036 115.0966280
  44.1232444 119.6989391 116.3501233  44.6483768 120.0376663 115.6250553
  44.0354797 118.7636406 116.1664368  43.9324225 117.1814761 128.9685160
  43.9822230 117.0164768 129.9100682  43.8238148 116.3142020 128.5783040
  32.8160484 119.8603306 116.2577249  32.9648604 120.5438771 115.6043921
  33.6226927 119.8408396 116.7726704  41.2227988 113.1645689 130.2844466
  42.1237850 113.0252153 129.9928464  41.2975962 113.3300143 131.2242644
  45.4342422 119.6011702 129.2127181  45.1427230 119.9641683 130.0490642
  44.8214553 118.8878710 129.0340513  46.6338104 117.1664582 121.7329751
  47.4684996 117.6054386 121.8967312  46.7697233 116.6903235 120.9137997
  43.6829610 114.7244317 127.6807239  44.1583732 114.9171963 126.8726091
  42.7595176 114.7803503 127.4350623  30.5713117 115.8868484 117.2638318
  30.3259159 114.9830814 117.4618528  30.7409031 115.8885634 116.3217796
  38.2609827 106.7592160 126.6463073  38.7791771 107.4953187 126.3209562
  37.9064959 107.0656154 127.4809832  29.8408764 111.6196841 114.7624479
  29.1478009 111.6941196 114.1064515  29.5960516 110.8557185 115.2845996
  38.5122421 103.1792443 122.1663970  38.7924175 102.5115632 122.7924396
  39.2973028 103.3721538 121.6538634  36.3155889 122.3551437 113.7288996
  35.7429856 122.9741624 113.2759468  36.8888683 122.9050798 114.2628918
  42.3831279 111.6010077 125.9135545  43.3348702 111.7008174 125.9347769
  42.2134730 110.8088345 126.4233629  40.4045659 108.6865660 126.0994946
  39.8095591 108.9670673 125.4041434  40.1195355 109.1759561 126.8711687
  39.5353149 122.6388587 114.8597578  40.4683822 122.5734149 115.0630454
  39.4476362 123.4744854 114.4012111  42.1641166 121.9554457 111.8201526
  42.0854797 121.6214321 112.7137284  42.9850833 122.4476225 111.8192998
  44.8619357 114.8216197 125.0277844  44.8295677 113.8832197 125.2137528
  45.4719981 114.9000233 124.2943669  36.7002688 113.6912249 111.0705049
  37.6461793 113.5618458 111.1393467  36.3216933 112.9526911 111.5474477
  45.0113845 111.6127240 125.0736128  44.4952894 110.8285697 124.8866057
  45.8953794 111.2845957 125.2382647  42.6724572 105.3568256 121.0331940
  42.4749394 105.0483344 121.9175272  43.2824278 106.0829894 121.1629870
  50.6795907 115.8832203 124.1683881  51.4099295 115.6217491 124.7291585
  50.0702852 115.1460925 124.2085949  48.7611204 114.0240066 124.7658332
  48.0344368 113.8896031 124.1574824  48.3458491 114.3316895 125.5715051
  34.8845605 111.6162226 111.0059934  33.9777060 111.3195339 111.0822647
  35.1621586 111.3192044 110.1394220  36.5007671 106.1599116 117.1604175
  35.6908399 105.8146201 117.5359421  37.1892088 105.8506659 117.7491787
  38.4298219 105.2377162 118.7828472  38.9829258 105.6572616 119.4418495
  38.6668305 104.3112910 118.8251428  33.6544390 108.4749161 111.1471913
  34.5163554 108.8004059 111.4067730  33.8394734 107.6880657 110.6344979
  41.8077026 107.3477688 118.2907136  41.2275695 108.0062492 117.9085188
  41.5412959 106.5255032 117.8794553  40.2580592 106.7482745 120.4928456
  40.7580371 106.8599280 119.6842775  40.9016200 106.4443798 121.1329265
  40.5901904 109.5077778 117.3463484  39.7027759 109.7927429 117.1283679
  41.0055893 109.3471541 116.4990761  43.9416440 109.5324299 121.0617823
  44.7176830 110.0220751 121.3342440  43.2164574 109.9582353 121.5189693
  46.3788999 110.2451918 122.1191764  46.9733490 110.0047654 121.4085072
  46.4515583 109.5259049 122.7465300  39.7345118 119.2722453 111.4411504
  40.4380968 119.4772455 112.0569160  39.0107766 119.8399214 111.7060588
  40.5642928 115.0232314 117.5613774  40.5078129 115.4800865 116.7221407
  41.1171270 114.2622998 117.3836617  44.3747734 110.8122046 118.3863894
  44.1184668 110.4118681 119.2172102  43.7500602 111.5265840 118.2614033
  48.6860072 113.5518119 120.8935185  48.1259630 113.6211308 121.6666747
  48.0803575 113.3759104 120.1734682  41.6431815 119.7104982 113.4909964
  42.4777419 119.2786180 113.3087439  41.4816158 119.5386995 114.4186859
  41.2977707 116.2137095 114.8566304  41.2426511 116.0481367 113.9154748
  40.6723762 116.9213128 115.0128493  34.6073833 105.7145204 114.4351622
  34.5952502 106.6587044 114.5919893  35.4997254 105.5315350 114.1411083
  38.4225952 102.3087981 118.6897559  37.6558348 101.7546467 118.8354241
  38.8336657 102.3809850 119.5511710  50.2716090 130.2274633 123.5865141
  50.9094500 130.1081380 122.8828481  50.1536933 131.1755477 123.6453093
  47.0805796 130.1802061 123.5226666  46.7424308 130.0643126 122.6347201
  47.9495565 129.7793226 123.5027672  42.9392612 132.0337537 119.5123557
  42.3757477 131.9427474 118.7439844  42.8245007 131.2137442 119.9926049
  45.2089047 131.4950873 125.0193415  45.8052620 131.2706895 124.3050378
  45.2664019 130.7535619 125.6218863  44.7814076 128.9490308 112.8543606
  45.0339596 128.4271830 112.0927069  43.8438635 128.7856454 112.9570289
  49.8257359 127.9526087 120.6618349  50.6120448 127.5345510 120.3108766
  50.0896063 128.8572179 120.8299997  49.9967436 133.3898937 115.3607006
  49.3613269 133.4633564 116.0727910  49.6664842 133.9792536 114.6826085
  55.2265786 127.8901320 121.5651328  55.9590958 127.3200537 121.7989157
  54.4705141 127.5022920 122.0057833  44.5010364 130.8518414 115.0567981
  44.3846623 130.1763318 115.7249065  44.6112624 130.3650788 114.2400134
  46.8441905 130.3128561 118.7614670  46.4800113 129.7859182 119.4727591
  47.7009021 129.9227031 118.5881155  52.7491206 121.6022894 126.0245936
  52.4174531 122.4718305 125.8007151  52.1536819 121.2859178 126.7039967
  46.4847392 125.3418461 113.7576019  46.6521795 126.2098698 114.1246490
  46.2944561 125.5045743 112.8337308  42.6935207 130.2549237 121.4578553
  41.7685704 130.1225451 121.6656245  42.9419620 131.0343456 121.9548496
  52.6419869 126.3217980 123.1039286  51.7336747 126.2533389 122.8098047
  52.5907465 126.7989925 123.9321112  46.4636613 127.7976119 114.7422685
  46.3436238 128.2433169 115.5808166  45.7689202 128.1461436 114.1836223
  54.5081516 124.5234419 124.8817160  53.8655896 124.8166952 124.2356955
  54.0036444 124.4087339 125.6870357  52.1621679 128.2697592 115.5703019
  53.0739536 128.5024979 115.3950717  51.6531326 128.8534636 115.0078098
  46.7993517 127.6294826 126.5797869  47.6454712 128.0534240 126.7232518
  46.7392155 126.9728451 127.2736432  49.5057654 124.4455628 123.8192880
  48.6442133 124.7436881 124.1109618  49.5320089 124.6626027 122.8873913
  46.3219224 132.9897818 120.2266686  46.7857569 133.2685521 119.4371308
  46.0576022 132.0881263 120.0439777  45.2588110 129.1120971 117.0356251
  45.9612153 129.5642014 117.5030177  44.9268738 128.4704790 117.6636144
  39.0013444 127.3704523 122.3373385  38.2112498 127.6262052 121.8613495
  39.4924691 128.1852861 122.4425425  40.9528189 127.7349103 119.2956861
  40.1559352 127.8467797 119.8140357  40.7253781 128.0735755 118.4297752
  49.8474338 119.4492475 125.6417250  49.5038607 120.3394117 125.5656360
  50.2153300 119.2594133 124.7786835  49.8124621 129.4401086 114.1489685
  49.2971244 130.2105691 114.3878072  49.5401929 128.7666223 114.7722746
  47.3971732 124.2850787 119.2074923  46.5413328 123.8957638 119.0280562
  47.8098683 124.3642748 118.3474709  48.9270878 121.8197130 123.6066483
  48.4235674 121.7827266 122.7934288  49.2201485 122.7289873 123.6663140
  45.1713764 121.9035860 122.6132665  46.0366761 121.7078669 122.2538554
  45.2391273 121.6746212 123.5402022  54.7858895 132.1933441 116.0842858
  54.0088337 131.8544600 115.6398020  55.4650376 132.1986064 115.4097823
  49.6010924 127.3128178 115.9749466  49.2961059 127.6274328 116.8259609
  50.5541366 127.3909598 116.0176799  42.7776083 124.1338068 119.9849032
  43.3519835 123.9113250 119.2522225  43.3647066 124.2026763 120.7377633
  51.8355660 130.0211795 120.7913408  52.3487542 130.6541787 121.2935118
  52.4856884 129.4212990 120.4256768  43.1045670 126.1642529 114.0044917
  42.2682983 126.5017216 114.3254192  42.9650440 126.0291509 113.0672054
  45.0798751 121.0079317 118.7124101  44.4263163 120.6928334 118.0880716
  45.0379225 120.3855057 119.4383924  46.1909956 131.2898612 110.6277393
  45.2837018 131.0587865 110.8268542  46.6880988 130.4936231 110.8151375
  48.3136491 127.4961250 123.0371749  47.3959053 127.7176197 122.8793437
  48.7296635 127.5707561 122.1783456  49.0971539 128.8952666 118.1674429
  49.8443358 129.4074063 117.8581551  49.3663129 128.5736719 119.0278822
  47.3698189 131.3911207 115.1501383  46.4609408 131.1070240 115.2473853
  47.3993273 131.8110285 114.2904690  52.6017457 135.0017796 118.9192551
  52.1479784 134.1608706 118.9757741  51.9711423 135.6379195 119.2567331
  51.5450376 125.9309782 120.1493218  50.8073133 125.4187169 120.4803461
  51.7977150 125.4910164 119.3376495  51.6462004 118.7086034 120.7434987
  51.9520880 117.8483398 120.4560903  52.3714608 119.3003655 120.5433981
  37.9386360 129.1116721 119.1316585  37.7410759 128.5186082 118.4067652
  37.3833024 128.8068931 119.8492524  45.9183083 129.0039827 121.2511179
  45.9731693 128.0513664 121.1753655  45.1074285 129.1599267 121.7352477
  47.0674277 132.9319951 112.4889462  46.6293707 132.2155809 112.0295099
  47.8084718 133.1596065 111.9274553  43.8575443 127.6216887 119.0101557
  43.0443309 127.9211058 119.4166750  44.3534437 127.2272576 119.7276040
  55.1847392 131.2077148 118.5465780  55.0465290 131.3978744 117.6186970
  54.8283611 131.9696530 119.0033831  43.3489518 125.1935243 124.6262792
  43.9888897 125.0524002 123.9285756  42.5167048 124.9069756 124.2501394
  40.4332585 128.6380755 116.8157537  39.5030173 128.5765210 117.0327500
  40.5290057 128.1156708 116.0194179  40.3518134 125.1635568 119.4035779
  40.6124952 126.0780901 119.2944940  41.1735307 124.6960010 119.5532392
  47.7268632 123.2035266 128.5900265  47.0796547 123.9025215 128.4964741
  48.4969647 123.6371410 128.9576513  51.1885505 131.7904332 112.0821519
  50.5714675 131.0651160 111.9854572  50.7201993 132.5513692 111.7388594
  42.9784051 126.0089757 111.2042824  42.1013517 125.8878557 110.8405070
  43.4541804 125.2175835 110.9521712  49.4744627 124.1710676 121.0939550
  49.9713326 123.4180639 120.7740620  48.7031608 124.2074993 120.5282759
  50.5574407 132.9282364 118.6677973  49.6230686 133.0483826 118.4982677
  50.7351076 132.0254830 118.4037983  46.0579595 126.3128059 120.8211234
  45.6877383 125.7599100 121.5092140  46.5538688 125.7086193 120.2686234
  53.9446959 128.7699683 119.2028007  54.4107411 129.6027674 119.1288310
  54.3954459 128.3044664 119.9073266  52.0123190 135.1143504 116.2014159
  52.2883034 135.0000099 117.1108033  51.1427689 134.7160989 116.1626332
  51.9163621 121.1380270 123.2418908  51.0026701 121.3684497 123.4101115
  52.3456723 121.2218714 124.0932941  37.7062744 127.6031612 116.6455729
  38.0016185 126.6942290 116.5922783  36.8050780 127.5819351 116.3236732
  41.2356991 125.6787608 122.6283278  40.5143577 126.2923576 122.4890751
  42.0250247 126.2145373 122.5499924  44.0383305 123.0142035 128.9023930
  44.5617707 123.2604331 129.6650239  43.8195638 123.8462070 128.4827067
  39.4350586 125.2845709 116.7695054  39.1063292 124.4043088 116.5870160
  39.7889957 125.2293378 117.6571444  42.5492409 125.5718679 117.1370532
  42.8888482 126.1004600 116.4149140  42.9964530 125.9099085 117.9129099
  45.2435850 123.9555730 126.5873600  44.9032670 123.1563543 126.9894280
  44.5374856 124.2557441 126.0150433  45.8952322 121.0405042 125.0400923
  46.7178391 120.5665521 124.9179813  46.1390385 121.8195526 125.5399609
  44.5360556 124.0693301 115.3363825  45.2568919 124.4474554 114.8327542
  43.9125860 124.7882178 115.4398803  48.6791679 124.7738450 116.2722157
  48.8955294 125.6563088 115.9710985  48.1985746 124.3824663 115.5427799
  43.4190901 127.7324163 122.8492902  43.2735481 128.0464466 123.7417183
  42.9416104 128.3509063 122.2963800  45.2787283 124.7226711 122.8973791
  45.2648852 123.8267804 122.5606089  45.9959712 124.7297375 123.5312077
  47.1313414 125.1564051 124.9426919  46.8731192 126.0781122 124.9411249
  46.5998454 124.7594486 125.6327383  44.6824179 123.6041091 118.1661361
  44.8040091 122.6757737 118.3652249  44.3926222 123.6179777 117.2539677
  47.5515370 121.2896002 121.3028081  47.5737067 121.3535335 120.3480061
  47.9683429 120.4500510 121.4968587  57.9298994 131.0251261 119.3407304
  58.3730140 130.2758586 118.9426427  57.0525504 131.0161398 118.9581036
  54.9626198 135.0281308 116.3501233  55.4877523 135.3668581 115.6250553
  54.8748551 134.0928324 116.1664368  41.4106871 131.2160402 117.2638318
  41.1652913 130.3122732 117.4618528  41.5802786 131.2177552 116.3217796
  49.1003581 122.0884078 126.6463073  49.6185525 122.8245105 126.3209562
  48.7458714 122.3948071 127.4809832  40.6802519 126.9488759 114.7624479
  39.9871764 127.0233114 114.1064515  40.4354271 126.1849103 115.2845996
  49.3516175 118.5084360 122.1663970  49.6317929 117.8407550 122.7924396
  50.1366782 118.7013456 121.6538634  51.2439413 124.0157578 126.0994946
  50.6489345 124.2962590 125.4041434  50.9589110 124.5051479 126.8711687
  47.5396442 129.0204167 111.0705049  48.4855547 128.8910375 111.1393467
  47.1610687 128.2818829 111.5474477  53.5118327 120.6860173 121.0331940
  53.3143148 120.3775261 121.9175272  54.1218032 121.4121812 121.1629870
  45.7239359 126.9454144 111.0059934  44.8170815 126.6487256 111.0822647
  46.0015340 126.6483962 110.1394220  47.3401425 121.4891033 117.1604175
  46.5302154 121.1438118 117.5359421  48.0285842 121.1798577 117.7491787
  49.2691973 120.5669080 118.7828472  49.8223012 120.9864533 119.4418495
  49.5062060 119.6404828 118.8251428  44.4938144 123.8041079 111.1471913
  45.3557308 124.1295977 111.4067730  44.6788488 123.0172575 110.6344979
  52.6470781 122.6769605 118.2907136  52.0669450 123.3354409 117.9085188
  52.3806713 121.8546950 117.8794553  51.0974347 122.0774663 120.4928456
  51.5974125 122.1891197 119.6842775  51.7409955 121.7735716 121.1329265
  51.4295659 124.8369696 117.3463484  50.5421514 125.1219346 117.1283679
  51.8449648 124.6763459 116.4990761  54.7810195 124.8616217 121.0617823
  55.5570585 125.3512669 121.3342440  54.0558329 125.2874271 121.5189693
  57.2182753 125.5743836 122.1191764  57.8127244 125.3339572 121.4085072
  57.2909337 124.8550966 122.7465300  51.4036682 130.3524232 117.5613774
  51.3471884 130.8092783 116.7221407  51.9565025 129.5914916 117.3836617
  55.2141488 126.1413963 118.3863894  54.9578422 125.7410599 119.2172102
  54.5894356 126.8557757 118.2614033  59.5253826 128.8810037 120.8935185
  58.9653384 128.9503226 121.6666747  58.9197329 128.7051021 120.1734682
  52.4825569 135.0396899 113.4909964  53.3171173 134.6078098 113.3087439
  52.3209912 134.8678913 114.4186859  52.1371462 131.5429013 114.8566304
  52.0820265 131.3773284 113.9154748  51.5117517 132.2505046 115.0128493
  45.4467587 121.0437122 114.4351622  45.4346257 121.9878962 114.5919893
  46.3391009 120.8607267 114.1411083  49.2619707 117.6379898 118.6897559
  48.4952102 117.0838385 118.8354241  49.6730412 117.7101767 119.5511710
  55.9192505 136.3371235 118.7124101  55.2656918 136.0220252 118.0880716
  55.8772980 135.7146975 119.4383924  58.1795180 136.8182951 117.1604175
  57.3695908 136.4730036 117.5359421  58.8679597 136.5090495 117.7491787
  60.1013461 132.9671816 118.6897559  59.3345857 132.4130303 118.8354241
  60.5124166 133.0393685 119.5511710   0.7657427  35.3883842 103.0746540
   1.2908751  35.7271115 102.3495860   0.6779780  34.4530858 102.8909674
   6.9141073  45.9169085 110.3110448   7.5519483  45.7975832 109.6073788
   6.7961916  46.8649929 110.3698400   3.7230780  45.8696513 110.2471972
   3.3849291  45.7537578 109.3592507   4.5920548  45.4687678 110.2272978
   5.1617154  51.3902957 101.5483328   4.5105134  51.9757037 101.1617342
   5.9561517  51.9209152 101.6078366   1.8514031  47.1845325 111.7438721
   2.4477603  46.9601347 111.0295684   1.9089002  46.4430070 112.3464169
   1.4239059  44.6384760  99.5788912   1.6764580  44.1166282  98.8172375
   0.4863618  44.4750906  99.6815596   6.4682342  43.6420539 107.3863656
   7.2545431  43.2239962 107.0354073   6.7321046  44.5466631 107.5545304
   6.6392419  49.0793389 102.0852312   6.0038252  49.1528015 102.7973217
   6.3089826  49.6686988 101.4071392  11.8690769  43.5795772 108.2896634
  12.6015941  43.0094989 108.5234464  11.1130125  43.1917372 108.7303140
   1.1435348  46.5412866 101.7813287   1.0271606  45.8657770 102.4494372
   1.2537608  46.0545240 100.9645440   3.4866889  46.0023013 105.4859977
   3.1225096  45.4753634 106.1972898   4.3434005  45.6121482 105.3126462
   3.1272376  41.0312913 100.4821325   3.2946778  41.8993149 100.8491796
   2.9369545  41.1940195  99.5582614   5.8847709  49.4929892 112.1487156
   5.5848432  50.3954931 112.0402963   5.5398768  49.2262075 113.0008308
   9.2844853  42.0112432 109.8284593   8.3761730  41.9427841 109.5343354
   9.2332448  42.4884377 110.6566418   3.1061597  43.4870571 101.4667992
   2.9861222  43.9327621 102.3053472   2.4114185  43.8355888 100.9081530
  11.1506499  40.2128871 111.6062467  10.5080879  40.5061404 110.9602261
  10.6461428  40.0981791 112.4115663   8.8046663  43.9592044 102.2948326
   9.7164519  44.1919430 102.1196024   8.2956310  44.5429088 101.7323405
   7.4116245  48.9417862 109.6861907   6.7825107  49.1063576 108.9837975
   7.0241907  49.3559472 110.4572872  11.2905477  49.8772300 107.0406271
  10.6056515  50.2571201 106.4903305  11.3749326  50.4867627 107.7738219
   8.5456409  47.5232259 113.6401615   8.7573304  48.1664019 112.9635996
   8.4986157  46.6894576 113.1723545   2.9644207  48.6792270 106.9511993
   3.4282552  48.9579973 106.1616615   2.7001005  47.7775715 106.7685083
   1.9013093  44.8015423 103.7601558   2.6037136  45.2536466 104.2275484
   1.5693721  44.1599241 104.3881451   9.6602236  50.4004214 111.8123972
  10.4819680  49.9984402 111.5306654   9.6564639  50.2972449 112.7640088
   3.4258840  49.9488258 113.9684683   3.4903272  50.4108665 114.8042854
   2.7169764  49.3185623 114.0966992  17.7508230  46.7442963 108.1608944
  16.9971938  46.1750361 108.0052948  17.8855771  46.7105627 109.1079578
   3.1406858  51.6156365 103.8363663   3.0052532  52.4607901 104.2648511
   3.6816670  51.8175643 103.0729597   6.8656572  52.5182732 115.9945406
   6.8475047  53.3391613 115.5025675   7.7876492  52.3936807 116.2195547
   6.4549604  45.1295538 100.8734992   5.9396227  45.9000143 101.1123379
   6.1826912  44.4560674 101.4968053   4.0396715  39.9745239 105.9320230
   3.1838311  39.5852089 105.7525869   4.4523667  40.0537200 105.0720015
  11.4283878  47.8827893 102.8088165  10.6513321  47.5439052 102.3643327
  12.1075359  47.8880516 102.1343130   6.2435907  43.0022630 102.6994773
   5.9386043  43.3168780 103.5504916   7.1966349  43.0804050 102.7422106
   4.6882339  49.1612854 104.3487727   4.1603700  48.4265613 104.0360964
   4.1869842  49.9387530 104.1027695   9.6675185  47.3561874 109.4654773
   9.0098859  48.0461136 109.5534902  10.4715584  47.7458306 109.8088759
   8.4780644  45.7106247 107.5158715   8.9912525  46.3436239 108.0180424
   9.1281868  45.1107442 107.1502075   1.7223734  36.6973769 105.4369408
   1.0688147  36.3822786 104.8126022   1.6804208  36.0749509 106.1629231
   2.8334939  46.9793064  97.3522700   1.9262001  46.7482317  97.5513849
   3.3305971  46.1830683  97.5396681   5.7403018  55.6890571 100.2719386
   5.0664717  55.9922268 100.8804344   6.1268840  56.4919651  99.9224843
   4.9561475  43.1855702 109.7617055   4.0384036  43.4070649 109.6038743
   5.3721618  43.2602013 108.9028763   5.7396522  44.5847118 104.8919736
   6.4868341  45.0968515 104.5826858   6.0088112  44.2631171 105.7524129
   4.0123173  47.0805659 101.8746690   3.1034392  46.7964692 101.9719160
   4.0418256  47.5004737 101.0149997   9.2442440  50.6912248 105.6437857
   8.7904767  49.8503158 105.7003048   8.6136407  51.3273647 105.9812638
   8.1875359  41.6204234 106.8738525   7.4498116  41.1081621 107.2048767
   8.4402133  41.1804616 106.0621802   7.6875379  52.5288745 106.5787676
   7.9798354  53.0893802 105.8600041   8.1974000  52.8217306 107.3340835
   8.2886987  34.3980486 107.4680294   8.5945864  33.5377850 107.1806209
   9.0139592  34.9898107 107.2679288   2.5608067  44.6934279 107.9756485
   2.6156676  43.7408116 107.8998962   1.7499269  44.8493718 108.4597784
   3.7099260  48.6214402  99.2134768   3.2718690  47.9050261  98.7540406
   4.4509701  48.8490517  98.6519860   2.6509004  53.3069096 107.6681129
   2.6085183  53.5329942 106.7389661   3.5671703  53.0732471 107.8166930
  11.8272375  46.8971599 105.2711087  11.6890274  47.0873195 104.3432276
  11.4708594  47.6590982 105.7279138  11.8541755  48.9648126 110.2822358
  12.2878261  48.8723416 111.1305412  12.5673335  48.9405627 109.6442374
   5.5869650  52.5650221 111.8155459   5.6406672  53.1341157 112.5833175
   4.7184431  52.7352106 111.4509496  12.7157304  49.0071827 112.8155244
  12.9093194  49.9117638 113.0614519  12.6157922  48.5479246 113.6493829
   4.5457749  46.7310483 113.3742391   5.4749809  46.8821642 113.2011358
   4.1248779  46.8194503 112.5191037   3.3446081  50.7561147 111.1440929
   3.2057167  50.3879931 112.0166867   2.5560677  51.2708786 110.9724886
   3.9394233  55.8570244 102.4866465   4.1145989  55.3858287 103.3012088
   3.2527021  56.4836010 102.7147726   4.8951296  50.1342750 108.5329766
   4.5601129  50.0943520 109.4287416   4.3955242  49.4687466 108.0600177
   7.8310488  47.4798784  98.8066826   7.2139659  46.7545612  98.7099879
   7.3626976  48.2408144  98.4633900   9.4864620  52.1897692 116.4672606
   9.4277166  51.5056913 115.8003189   9.8884138  52.9316682 116.0153232
   9.4882027  50.1537276 114.6986586   8.6008806  49.8163198 114.8212985
  10.0580578  49.4220308 114.9355351   3.0183180  54.8138729 111.6647829
   2.9453352  55.6193700 112.1767134   2.5760573  55.0130695 110.8395851
   2.8072960  54.0510499 105.1750651   2.0240482  54.5932179 105.2688875
   3.5065705  54.5684478 105.5744892   6.1169610  39.8605128 107.8184856
   6.6138310  39.1075091 107.4985926   5.3456591  39.8969445 107.2528065
  13.9699367  45.5645494 109.4603148  13.9589244  46.4470209 109.0897081
  13.1016747  45.2117045 109.2657685   5.4781864  54.7125563 113.8205988
   6.1909836  55.3473028 113.7481889   4.9871892  54.8089429 113.0045990
   7.1999391  48.6176815 105.3923280   6.2655669  48.7378278 105.2227984
   7.3776059  47.7149282 105.1283289   2.7004579  42.0022511 107.5456541
   2.3302366  41.4493552 108.2337446   3.1963671  41.3980645 106.9931541
  10.5871942  44.4594135 105.9273314  11.0532394  45.2922126 105.8533616
  11.0379443  43.9939116 106.6318572   8.6548173  50.8037956 102.9259466
   8.9308017  50.6894551 103.8353340   7.7852672  50.4055441 102.8871639
   8.3295063  45.0164614 112.4664109   7.6766514  45.2640521 111.8116562
   8.7075443  44.2028752 112.1326586   5.2902237  55.0524307 106.5692279
   5.4724632  54.2345963 107.0320032   6.1135223  55.2691999 106.1317169
   5.6244403  53.9792492 103.8307328   6.1532169  53.4684947 103.2177490
   5.8872622  53.6635022 104.6952861   3.1205419  57.0651352 113.1887762
   3.6723727  57.2282974 113.9536847   3.4611613  57.6555790 112.5167787
   6.2573806  55.0133328 110.1751444   6.1324946  54.2123068 109.6662390
   6.9152898  55.5079521 109.6865414   8.3208715  52.8142348 111.8030994
   7.3739050  52.6947699 111.7309321   8.6691488  51.9264846 111.8857256
   5.3255148  52.6095064 108.0035347   5.1780111  51.6811771 108.1842917
   6.1508642  52.6315155 107.5192422   8.9289270  53.4323623 109.0900219
   9.8535817  53.2266484 108.9524670   8.7604573  53.1840024 109.9989561
   1.1785540  39.7587753 102.0609131   1.8993902  40.1369005 101.5572848
   0.5550844  40.4776630 102.1644109   5.3216662  40.4632902 102.9967464
   5.5380277  41.3457540 102.6956292   4.8410730  40.0719115 102.2673106
   8.7184586  53.9509290 104.4462311   8.8921464  53.3855713 103.6936163
   9.2113477  54.7510185 104.2641801   1.3249163  39.2935543 104.8906668
   1.4465074  38.3652189 105.0897556   1.0351205  39.3074229 103.9784984
  14.5723977  46.7145713 106.0652611  15.0155123  45.9653038 105.6671734
  13.6950488  46.7055850 105.6826343   9.7059759  53.2676055 101.5459209
  10.4010663  53.8882747 101.7646524  10.0482909  52.4171406 101.8211587
  11.6051182  50.7175760 103.0746540  12.1302506  51.0563033 102.3495860
  11.5173534  49.7822775 102.8909674   3.2671230  54.6309834 115.2036416
   3.5758357  54.3858981 116.0759116   4.0646713  54.8356472 114.7155287
   3.2891843  56.7847743 107.4341793   2.8496833  56.2924122 108.1274650
   4.0399959  56.2420711 107.1933868  11.2945088  51.3508664 118.3797738
  10.5040632  51.3332803 117.8402237  11.0578442  51.8896957 119.1346774
  11.4142963  48.2001130 115.6930466  11.4640968  48.0351138 116.6345989
  11.3056886  47.3328389 115.3028347  12.9161160  50.6198072 115.9372488
  12.6245968  50.9828052 116.7735949  12.3033291  49.9065080 115.7585820
  14.1156842  48.1850951 108.4575058  14.9503733  48.6240756 108.6212618
  14.2515971  47.7089605 107.6383304  11.1648348  45.7430686 114.4052546
  11.6402470  45.9358333 113.5971397  10.2413913  45.7989872 114.1595930
   3.7974627  53.3737806 100.4534303   3.2248594  53.9927993 100.0004775
   4.3707421  53.9237168 100.9874225   9.8650017  42.6196446 112.6380851
  10.8167440  42.7194544 112.6593076   9.6953467  41.8274715 113.1478936
   7.0171887  53.6574956 101.5842885   7.9502560  53.5920518 101.7875760
   6.9295100  54.4931223 101.1257418   9.6459904  52.9740827  98.5446833
   9.5673535  52.6400690  99.4382590  10.4669570  53.4662595  98.5438305
  12.3438095  45.8402566 111.7523151  12.3114415  44.9018567 111.9382835
  12.9538718  45.9186603 111.0188976   4.1821426  44.7098619  97.7950355
   5.1280530  44.5804827  97.8638773   3.8035671  43.9713281  98.2719783
  12.4932583  42.6313609 111.7981434  11.9771632  41.8472066 111.6111363
  13.3772532  42.3032326 111.9627954  10.1543310  36.3754625 107.7577247
   9.9568131  36.0669713 108.6420579  10.7643016  37.1016264 107.8875177
  18.1614645  46.9018573 110.8929188  18.8918033  46.6403861 111.4536891
  17.5521590  46.1647295 110.9331256  16.2429942  45.0426435 111.4903639
  15.5163105  44.9082400 110.8820131  15.8277229  45.3503264 112.2960357
   2.3664343  42.6348595  97.7305240   1.4595798  42.3381708  97.8067954
   2.6440324  42.3378414  96.8639527   3.9826409  37.1785485 103.8849482
   3.1727137  36.8332570 104.2604728   4.6710825  36.8693029 104.4737093
   5.9116957  36.2563532 105.5073778   6.4647995  36.6758985 106.1663801
   6.1487043  35.3299280 105.5496734   1.1363127  39.4935531  97.8717220
   1.9982291  39.8190429  98.1313037   1.3213472  38.7067027  97.3590285
   9.2895764  38.3664057 105.0152443   8.7094433  39.0248861 104.6330495
   9.0231697  37.5441402 104.6039860   7.7399330  37.7669115 107.2173763
   8.2399109  37.8785649 106.4088082   8.3834938  37.4630168 107.8574571
   8.0720642  40.5264147 104.0708791   7.1846497  40.8113798 103.8528986
   8.4874631  40.3657911 103.2236068  11.4235178  40.5510668 107.7863130
  12.1995568  41.0407121 108.0587747  10.6983312  40.9768723 108.2435000
  13.8607737  41.2638288 108.8437071  14.4552227  41.0234024 108.1330379
  13.9334320  40.5445418 109.4710607   7.2163855  50.2908822  98.1656811
   7.9199705  50.4958825  98.7814466   6.4926504  50.8585584  98.4305894
   8.0461666  46.0418683 104.2859081   7.9896867  46.4987235 103.4466713
   8.5990008  45.2809368 104.1081924  11.8566472  41.8308415 105.1109201
  11.6003406  41.4305051 105.9417408  11.2319340  42.5452209 104.9859340
  16.1678809  44.5704489 107.6180492  15.6078367  44.6397678 108.3912054
  15.5622313  44.3945473 106.8979988   9.1250553  50.7291351 100.2155271
   9.9596157  50.2972550 100.0332746   8.9634896  50.5573365 101.1432165
   8.7796445  47.2323465 101.5811610   8.7245249  47.0667736 100.6400054
   8.1542500  47.9399498 101.7373800   2.0892570  36.7331574 101.1596929
   2.0771240  37.6773414 101.3165199   2.9815992  36.5501719 100.8656390
   2.0182134  55.4100464 109.2464685   1.0677765  55.4102326 109.1329058
   2.3214621  54.6633199 108.7300720   5.9044690  33.3274350 105.4142865
   5.1377086  32.7732837 105.5599548   6.3155395  33.3996219 106.2757017
  17.7534828  61.2461002 110.3110448  18.3913238  61.1267750 109.6073788
  17.6355671  62.1941846 110.3698400  14.5624534  61.1988431 110.2471972
  14.2243046  61.0829495 109.3592507  15.4314302  60.7979596 110.2272978
  10.4211350  63.0523907 106.2368863   9.8576215  62.9613844 105.4685151
  10.3063745  62.2323811 106.7171356  15.0444317  62.3523282 116.2058178
  15.0332958  61.9576081 115.3338682  15.2064957  61.6189355 116.7991949
   7.9675782  64.5475099 109.0753084   8.7597074  64.2065923 108.6599383
   8.2072432  64.6570074 109.9955237  16.0010909  66.7194875 101.5483328
  15.3498888  67.3048955 101.1617342  16.7955271  67.2501070 101.6078366
   9.9266536  63.8084012 101.9470463  10.6997412  63.2612999 101.8083338
  10.2791935  64.6728261 102.1584924  11.7651578  65.1360394 115.1537362
  11.4741444  66.0406025 115.0384028  12.4008563  65.1776922 115.8681431
  12.6907785  62.5137243 111.7438721  13.2871357  62.2893265 111.0295684
  12.7482757  61.7721988 112.3464169  12.2632814  59.9676678  99.5788912
  12.5158334  59.4458199  98.8172375  11.3257373  59.8042823  99.6815596
  17.3076096  58.9712456 107.3863656  18.0939186  58.5531879 107.0354073
  17.5714801  59.8758549 107.5545304  17.4786174  64.4085307 102.0852312
  16.8432007  64.4819933 102.7973217  17.1483580  64.9978905 101.4071392
  22.7084523  58.9087690 108.2896634  23.4409695  58.3386906 108.5234464
  21.9523879  58.5209290 108.7303140  11.9829102  61.8704784 101.7813287
  11.8665360  61.1949687 102.4494372  12.0931362  61.3837158 100.9645440
  14.3260643  61.3314931 105.4859977  13.9618850  60.8045552 106.1972898
  15.1827759  60.9413400 105.3126462  20.2309944  52.6209264 112.7491243
  19.8993269  53.4904675 112.5252458  19.6355557  52.3045548 113.4285273
  13.9666130  56.3604831 100.4821325  14.1340533  57.2285067 100.8491796
  13.7763299  56.5232112  99.5582614  16.7241463  64.8221810 112.1487156
  16.4242186  65.7246848 112.0402963  16.3792523  64.5553993 113.0008308
  10.1753945  61.2735606 108.1823860   9.2504441  61.1411821 108.3901552
  10.4238358  62.0529826 108.6793802  20.1238607  57.3404350 109.8284593
  19.2155484  57.2719758 109.5343354  20.0726203  57.8176295 110.6566418
  13.9455351  58.8162488 101.4667992  13.8254976  59.2619539 102.3053472
  13.2507939  59.1647806 100.9081530   7.5362756  60.9168880 109.0167649
   7.6655137  61.1703359 109.9307061   6.8560207  61.5096588 108.6972304
  11.7062243  71.5866130 105.1158123  11.6286273  72.5373955 105.1946604
  11.1023887  71.2412002 105.7733050  14.1979473  58.7593995 117.7719490
  13.4212807  59.3187916 117.7622355  14.8370036  59.2450778 118.2934360
  21.9900254  55.5420788 111.6062467  21.3474634  55.8353321 110.9602261
  21.4855182  55.4273709 112.4115663  19.6440417  59.2883961 102.2948326
  20.5558273  59.5211348 102.1196024  19.1350064  59.8721006 101.7323405
  12.4525845  61.5679449 117.3337457  13.1940530  62.1064493 117.0572281
  11.7462831  62.1945738 117.4909009  17.9281185  63.7108589 115.9309619
  18.3364541  63.2691000 115.1864251  17.2058446  63.1361217 116.1843811
  14.2812255  58.6481196 113.3043176  15.1273450  59.0720610 113.4477825
  14.2210893  57.9914820 113.9981739  18.2510000  64.2709780 109.6861907
  17.6218862  64.4355494 108.9837975  17.8635662  64.6851389 110.4572872
  22.1299231  65.2064218 107.0406271  21.4450270  65.5863119 106.4903305
  22.2143081  65.8159544 107.7738219  17.4311700  56.3085564 114.9624349
  17.1872632  57.0627625 114.4258625  17.7071631  56.6870912 115.7971596
  19.3850163  62.8524177 113.6401615  19.5967058  63.4955937 112.9635996
  19.3379911  62.0186493 113.1723545  16.9876392  55.4641997 110.5438187
  16.1260871  55.7623251 110.8354924  17.0138827  55.6812396 109.6119220
  13.8037961  64.0084188 106.9511993  14.2676307  64.2871891 106.1616615
  13.5394760  63.1067633 106.7685083  10.6962042  63.5555669 109.8891756
  11.2663400  63.9842938 109.2509240  11.2870154  63.2738254 110.5875942
  12.7406847  60.1307340 103.7601558  13.4430891  60.5828384 104.2275484
  12.4087476  59.4891159 104.3881451  11.1887209  58.7219097 118.1352767
  10.5585870  59.4035378 118.3688164  11.0823297  58.6102179 117.1905905
   6.4832181  58.3890893 109.0618691   5.6931235  58.6448422 108.5858802
   6.9743429  59.2039231 109.1670732  20.4995991  65.7296132 111.8123972
  21.3213435  65.3276319 111.5306654  20.4958394  65.6264366 112.7640088
   8.4346927  58.7535472 106.0202168   7.6378090  58.8654166 106.5385664
   8.2072519  59.0922124 105.1543059  14.2652594  65.2780175 113.9684683
  14.3297027  65.7400583 114.8042854  13.5563518  64.6477540 114.0966992
   4.7669884  58.6421383 111.4933682   5.0177923  59.5268393 111.7591258
   5.3029433  58.4625985 110.7208774  28.5901984  62.0734881 108.1608944
  27.8365692  61.5042279 108.0052948  28.7249525  62.0397545 109.1079578
  13.9800612  66.9448283 103.8363663  13.8446287  67.7899819 104.2648511
  14.5210425  67.1467561 103.0729597   7.4330009  64.4623721 104.4091588
   7.9454530  65.2566971 104.5597153   8.0852722  63.7650011 104.3425189
   9.2424894  67.5789477 106.4914341   9.4191522  68.5007442 106.3035325
  10.0381728  67.2647896 106.9208721  13.3835913  54.4397742 118.0898275
  14.1245626  55.0404895 118.0102737  13.6153836  53.6975380 117.5316317
   8.5277251  59.6254109 116.3676504   8.4130766  58.7239366 116.6683603
   7.6721768  59.8717806 116.0161321  15.6069088  67.5671849 117.9664005
  15.1632943  66.7808228 117.6484910  16.2686302  67.7551000 117.3007896
  10.3656210  69.0967651 112.4924684  10.9163635  68.9684714 111.7201677
   9.5267686  69.3962540 112.1419576  17.7050327  67.8474649 115.9945406
  17.6868802  68.6683530 115.5025675  18.6270247  67.7228725 116.2195547
  14.1623381  65.3618779 116.8368915  14.6951717  64.6007067 116.6068223
  13.6337462  65.0692431 117.5793069  17.3293076  50.4678845 112.3662556
  16.9857345  51.3580486 112.2901667  17.6972038  50.2780502 111.5032141
   5.3978926  62.7912375 105.1851159   6.2354148  63.2009384 104.9684866
   5.5757194  61.8511817 105.1551352  17.2943358  60.4587456 100.8734992
  16.7789982  61.2292061 101.1123379  17.0220667  59.7852592 101.4968053
  14.8790469  55.3037157 105.9320230  14.0232066  54.9144007 105.7525869
  15.2917421  55.3829117 105.0720015  16.4089616  52.8383500 110.3311790
  15.9054412  52.8013635 109.5179595  16.7020223  53.7476243 110.3908446
  12.6532502  52.9222230 109.3377971  13.5185499  52.7265038 108.9783861
  12.7210011  52.6932581 110.2647328  22.2677632  63.2119811 102.8088165
  21.4907075  62.8730970 102.3643327  22.9469113  63.2172434 102.1343130
  17.0829662  58.3314548 102.6994773  16.7779797  58.6460697 103.5504916
  18.0360104  58.4095968 102.7422106  15.5276093  64.4904771 104.3487727
  14.9997455  63.7557531 104.0360964  15.0263596  65.2679448 104.1027695
  20.5068939  62.6853792 109.4654773  19.8492614  63.3753053 109.5534902
  21.3109339  63.0750224 109.8088759  10.2594821  55.1524438 106.7094338
  10.8338573  54.9299619 105.9767531  10.8465803  55.2213132 107.4622940
  19.3174398  61.0398165 107.5158715  19.8306280  61.6728156 108.0180424
  19.9675622  60.4399360 107.1502075  10.5864408  57.1828899 100.7290223
   9.7501720  57.5203585 101.0499498  10.4469178  57.0477878  99.7917360
  12.5617489  52.0265687 105.4369408  11.9081901  51.7114704 104.8126022
  12.5197963  51.4041427 106.1629231  13.6728694  62.3084982  97.3522700
  12.7655755  62.0774235  97.5513849  14.1699726  61.5122601  97.5396681
  16.5796772  71.0182489 100.2719386  15.9058471  71.3214186 100.8804344
  16.9662594  71.8211569  99.9224843  15.7955229  58.5147620 109.7617055
  14.8777790  58.7362567 109.6038743  16.2115373  58.5893931 108.9028763
  16.5790277  59.9139036 104.8919736  17.3262096  60.4260433 104.5826858
  16.8481866  59.5923088 105.7524129  14.8516927  62.4097576 101.8746690
  13.9428146  62.1256609 101.9719160  14.8812011  62.8296655 101.0149997
  20.0836194  66.0204166 105.6437857  19.6298522  65.1795076 105.7003048
  19.4530161  66.6565564 105.9812638  19.0269114  56.9496152 106.8738525
  18.2891871  56.4373538 107.2048767  19.2795888  56.5096534 106.0621802
  18.5269134  67.8580663 106.5787676  18.8192108  68.4185720 105.8600041
  19.0367754  68.1509224 107.3340835  19.1280741  49.7272404 107.4680294
  19.4339618  48.8669767 107.1806209  19.8533346  50.3190024 107.2679288
   5.4205097  60.1303091 105.8561892   5.2229497  59.5372451 105.1312959
   4.8651761  59.8255301 106.5737831  13.4001821  60.0226197 107.9756485
  13.4550431  59.0700033 107.8998962  12.5893023  60.1785636 108.4597784
  14.5493015  63.9506320  99.2134768  14.1112445  63.2342179  98.7540406
  15.2903456  64.1782435  98.6519860  11.3394181  58.6403257 105.7346864
  10.5262046  58.9397427 106.1412056  11.8353175  58.2458946 106.4521346
  13.4902759  68.6361014 107.6681129  13.4478938  68.8621860 106.7389661
  14.4065458  68.4024388 107.8166930  16.9368393  59.1045081 114.5661758
  17.2917780  59.3316554 115.4256224  17.5840524  59.4363458 113.9439013
  22.6666130  62.2263517 105.2711087  22.5284028  62.4165113 104.3432276
  22.3102348  62.9882900 105.7279138  10.8308256  56.2121612 111.3508099
  11.4707635  56.0710371 110.6531062   9.9985786  55.9256126 110.9746701
  22.6935509  64.2940044 110.2822358  23.1272016  64.2015333 111.1305412
  23.4067090  64.2697545 109.6442374  11.6068560  65.5124043 107.4643091
  12.4009158  65.0174363 107.2625666  10.8960252  64.9841906 107.1010797
  16.4263404  67.8942138 111.8155459  16.4800426  68.4633075 112.5833175
  15.5578185  68.0644023 111.4509496   7.9151323  59.6567124 103.5402844
   6.9848911  59.5951580 103.7572806   8.0108795  59.1343077 102.7439485
   7.8336872  56.1821937 106.1281086   8.0943689  57.0967271 106.0190246
   8.6554044  55.7146380 106.2777699   9.3061797  57.5959694 113.2979910
   9.9784851  57.3877057 112.6492559   8.4791584  57.3981780 112.8585143
  23.5551059  64.3363745 112.8155244  23.7486949  65.2409555 113.0614519
  23.4551677  63.8771164 113.6493829  15.2087369  54.2221635 115.3145571
  14.5615285  54.9211585 115.2210048  15.9788385  54.6557779 115.6821819
  18.6166167  64.4870488 118.3896124  18.4651674  64.2581039 117.4726208
  18.6070847  65.4441089 118.4027469  15.3851504  62.0602400 113.3742391
  16.3143564  62.2113560 113.2011358  14.9642534  62.1486421 112.5191037
  14.1839836  66.0853065 111.1440929  14.0450921  65.7171849 112.0166867
  13.3954432  66.6000704 110.9724886  14.7787988  71.1862161 102.4866465
  14.9539743  70.7150204 103.3012088  14.0920776  71.8127927 102.7147726
  15.7345051  65.4634667 108.5329766  15.3994883  65.4235437 109.4287416
  15.2348996  64.7979383 108.0600177   9.7089295  60.8702297 114.0582347
   9.5709093  60.1382536 114.6593887  10.6194218  60.7811198 113.7766535
  18.6704242  62.8090702  98.8066826  18.0533413  62.0837530  98.7099879
  18.2020731  63.5700062  98.4633900  12.3371595  60.5822257 113.5466027
  13.0471214  59.9415449 113.5052646  12.2940904  60.8335152 114.4692208
  20.3258374  67.5189610 116.4672606  20.2670920  66.8348830 115.8003189
  20.7277892  68.2608600 116.0153232  11.0500529  57.5687475 115.3661667
  10.5137886  57.1178213 116.0183263  10.4617238  57.7033384 114.6232131
   9.3449073  74.3351524 109.2606325   9.5845671  74.9670048 109.9385344
   8.5018269  73.9839564 109.5471684  10.4602788  57.0276126  97.9288130
   9.5832255  56.9064927  97.5650377  10.9360541  56.2362204  97.6767019
  20.3275781  65.4829194 114.6986586  19.4402560  65.1455116 114.8212985
  20.8974332  64.7512225 114.9355351   1.9804928  61.8153286 108.0229637
   2.6675968  61.5015016 107.4350653   1.8253057  62.7194650 107.7496889
   6.7839651  56.7043482 112.4514661   6.6997839  56.0969152 111.7165071
   5.9622357  57.1952501 112.4524157  13.8576935  70.1430646 111.6647829
  13.7847106  70.9485618 112.1767134  13.4154328  70.3422612 110.8395851
  13.6466714  69.3802416 105.1750651  12.8634236  69.9224097 105.2688875
  14.3459460  69.8976396 105.5744892  16.9563364  55.1897046 107.8184856
  17.4532064  54.4367008 107.4985926  16.1850346  55.2261363 107.2528065
  24.8093122  60.8937411 109.4603148  24.7982998  61.7762127 109.0897081
  23.9410501  60.5408962 109.2657685  16.3175618  70.0417480 113.8205988
  17.0303590  70.6764945 113.7481889  15.8265647  70.1381346 113.0045990
  18.0393145  63.9468733 105.3923280  17.1049424  64.0670196 105.2227984
  18.2169814  63.0441200 105.1283289  13.5398333  57.3314429 107.5456541
  13.1696121  56.7785469 108.2337446  14.0357426  56.7272562 106.9931541
  21.4265697  59.7886052 105.9273314  21.8926149  60.6214044 105.8533616
  21.8773197  59.3231034 106.6318572  11.3687532  67.7911924 114.6411559
  12.0696991  68.4248407 114.7940953  10.8982647  68.1326655 113.8807198
  19.4941928  66.1329874 102.9259466  19.7701772  66.0186468 103.8353340
  18.6246426  65.7347359 102.8871639  19.3982359  52.1566639 109.9664215
  18.4845439  52.3870866 110.1346422  19.8275461  52.2405083 110.8178247
  19.1688818  60.3456531 112.4664109  18.5160268  60.5932439 111.8116562
  19.5469198  59.5320670 112.1326586  16.1295992  70.3816225 106.5692279
  16.3118386  69.5637880 107.0320032  16.9528978  70.5983917 106.1317169
  16.4638157  69.3084410 103.8307328  16.9925924  68.7976864 103.2177490
  16.7266377  68.9926940 104.6952861  15.2176391  61.0876342 118.9530146
  14.5417028  60.9870472 119.6232521  16.0404025  60.9315556 119.4166143
   6.9655250  67.3248279 111.5742661   7.5508687  66.5791967 111.7070566
   6.7680088  67.6352236 112.4579325   9.8193905  70.3599526 106.5905104
   9.1504280  70.8445654 106.1069144   9.6806775  70.6068747 107.5048482
   1.5572905  59.8953879 110.2947105   1.5957004  59.3617470 111.0884223
   1.0513197  59.3689085 109.6758082  13.9599174  72.3943270 113.1887762
  14.5117482  72.5574891 113.9536847  14.3005367  72.9847708 112.5167787
   8.9363667  54.7418420 113.7909647   9.0004993  55.6033251 113.3787045
   8.8730787  54.1292421 113.0582005   8.4115939  56.8141552 117.4382681
   9.0387978  56.4318630 118.0520205   7.5543858  56.5955754 117.8038374
  18.8110048  67.2204527 119.0436417  19.3549952  67.8334486 118.5491371
  18.2296893  67.7784106 119.5603430   5.1881482  58.6217981 103.3701036
   5.4834923  57.7128660 103.3168090   4.2869518  58.6005721 103.0482038
  17.0967561  70.3425245 110.1751444  16.9718700  69.5414985 109.6662390
  17.7546652  70.8371439 109.6865414   8.7175729  56.6973978 109.3528585
   7.9962315  57.3109946 109.2136058   9.5068985  57.2331743 109.2745230
  19.1602469  68.1434265 111.8030994  18.2132805  68.0239617 111.7309321
  19.5085242  67.2556764 111.8857256  11.5202043  54.0328404 115.6269236
  12.0436444  54.2790701 116.3895546  11.3014376  54.8648439 115.2072374
   6.9169324  56.3032079 103.4940361   6.5882030  55.4229458 103.3115467
   7.2708694  56.2479748 104.3816750  16.1648903  67.9386982 108.0035347
  16.0173865  67.0103689 108.1842917  16.9902396  67.9607072 107.5192422
  10.0311147  56.5905049 103.8615839  10.3707219  57.1190970 103.1394447
  10.4783267  56.9285455 104.6374405  19.7683024  68.7615540 109.0900219
  20.6929572  68.5558402 108.9524670  19.5998328  68.5131942 109.9989561
  12.7254588  54.9742100 113.3118907  12.3851408  54.1749913 113.7139587
  12.0193594  55.2743810 112.7395740  13.3771060  52.0591412 111.7646230
  14.1997129  51.5851890 111.6425120  13.6209123  52.8381896 112.2644916
  12.0179294  55.0879670 102.0609131  12.7387657  55.4660923 101.5572848
  11.3944598  55.8068547 102.1644109  16.1610417  55.7924819 102.9967464
  16.3774031  56.6749457 102.6956292  15.6804484  55.4011033 102.2673106
  10.9009638  58.7510533 109.5738208  10.7554219  59.0650836 110.4662490
  10.4234842  59.3695433 109.0209107  12.7606021  55.7413081 109.6219098
  12.7467590  54.8454174 109.2851396  13.4778449  55.7483744 110.2557384
  14.6132152  56.1750421 111.6672225  14.3549930  57.0967491 111.6656556
  14.0817192  55.7780855 112.3572690  19.5578341  69.2801208 104.4462311
  19.7315218  68.7147630 103.6936163  20.0507232  70.0802103 104.2641801
   5.3755300  61.2915877 112.5125870   4.8308769  62.0675685 112.6446144
   6.2534650  61.6386681 112.3544991  12.1642917  54.6227461 104.8906668
  12.2858828  53.6944107 105.0897556  11.8744959  54.6366147 103.9784984
  15.0334108  52.3082371 108.0273388  15.0555804  52.3721704 107.0725368
  15.4502167  51.4686880 108.2213894  25.4117732  62.0437631 106.0652611
  25.8548878  61.2944956 105.6671734  24.5344242  62.0347767 105.6826343
  20.5453513  68.5967972 101.5459209  21.2404418  69.2174665 101.7646524
  20.8876663  67.7463324 101.8211587   6.1621322  60.4185773 115.4056026
   5.4203058  60.5668409 115.9920657   5.8414067  60.6794039 114.5422776
  22.4444936  66.0467678 103.0746540  22.9696260  66.3854951 102.3495860
  22.3567289  65.1114693 102.8909674  14.1064985  69.9601751 115.2036416
  14.4152111  69.7150898 116.0759116  14.9040467  70.1648390 114.7155287
  14.1285597  72.1139661 107.4341793  13.6890587  71.6216040 108.1274650
  14.8793714  71.5712629 107.1933868   6.6077936  68.3051202 107.4366421
   7.4335956  68.0054974 107.0565065   6.2571988  67.5358824 107.8856210
  11.5759469  67.6577670 109.5064095  10.9539478  66.9948375 109.2066323
  12.2464336  67.6838802 108.8237742   4.8086541  66.2237528 108.3955355
   3.9718449  65.7959703 108.2139356   4.7810186  66.4169972 109.3326146
  11.6483997  56.1359458 119.0996601  11.6972152  57.0121581 118.7174370
  12.1906511  55.5936851 118.5268244  22.1338842  66.6800581 118.3797738
  21.3434386  66.6624720 117.8402237  21.8972197  67.2188875 119.1346774
  22.2536717  63.5293048 115.6930466  22.3034722  63.3643055 116.6345989
  22.1450641  62.6620307 115.3028347  11.1372976  66.2081594 102.9822555
  11.2861096  66.8917058 102.3289228  11.9439420  66.1886684 103.4972011
  19.5440480  59.5123976 117.0089773  20.4450343  59.3730441 116.7173771
  19.6188454  59.6778431 117.9487950  13.8783285  56.8890831 115.8542959
  13.0086595  57.1824397 115.5825548  14.1142765  57.4731276 116.5750223
  23.7554914  65.9489989 115.9372488  23.4639723  66.3119970 116.7735949
  23.1427046  65.2356998 115.7585820  24.9550597  63.5142869 108.4575058
  25.7897488  63.9532673 108.6212618  25.0909725  63.0381522 107.6383304
  22.0042102  61.0722604 114.4052546  22.4796224  61.2650250 113.5971397
  21.0807668  61.1281790 114.1595930   8.8925609  62.2346771 103.9883624
   8.6471651  61.3309101 104.1863834   9.0621524  62.2363922 103.0463102
  16.5822319  53.1070448 113.3708380  17.1004263  53.8431474 113.0454868
  16.2277452  53.4134441 114.2055139   8.1621257  57.9675129 101.4869786
   7.4690502  58.0419484 100.8309822   7.9173009  57.2035472 102.0091303
  16.8334913  49.5270730 108.8909276  17.1136667  48.8593919 109.5169703
  17.6185520  49.7199826 108.3783940  14.6368382  68.7029724 100.4534303
  14.0642349  69.3219911 100.0004775  15.2101175  69.2529086 100.9874225
  20.7043771  57.9488364 112.6380851  21.6561194  58.0486462 112.6593076
  20.5347222  57.1566633 113.1478936  18.7258151  55.0343947 112.8240252
  18.1308083  55.3148960 112.1286741  18.4407848  55.5237848 113.5956993
  17.8565641  68.9866874 101.5842885  18.7896315  68.9212436 101.7875760
  17.7688854  69.8223141 101.1257418  20.4853658  68.3032744  98.5446833
  20.4067290  67.9692608  99.4382590  21.3063325  68.7954512  98.5438305
  23.1831849  61.1694484 111.7523151  23.1508169  60.2310484 111.9382835
  23.7932473  61.2478520 111.0188976  15.0215180  60.0390537  97.7950355
  15.9674285  59.9096745  97.8638773  14.6429425  59.3005199  98.2719783
  23.3326338  57.9605527 111.7981434  22.8165386  57.1763984 111.6111363
  24.2166286  57.6324244 111.9627954  20.9937065  51.7046543 107.7577247
  20.7961886  51.3961631 108.6420579  21.6036770  52.4308182 107.8875177
  29.0008399  62.2310491 110.8929188  29.7311788  61.9695779 111.4536891
  28.3915345  61.4939213 110.9331256  27.0823696  60.3718353 111.4903639
  26.3556860  60.2374318 110.8820131  26.6670983  60.6795182 112.2960357
  14.9053873  64.0908283 119.2551012  15.8256882  64.2686882 119.4491059
  14.8703456  63.1464328 119.1030711  13.2058097  57.9640513  97.7305240
  12.2989553  57.6673626  97.8067954  13.4834078  57.6670331  96.8639527
   4.1236038  59.2846877 108.1804287   3.8038822  58.4312185 107.8878661
   3.5769466  59.4995455 108.9362254   7.9015945  62.0009318 111.8973793
   8.1201955  62.9326425 111.9161827   8.3141719  61.6417292 112.6828597
  14.8220163  52.5077403 103.8849482  14.0120891  52.1624488 104.2604728
  15.5104580  52.1984947 104.4737093  16.7510711  51.5855450 105.5073778
  17.3041750  52.0050903 106.1663801  16.9880798  50.6591198 105.5496734
  12.7743811  57.5742523 121.2876542  12.6740537  58.5236880 121.2188633
  12.5565353  57.2460762 120.4152612  11.9756882  54.8227448  97.8717220
  12.8376046  55.1482347  98.1313037  12.1607226  54.0358944  97.3590285
   3.9924298  62.9049788 110.1497408   3.2987769  62.4903741 109.6367363
   4.7397289  62.9470325 109.5530827  20.1289518  53.6955975 105.0152443
  19.5488187  54.3540779 104.6330495  19.8625451  52.8733319 104.6039860
  18.5793085  53.0961032 107.2173763  19.0792863  53.2077567 106.4088082
  19.2228693  52.7922085 107.8574571  12.6375081  61.0039662 120.1041604
  12.1542162  61.8040022 120.3105493  12.7236020  61.0147607 119.1509048
   5.9061040  62.8368042 108.0263423   5.8831728  62.9355729 107.0745306
   6.2161677  63.6833193 108.3480589   8.5648418  64.8944197 112.1410038
   9.5191672  64.8628139 112.0739969   8.3660942  64.4334821 112.9560264
   9.1547800  63.4645313 114.7080835   9.9740689  63.9589392 114.7315673
   9.4284608  62.5477281 114.6798403  18.9114396  55.8556065 104.0708791
  18.0240251  56.1405716 103.8528986  19.3268385  55.6949829 103.2236068
  22.2628933  55.8802586 107.7863130  23.0389323  56.3699039 108.0587747
  21.5377067  56.3060640 108.2435000  24.7001491  56.5930205 108.8437071
  25.2945982  56.3525941 108.1330379  24.7728075  55.8737336 109.4710607
   6.9198647  70.4363816 109.1580236   6.7853115  69.6764217 108.5918234
   6.5030709  71.1604716 108.6909024  18.0557610  65.6200740  98.1656811
  18.7593460  65.8250742  98.7814466  17.3320259  66.1877502  98.4305894
  18.8855420  61.3710601 104.2859081  18.8290622  61.8279153 103.4466713
  19.4383763  60.6101286 104.1081924  22.6960226  57.1600333 105.1109201
  22.4397160  56.7596969 105.9417408  22.0713094  57.8744127 104.9859340
  27.0072564  59.8996406 107.6180492  26.4472122  59.9689596 108.3912054
  26.4016067  59.7237391 106.8979988  10.0767773  71.3333133 109.3698678
   9.9600157  72.2778566 109.2677368   9.2560219  71.0306695 109.7584477
  19.9644307  66.0583269 100.2155271  20.7989911  65.6264468 100.0332746
  19.8028650  65.8865283 101.1432165  19.6190199  62.5615382 101.5811610
  19.5639003  62.3959654 100.6400054  18.9936255  63.2691415 101.7373800
   4.4082714  57.7983447 115.4073032   5.0541578  57.2882401 115.8960258
   4.1999866  58.5352128 115.9816458  16.9336107  64.8664294 120.9065173
  17.8027266  65.0404946 120.5451808  16.4542858  65.6858711 120.7840902
  12.9286325  52.0623491 101.1596929  12.9164995  53.0065331 101.3165199
  13.8209747  51.8793637 100.8656390  11.1022287  71.9861395 112.5854607
  12.0049534  72.0185005 112.9021102  10.8759657  71.0561846 112.6000942
  12.8575889  70.7392382 109.2464685  11.9071520  70.7394243 109.1329058
  13.1608375  69.9925116 108.7300720  16.7438444  48.6566268 105.4142865
  15.9770840  48.1024755 105.5599548  17.1549149  48.7288137 106.2757017
  28.5928582  76.5752920 110.3110448  29.2306992  76.4559668 109.6073788
  28.4749425  77.5233764 110.3698400  25.4018289  76.5280348 110.2471972
  25.0636800  76.4121413 109.3592507  26.2708057  76.1271513 110.2272978
  21.2605104  78.3815825 106.2368863  20.6969969  78.2905762 105.4685151
  21.1457499  77.5615729 106.7171356  25.8838072  77.6815200 116.2058178
  25.8726712  77.2867998 115.3338682  26.0458711  76.9481273 116.7991949
  18.8069536  79.8767016 109.0753084  19.5990828  79.5357841 108.6599383
  19.0466186  79.9861991 109.9955237  26.8404663  82.0486792 101.5483328
  26.1892643  82.6340873 101.1617342  27.6349026  82.5792987 101.6078366
  20.7660290  79.1375930 101.9470463  21.5391166  78.5904917 101.8083338
  21.1185689  80.0020179 102.1584924  22.6045333  80.4652312 115.1537362
  22.3135199  81.3697943 115.0384028  23.2402317  80.5068839 115.8681431
  23.5301540  77.8429160 111.7438721  24.1265112  77.6185183 111.0295684
  23.5876511  77.1013906 112.3464169  23.1026568  75.2968596  99.5788912
  23.3552089  74.7750117  98.8172375  22.1651127  75.1334741  99.6815596
  28.1469851  74.3004374 107.3863656  28.9332940  73.8823797 107.0354073
  28.4108555  75.2050466 107.5545304  28.3179928  79.7377224 102.0852312
  27.6825761  79.8111851 102.7973217  27.9877335  80.3270823 101.4071392
  33.5478278  74.2379607 108.2896634  34.2803450  73.6678824 108.5234464
  32.7917634  73.8501208 108.7303140  22.8222857  77.1996702 101.7813287
  22.7059115  76.5241605 102.4494372  22.9325117  76.7129076 100.9645440
  25.1654398  76.6606849 105.4859977  24.8012605  76.1337470 106.1972898
  26.0221514  76.2705318 105.3126462  31.0703698  67.9501181 112.7491243
  30.7387023  68.8196592 112.5252458  30.4749312  67.6337465 113.4285273
  24.8059885  71.6896748 100.4821325  24.9734287  72.5576985 100.8491796
  24.6157054  71.8524030  99.5582614  27.5635218  80.1513727 112.1487156
  27.2635941  81.0538766 112.0402963  27.2186277  79.8845911 113.0008308
  21.0147699  76.6027524 108.1823860  20.0898196  76.4703738 108.3901552
  21.2632113  77.3821743 108.6793802  30.9632362  72.6696267 109.8284593
  30.0549239  72.6011676 109.5343354  30.9119957  73.1468212 110.6566418
  24.7849106  74.1454406 101.4667992  24.6648731  74.5911457 102.3053472
  24.0901694  74.4939724 100.9081530  18.3756510  76.2460798 109.0167649
  18.5048892  76.4995277 109.9307061  17.6953962  76.8388506 108.6972304
  22.5455998  86.9158048 105.1158123  22.4680027  87.8665873 105.1946604
  21.9417641  86.5703920 105.7733050  25.0373227  74.0885913 117.7719490
  24.2606561  74.6479833 117.7622355  25.6763790  74.5742696 118.2934360
  32.8294008  70.8712706 111.6062467  32.1868388  71.1645239 110.9602261
  32.3248937  70.7565626 112.4115663  30.4834172  74.6175879 102.2948326
  31.3952028  74.8503266 102.1196024  29.9743819  75.2012923 101.7323405
  23.2919600  76.8971366 117.3337457  24.0334284  77.4356410 117.0572281
  22.5856585  77.5237655 117.4909009  28.7674939  79.0400507 115.9309619
  29.1758295  78.5982917 115.1864251  28.0452201  78.4653134 116.1843811
  25.1206009  73.9773114 113.3043176  25.9667205  74.4012527 113.4477825
  25.0604647  73.3206738 113.9981739  29.0903754  79.6001698 109.6861907
  28.4612616  79.7647412 108.9837975  28.7029416  80.0143307 110.4572872
  32.9692986  80.5356135 107.0406271  32.2844024  80.9155037 106.4903305
  33.0536835  81.1451462 107.7738219  28.2705455  71.6377482 114.9624349
  28.0266387  72.3919543 114.4258625  28.5465385  72.0162830 115.7971596
  30.2243918  78.1816094 113.6401615  30.4360813  78.8247854 112.9635996
  30.1773666  77.3478411 113.1723545  27.8270146  70.7933915 110.5438187
  26.9654626  71.0915169 110.8354924  27.8532581  71.0104314 109.6119220
  24.6431716  79.3376106 106.9511993  25.1070061  79.6163809 106.1616615
  24.3788514  78.4359550 106.7685083  21.5355797  78.8847587 109.8891756
  22.1057154  79.3134856 109.2509240  22.1263909  78.6030172 110.5875942
  23.5800602  75.4599258 103.7601558  24.2824645  75.9120302 104.2275484
  23.2481230  74.8183077 104.3881451  22.0280963  74.0511015 118.1352767
  21.3979624  74.7327295 118.3688164  21.9217051  73.9394096 117.1905905
  17.3225936  73.7182811 109.0618691  16.5324990  73.9740339 108.5858802
  17.8137183  74.5331149 109.1670732  31.3389745  81.0588050 111.8123972
  32.1607189  80.6568237 111.5306654  31.3352148  80.9556284 112.7640088
  19.2740681  74.0827390 106.0202168  18.4771845  74.1946084 106.5385664
  19.0466273  74.4214042 105.1543059  25.1046349  80.6072093 113.9684683
  25.1690781  81.0692500 114.8042854  24.3957273  79.9769458 114.0966992
  15.6063639  73.9713301 111.4933682  15.8571677  74.8560311 111.7591258
  16.1423187  73.7917903 110.7208774  39.4295739  77.4026798 108.1608944
  38.6759447  76.8334196 108.0052948  39.5643280  77.3689463 109.1079578
  24.8194367  82.2740201 103.8363663  24.6840041  83.1191736 104.2648511
  25.3604179  82.4759478 103.0729597  21.3061706  68.3531780 120.4978018
  20.9128652  67.7997979 121.1725662  22.1227847  68.6642359 120.8884536
  18.2723764  79.7915639 104.4091588  18.7848285  80.5858889 104.5597153
  18.9246477  79.0941929 104.3425189  20.0818649  82.9081395 106.4914341
  20.2585277  83.8299360 106.3035325  20.8775482  82.5939814 106.9208721
  24.2229667  69.7689660 118.0898275  24.9639381  70.3696813 118.0102737
  24.4547590  69.0267297 117.5316317  19.3671005  74.9546027 116.3676504
  19.2524520  74.0531284 116.6683603  18.5115523  75.2009724 116.0161321
  26.4462843  82.8963767 117.9664005  26.0026697  82.1100146 117.6484910
  27.1080057  83.0842918 117.3007896  21.2049964  84.4259569 112.4924684
  21.7557389  84.2976632 111.7201677  20.3661440  84.7254458 112.1419576
  28.5444081  83.1766567 115.9945406  28.5262556  83.9975448 115.5025675
  29.4664001  83.0520642 116.2195547  25.0017135  80.6910697 116.8368915
  25.5345472  79.9298985 116.6068223  24.4731216  80.3984348 117.5793069
  28.1686830  65.7970762 112.3662556  27.8251100  66.6872404 112.2901667
  28.5365793  65.6072420 111.5032141  16.2372681  78.1204293 105.1851159
  17.0747903  78.5301301 104.9684866  16.4150948  77.1803735 105.1551352
  28.1337113  75.7879374 100.8734992  27.6183736  76.5583978 101.1123379
  27.8614421  75.1144510 101.4968053  25.7184224  70.6329074 105.9320230
  24.8625820  70.2435925 105.7525869  26.1311176  70.7121035 105.0720015
  27.2483371  68.1675418 110.3311790  26.7448166  68.1305553 109.5179595
  27.5413977  69.0768160 110.3908446  23.4926256  68.2514147 109.3377971
  24.3579253  68.0556956 108.9783861  23.5603765  68.0224499 110.2647328
  33.1071387  78.5411728 102.8088165  32.3300830  78.2022888 102.3643327
  33.7862868  78.5464351 102.1343130  27.9223416  73.6606466 102.6994773
  27.6173552  73.9752615 103.5504916  28.8753858  73.7387886 102.7422106
  26.3669848  79.8196689 104.3487727  25.8391209  79.0849449 104.0360964
  25.8657351  80.5971365 104.1027695  31.3462694  78.0145709 109.4654773
  30.6886368  78.7044971 109.5534902  32.1503093  78.4042141 109.8088759
  21.0988575  70.4816355 106.7094338  21.6732327  70.2591537 105.9767531
  21.6859558  70.5505050 107.4622940  30.1568153  76.3690082 107.5158715
  30.6700034  77.0020074 108.0180424  30.8069377  75.7691278 107.1502075
  21.4258163  72.5120816 100.7290223  20.5895475  72.8495503 101.0499498
  21.2862932  72.3769796  99.7917360  23.4011243  67.3557604 105.4369408
  22.7475656  67.0406621 104.8126022  23.3591717  66.7333345 106.1629231
  24.5122448  77.6376899  97.3522700  23.6049510  77.4066153  97.5513849
  25.0093480  76.8414519  97.5396681  27.4190527  86.3474406 100.2719386
  26.7452226  86.6506103 100.8804344  27.8056349  87.1503487  99.9224843
  26.6348984  73.8439538 109.7617055  25.7171545  74.0654485 109.6038743
  27.0509127  73.9185848 108.9028763  27.4184031  75.2430953 104.8919736
  28.1655850  75.7552351 104.5826858  27.6875621  74.9215006 105.7524129
  25.6910681  77.7389494 101.8746690  24.7821901  77.4548527 101.9719160
  25.7205765  78.1588573 101.0149997  30.9229949  81.3496084 105.6437857
  30.4692276  80.5086994 105.7003048  30.2923916  81.9857482 105.9812638
  29.8662868  72.2788070 106.8738525  29.1285625  71.7665456 107.2048767
  30.1189642  71.8388451 106.0621802  29.3662888  83.1872580 106.5787676
  29.6585863  83.7477637 105.8600041  29.8761509  83.4801141 107.3340835
  29.9674496  65.0564322 107.4680294  30.2733373  64.1961685 107.1806209
  30.6927101  65.6481942 107.2679288  16.2598852  75.4595008 105.8561892
  16.0623252  74.8664369 105.1312959  15.7045516  75.1547218 106.5737831
  24.2395576  75.3518115 107.9756485  24.2944185  74.3991951 107.8998962
  23.4286778  75.5077554 108.4597784  25.3886769  79.2798238  99.2134768
  24.9506199  78.5634097  98.7540406  26.1297210  79.5074353  98.6519860
  22.1787935  73.9695174 105.7346864  21.3655801  74.2689345 106.1412056
  22.6746930  73.5750863 106.4521346  24.3296513  83.9652931 107.6681129
  24.2872692  84.1913778 106.7389661  25.2459212  83.7316306 107.8166930
  27.7762147  74.4336999 114.5661758  28.1311535  74.6608472 115.4256224
  28.4234278  74.7655376 113.9439013  33.5059884  77.5555435 105.2711087
  33.3677783  77.7457031 104.3432276  33.1496103  78.3174818 105.7279138
  21.6702010  71.5413530 111.3508099  22.3101390  71.4002289 110.6531062
  20.8379541  71.2548043 110.9746701  33.5329264  79.6231962 110.2822358
  33.9665770  79.5307251 111.1305412  34.2460844  79.5989462 109.6442374
  22.4462314  80.8415960 107.4643091  23.2402913  80.3466281 107.2625666
  21.7354006  80.3133824 107.1010797  27.2657159  83.2234056 111.8155459
  27.3194181  83.7924992 112.5833175  26.3971940  83.3935941 111.4509496
  18.7545078  74.9859042 103.5402844  17.8242666  74.9243498 103.7572806
  18.8502550  74.4634995 102.7439485  18.6730627  71.5113855 106.1281086
  18.9337444  72.4259188 106.0190246  19.4947799  71.0438298 106.2777699
  20.1455552  72.9251612 113.2979910  20.8178605  72.7168974 112.6492559
  19.3185338  72.7273698 112.8585143  34.3944813  79.6655663 112.8155244
  34.5880703  80.5701473 113.0614519  34.2945431  79.2063082 113.6493829
  26.0481124  69.5513553 115.3145571  25.4009039  70.2503503 115.2210048
  26.8182139  69.9849697 115.6821819  29.4559922  79.8162405 118.3896124
  29.3045428  79.5872957 117.4726208  29.4464601  80.7733007 118.4027469
  26.2245258  77.3894318 113.3742391  27.1537318  77.5405478 113.2011358
  25.8036288  77.4778339 112.5191037  25.0233590  81.4144982 111.1440929
  24.8844676  81.0463767 112.0166867  24.2348186  81.9292622 110.9724886
  25.6181742  86.5154079 102.4866465  25.7933498  86.0442122 103.3012088
  24.9314530  87.1419845 102.7147726  26.5738805  80.7926585 108.5329766
  26.2388638  80.7527355 109.4287416  26.0742751  80.1271301 108.0600177
  20.5483049  76.1994215 114.0582347  20.4102847  75.4674454 114.6593887
  21.4587973  76.1103115 113.7766535  29.5097997  78.1382619  98.8066826
  28.8927168  77.4129448  98.7099879  29.0414485  78.8991980  98.4633900
  23.1765350  75.9114174 113.5466027  23.8864968  75.2707367 113.5052646
  23.1334658  76.1627069 114.4692208  31.1652129  82.8481528 116.4672606
  31.1064675  82.1640748 115.8003189  31.5671647  83.5900518 116.0153232
  21.8894284  72.8979392 115.3661667  21.3531641  72.4470131 116.0183263
  21.3010992  73.0325301 114.6232131  20.1842827  89.6643442 109.2606325
  20.4239426  90.2961966 109.9385344  19.3412024  89.3131482 109.5471684
  21.2996543  72.3568044  97.9288130  20.4226009  72.2356845  97.5650377
  21.7754296  71.5654122  97.6767019  31.1669536  80.8121112 114.6986586
  30.2796315  80.4747034 114.8212985  31.7368087  80.0804143 114.9355351
  12.8198683  77.1445203 108.0229637  13.5069723  76.8306934 107.4350653
  12.6646812  78.0486568 107.7496889  17.6233405  72.0335400 112.4514661
  17.5391594  71.4261070 111.7165071  16.8016111  72.5244418 112.4524157
  24.6970689  85.4722564 111.6647829  24.6240861  86.2777536 112.1767134
  24.2548082  85.6714530 110.8395851  24.4860469  84.7094334 105.1750651
  23.7027991  85.2516014 105.2688875  25.1853214  85.2268314 105.5744892
  27.7957119  70.5188964 107.8184856  28.2925818  69.7658926 107.4985926
  27.0244100  70.5553280 107.2528065  35.6486876  76.2229329 109.4603148
  35.6376753  77.1054045 109.0897081  34.7804256  75.8700880 109.2657685
  27.1569373  85.3709398 113.8205988  27.8697345  86.0056863 113.7481889
  26.6659401  85.4673264 113.0045990  28.8786900  79.2760651 105.3923280
  27.9443178  79.3962113 105.2227984  29.0563568  78.3733118 105.1283289
  24.3792088  72.6606347 107.5456541  24.0089875  72.1077387 108.2337446
  24.8751180  72.0564480 106.9931541  32.2659451  75.1177970 105.9273314
  32.7319903  75.9505962 105.8533616  32.7166952  74.6522952 106.6318572
  22.2081286  83.1203842 114.6411559  22.9090746  83.7540325 114.7940953
  21.7376401  83.4618573 113.8807198  30.3335682  81.4621791 102.9259466
  30.6095526  81.3478386 103.8353340  29.4640181  81.0639276 102.8871639
  30.2376114  67.4858557 109.9664215  29.3239194  67.7162784 110.1346422
  30.6669215  67.5697001 110.8178247  30.0082572  75.6748449 112.4664109
  29.3554022  75.9224356 111.8116562  30.3862952  74.8612587 112.1326586
  26.9689746  85.7108142 106.5692279  27.1512141  84.8929798 107.0320032
  27.7922732  85.9275834 106.1317169  27.3031912  84.6376327 103.8307328
  27.8319678  84.1268782 103.2177490  27.5660131  84.3218858 104.6952861
  26.0570145  76.4168260 118.9530146  25.3810782  76.3162389 119.6232521
  26.8797779  76.2607474 119.4166143  17.8049004  82.6540197 111.5742661
  18.3902441  81.9083885 111.7070566  17.6073843  82.9644153 112.4579325
  20.6587660  85.6891444 106.5905104  19.9898035  86.1737572 106.1069144
  20.5200529  85.9360664 107.5048482  12.3966659  75.2245797 110.2947105
  12.4350759  74.6909388 111.0884223  11.8906952  74.6981002 109.6758082
  24.7992928  87.7235188 113.1887762  25.3511236  87.8866809 113.9536847
  25.1399122  88.3139625 112.5167787  19.7757421  70.0710337 113.7909647
  19.8398748  70.9325168 113.3787045  19.7124542  69.4584339 113.0582005
  19.2509694  72.1433470 117.4382681  19.8781733  71.7610547 118.0520205
  18.3937613  71.9247672 117.8038374  29.6503802  82.5496445 119.0436417
  30.1943706  83.1626403 118.5491371  29.0690647  83.1076023 119.5603430
  16.0275237  73.9509899 103.3701036  16.3228678  73.0420577 103.3168090
  15.1263272  73.9297638 103.0482038  27.9361315  85.6717163 110.1751444
  27.8112455  84.8706903 109.6662390  28.5940407  86.1663356 109.6865414
  19.5569484  72.0265896 109.3528585  18.8356069  72.6401863 109.2136058
  20.3462739  72.5623660 109.2745230  29.9996224  83.4726183 111.8030994
  29.0526559  83.3531534 111.7309321  30.3478997  82.5848681 111.8857256
  22.3595797  69.3620322 115.6269236  22.8830199  69.6082619 116.3895546
  22.1408130  70.1940357 115.2072374  17.7563078  71.6323997 103.4940361
  17.4275784  70.7521376 103.3115467  18.1102449  71.5771665 104.3816750
  27.0042657  83.2678899 108.0035347  26.8567620  82.3395607 108.1842917
  27.8296151  83.2898990 107.5192422  20.8704901  71.9196966 103.8615839
  21.2100974  72.4482888 103.1394447  21.3177022  72.2577373 104.6374405
  30.6076779  84.0907458 109.0900219  31.5323326  83.8850319 108.9524670
  30.4392082  83.8423859 109.9989561  23.5648342  70.3034017 113.3118907
  23.2245163  69.5041830 113.7139587  22.8587348  70.6035728 112.7395740
  24.2164814  67.3883330 111.7646230  25.0390883  66.9143808 111.6425120
  24.4602878  68.1673813 112.2644916  22.8573049  70.4171588 102.0609131
  23.5781411  70.7952841 101.5572848  22.2338353  71.1360465 102.1644109
  27.0004171  71.1216737 102.9967464  27.2167786  72.0041375 102.6956292
  26.5198239  70.7302950 102.2673106  21.7403393  74.0802450 109.5738208
  21.5947974  74.3942753 110.4662490  21.2628596  74.6987351 109.0209107
  23.5999776  71.0704998 109.6219098  23.5861344  70.1746092 109.2851396
  24.3172204  71.0775662 110.2557384  25.4525906  71.5042338 111.6672225
  25.1943684  72.4259409 111.6656556  24.9210947  71.1072773 112.3572690
  30.3972095  84.6093126 104.4462311  30.5708973  84.0439548 103.6936163
  30.8900986  85.4094020 104.2641801  16.2149055  76.6207795 112.5125870
  15.6702523  77.3967603 112.6446144  17.0928405  76.9678599 112.3544991
  23.0036672  69.9519379 104.8906668  23.1252583  69.0236025 105.0897556
  22.7138714  69.9658064 103.9784984  25.8727862  67.6374289 108.0273388
  25.8949559  67.7013622 107.0725368  26.2895921  66.7978798 108.2213894
  36.2511486  77.3729548 106.0652611  36.6942632  76.6236874 105.6671734
  35.3737997  77.3639685 105.6826343  31.3847268  83.9259890 101.5459209
  32.0798172  84.5466583 101.7646524  31.7270418  83.0755241 101.8211587
  17.0015077  75.7477691 115.4056026  16.2596813  75.8960326 115.9920657
  16.6807821  76.0085957 114.5422776  33.2838691  81.3759595 103.0746540
  33.8090015  81.7146868 102.3495860  33.1961043  80.4406611 102.8909674
  24.9458739  85.2893669 115.2036416  25.2545866  85.0442816 116.0759116
  25.7434221  85.4940308 114.7155287  24.9679352  87.4431579 107.4341793
  24.5284342  86.9507957 108.1274650  25.7187468  86.9004546 107.1933868
  17.4471690  83.6343120 107.4366421  18.2729710  83.3346891 107.0565065
  17.0965742  82.8650742 107.8856210  22.4153224  82.9869588 109.5064095
  21.7933233  82.3240293 109.2066323  23.0858091  83.0130720 108.8237742
  15.6480296  81.5529446 108.3955355  14.8112204  81.1251620 108.2139356
  15.6203941  81.7461889 109.3326146  22.4877751  71.4651376 119.0996601
  22.5365907  72.3413499 118.7174370  23.0300265  70.9228769 118.5268244
  32.9732597  82.0092499 118.3797738  32.1828141  81.9916638 117.8402237
  32.7365951  82.5480793 119.1346774  33.0930472  78.8584965 115.6930466
  33.1428477  78.6934973 116.6345989  32.9844395  77.9912225 115.3028347
  21.9766731  81.5373511 102.9822555  22.1254851  82.2208976 102.3289228
  22.7833174  81.5178601 103.4972011  30.3834234  74.8415894 117.0089773
  31.2844097  74.7022358 116.7173771  30.4582209  75.0070348 117.9487950
  24.7177040  72.2182748 115.8542959  23.8480349  72.5116314 115.5825548
  24.9536520  72.8023193 116.5750223  34.5948669  81.2781907 115.9372488
  34.3033477  81.6411888 116.7735949  33.9820800  80.5648915 115.7585820
  35.7944351  78.8434787 108.4575058  36.6291242  79.2824591 108.6212618
  35.9303480  78.3673440 107.6383304  32.8435857  76.4014522 114.4052546
  33.3189979  76.5942168 113.5971397  31.9201422  76.4573707 114.1595930
  19.7319364  77.5638689 103.9883624  19.4865405  76.6601019 104.1863834
  19.9015278  77.5655839 103.0463102  27.4216073  68.4362365 113.3708380
  27.9398017  69.1723392 113.0454868  27.0671206  68.7426358 114.2055139
  19.0015011  73.2967046 101.4869786  18.3084256  73.3711401 100.8309822
  18.7566763  72.5327390 102.0091303  27.6728668  64.8562648 108.8909276
  27.9530421  64.1885837 109.5169703  28.4579275  65.0491743 108.3783940
  25.4762136  84.0321642 100.4534303  24.9036103  84.6511829 100.0004775
  26.0494930  84.5821003 100.9874225  31.5437526  73.2780282 112.6380851
  32.4954949  73.3778379 112.6593076  31.3740976  72.4858550 113.1478936
  29.5651905  70.3635865 112.8240252  28.9701838  70.6440878 112.1286741
  29.2801602  70.8529766 113.5956993  28.6959396  84.3158792 101.5842885
  29.6290069  84.2504353 101.7875760  28.6082609  85.1515059 101.1257418
  31.3247413  83.6324662  98.5446833  31.2461044  83.2984526  99.4382590
  32.1457079  84.1246430  98.5438305  34.0225604  76.4986401 111.7523151
  33.9901924  75.5602402 111.9382835  34.6326227  76.5770438 111.0188976
  25.8608935  75.3682454  97.7950355  26.8068039  75.2388662  97.8638773
  25.4823180  74.6297116  98.2719783  34.1720092  73.2897445 111.7981434
  33.6559141  72.5055901 111.6111363  35.0560041  72.9616161 111.9627954
  31.8330819  67.0338460 107.7577247  31.6355640  66.7253549 108.6420579
  32.4430525  67.7600099 107.8875177  39.8402154  77.5602408 110.8929188
  40.5705542  77.2987696 111.4536891  39.2309099  76.8231130 110.9331256
  37.9217451  75.7010271 111.4903639  37.1950614  75.5666236 110.8820131
  37.5064738  76.0087099 112.2960357  25.7447627  79.4200201 119.2551012
  26.6650637  79.5978800 119.4491059  25.7097210  78.4756246 119.1030711
  24.0451852  73.2932431  97.7305240  23.1383307  72.9965543  97.8067954
  24.3227833  72.9962249  96.8639527  14.9629792  74.6138794 108.1804287
  14.6432576  73.7604102 107.8878661  14.4163220  74.8287372 108.9362254
  18.7409700  77.3301235 111.8973793  18.9595709  78.2618343 111.9161827
  19.1535474  76.9709210 112.6828597  25.6613917  67.8369320 103.8849482
  24.8514646  67.4916405 104.2604728  26.3498334  67.5276864 104.4737093
  27.5904466  66.9147367 105.5073778  28.1435504  67.3342821 106.1663801
  27.8274552  65.9883115 105.5496734  23.6137565  72.9034441 121.2876542
  23.5134292  73.8528798 121.2188633  23.3959107  72.5752680 120.4152612
  22.8150636  70.1519366  97.8717220  23.6769800  70.4774264  98.1313037
  23.0000981  69.3650862  97.3590285  14.8318052  78.2341706 110.1497408
  14.1381524  77.8195658 109.6367363  15.5791043  78.2762242 109.5530827
  30.9683273  69.0247892 105.0152443  30.3881942  69.6832696 104.6330495
  30.7019206  68.2025237 104.6039860  29.4186839  68.4252950 107.2173763
  29.9186618  68.5369485 106.4088082  30.0622447  68.1214003 107.8574571
  23.4768835  76.3331580 120.1041604  22.9935917  77.1331940 120.3105493
  23.5629774  76.3439525 119.1509048  16.7454795  78.1659959 108.0263423
  16.7225483  78.2647647 107.0745306  17.0555431  79.0125110 108.3480589
  19.4042173  80.2236114 112.1410038  20.3585426  80.1920057 112.0739969
  19.2054696  79.7626738 112.9560264  19.9941555  78.7937231 114.7080835
  20.8134444  79.2881309 114.7315673  20.2678362  77.8769199 114.6798403
  29.7508151  71.1847983 104.0708791  28.8634006  71.4697633 103.8528986
  30.1662140  71.0241746 103.2236068  33.1022687  71.2094504 107.7863130
  33.8783077  71.6990956 108.0587747  32.3770821  71.6352558 108.2435000
  35.5395246  71.9222123 108.8437071  36.1339736  71.6817859 108.1330379
  35.6121829  71.2029254 109.4710607  17.7592401  85.7655734 109.1580236
  17.6246869  85.0056135 108.5918234  17.3424464  86.4896634 108.6909024
  28.8951364  80.9492658  98.1656811  29.5987214  81.1542660  98.7814466
  28.1714013  81.5169419  98.4305894  29.7249175  76.7002519 104.2859081
  29.6684376  77.1571070 103.4466713  30.2777517  75.9393203 104.1081924
  33.5353981  72.4892251 105.1109201  33.2790915  72.0888886 105.9417408
  32.9106849  73.2036045 104.9859340  37.8466318  75.2288324 107.6180492
  37.2865876  75.2981513 108.3912054  37.2409822  75.0529309 106.8979988
  20.9161527  86.6625051 109.3698678  20.7993911  87.6070483 109.2677368
  20.0953973  86.3598613 109.7584477  30.8038062  81.3875187 100.2155271
  31.6383666  80.9556385 100.0332746  30.6422405  81.2157200 101.1432165
  30.4583954  77.8907300 101.5811610  30.4032758  77.7251571 100.6400054
  29.8330009  78.5983333 101.7373800  15.2476469  73.1275364 115.4073032
  15.8935333  72.6174318 115.8960258  15.0393620  73.8644046 115.9816458
  27.7729861  80.1956212 120.9065173  28.6421021  80.3696864 120.5451808
  27.2936613  81.0150629 120.7840902  23.7680079  67.3915409 101.1596929
  23.7558749  68.3357249 101.3165199  24.6603501  67.2085554 100.8656390
  21.9416041  87.3153313 112.5854607  22.8443288  87.3476923 112.9021102
  21.7153411  86.3853764 112.6000942  23.6969643  86.0684299 109.2464685
  22.7465274  86.0686161 109.1329058  24.0002129  85.3217034 108.7300720
  27.5832199  63.9858186 105.4142865  26.8164595  63.4316672 105.5599548
  27.9942904  64.0580054 106.2757017  19.5873960  70.2742981 119.5048047
  20.4505421  69.9179786 119.7151371  19.0139371  69.9356876 120.1923451
  39.4322337  91.9044838 110.3110448  40.0700747  91.7851585 109.6073788
  39.3143180  92.8525682 110.3698400  36.2412043  91.8572266 110.2471972
  35.9030555  91.7413331 109.3592507  37.1101811  91.4563431 110.2272978
  32.0998859  93.7107742 106.2368863  31.5363724  93.6197679 105.4685151
  31.9851254  92.8907647 106.7171356  36.7231826  93.0107118 116.2058178
  36.7120467  92.6159916 115.3338682  36.8852466  92.2773190 116.7991949
  29.6463291  95.2058934 109.0753084  30.4384583  94.8649759 108.6599383
  29.8859941  95.3153909 109.9955237  37.6798418  97.3778710 101.5483328
  37.0286397  97.9632790 101.1617342  38.4742780  97.9084905 101.6078366
  31.6054045  94.4667847 101.9470463  32.3784921  93.9196834 101.8083338
  31.9579444  95.3312097 102.1584924  33.4439087  95.7944229 115.1537362
  33.1528953  96.6989860 115.0384028  34.0796072  95.8360757 115.8681431
  34.3695294  93.1721078 111.7438721  34.9658866  92.9477100 111.0295684
  34.4270266  92.4305823 112.3464169  33.9420323  90.6260513  99.5788912
  34.1945843  90.1042035  98.8172375  33.0044882  90.4626659  99.6815596
  38.9863605  89.6296292 107.3863656  39.7726695  89.2115715 107.0354073
  39.2502310  90.5342384 107.5545304  39.1573683  95.0669142 102.0852312
  38.5219516  95.1403769 102.7973217  38.8271089  95.6562741 101.4071392
  44.3872032  89.5671525 108.2896634  45.1197204  88.9970742 108.5234464
  43.6311388  89.1793125 108.7303140  33.6616611  92.5288619 101.7813287
  33.5452869  91.8533523 102.4494372  33.7718871  92.0420993 100.9645440
  36.0048152  91.9898766 105.4859977  35.6406359  91.4629387 106.1972898
  36.8615268  91.5997235 105.3126462  41.9097453  83.2793099 112.7491243
  41.5780778  84.1488510 112.5252458  41.3143066  82.9629383 113.4285273
  35.6453639  87.0188666 100.4821325  35.8128042  87.8868902 100.8491796
  35.4550808  87.1815948  99.5582614  38.4028972  95.4805645 112.1487156
  38.1029695  96.3830684 112.0402963  38.0580032  95.2137828 113.0008308
  31.8541454  91.9319442 108.1823860  30.9291950  91.7995656 108.3901552
  32.1025867  92.7113661 108.6793802  41.8026116  87.9988185 109.8284593
  40.8942993  87.9303594 109.5343354  41.7513712  88.4760130 110.6566418
  35.6242860  89.4746324 101.4667992  35.5042485  89.9203374 102.3053472
  34.9295448  89.8231641 100.9081530  29.2150265  91.5752715 109.0167649
  29.3442646  91.8287194 109.9307061  28.5347716  92.1680423 108.6972304
  33.3849752 102.2449965 105.1158123  33.3073782 103.1957790 105.1946604
  32.7811396 101.8995838 105.7733050  35.8766982  89.4177831 117.7719490
  35.1000316  89.9771751 117.7622355  36.5157545  89.9034614 118.2934360
  43.6687763  86.2004624 111.6062467  43.0262143  86.4937157 110.9602261
  43.1642691  86.0857544 112.4115663  41.3227926  89.9467797 102.2948326
  42.2345782  90.1795184 102.1196024  40.8137573  90.5304841 101.7323405
  34.1313354  92.2263284 117.3337457  34.8728039  92.7648328 117.0572281
  33.4250340  92.8529573 117.4909009  39.6068694  94.3692425 115.9309619
  40.0152050  93.9274835 115.1864251  38.8845955  93.7945052 116.1843811
  35.9599764  89.3065031 113.3043176  36.8060959  89.7304445 113.4477825
  35.8998402  88.6498656 113.9981739  39.9297508  94.9293615 109.6861907
  39.3006371  95.0939329 108.9837975  39.5423171  95.3435225 110.4572872
  43.8086740  95.8648053 107.0406271  43.1237779  96.2446954 106.4903305
  43.8930590  96.4743380 107.7738219  39.1099209  86.9669400 114.9624349
  38.8660141  87.7211460 114.4258625  39.3859140  87.3454747 115.7971596
  41.0637672  93.5108012 113.6401615  41.2754567  94.1539772 112.9635996
  41.0167420  92.6770329 113.1723545  38.6663901  86.1225833 110.5438187
  37.8048380  86.4207086 110.8354924  38.6926336  86.3396232 109.6119220
  35.4825470  94.6668023 106.9511993  35.9463816  94.9455726 106.1616615
  35.2182268  93.7651468 106.7685083  32.3749551  94.2139505 109.8891756
  32.9450909  94.6426773 109.2509240  32.9657663  93.9322090 110.5875942
  34.4194356  90.7891176 103.7601558  35.1218400  91.2412219 104.2275484
  34.0874985  90.1474995 104.3881451  32.8674718  89.3802932 118.1352767
  32.2373379  90.0619213 118.3688164  32.7610806  89.2686014 117.1905905
  28.1619690  89.0474728 109.0618691  27.3718744  89.3032257 108.5858802
  28.6530938  89.8623066 109.1670732  42.1783500  96.3879968 111.8123972
  43.0000944  95.9860155 111.5306654  42.1745903  96.2848202 112.7640088
  30.1134436  89.4119308 106.0202168  29.3165599  89.5238002 106.5385664
  29.8860028  89.7505960 105.1543059  35.9440103  95.9364011 113.9684683
  36.0084536  96.3984418 114.8042854  35.2351027  95.3061376 114.0966992
  26.4457393  89.3005219 111.4933682  26.6965432  90.1852229 111.7591258
  26.9816942  89.1209820 110.7208774  50.2689493  92.7318716 108.1608944
  49.5153201  92.1626114 108.0052948  50.4037034  92.6981380 109.1079578
  35.6588121  97.6032118 103.8363663  35.5233796  98.4483654 104.2648511
  36.1997934  97.8051396 103.0729597  32.1455461  83.6823698 120.4978018
  31.7522406  83.1289897 121.1725662  32.9621601  83.9934277 120.8884536
  29.1117518  95.1207556 104.4091588  29.6242039  95.9150807 104.5597153
  29.7640231  94.4233847 104.3425189  30.9212403  98.2373313 106.4914341
  31.0979031  99.1591277 106.3035325  31.7169237  97.9231732 106.9208721
  35.0623422  85.0981577 118.0898275  35.8033135  85.6988730 118.0102737
  35.2941345  84.3559215 117.5316317  30.2064760  90.2837944 116.3676504
  30.0918275  89.3823202 116.6683603  29.3509277  90.5301641 116.0161321
  37.2856597  98.2255685 117.9664005  36.8420452  97.4392063 117.6484910
  37.9473811  98.4134835 117.3007896  32.0443719  99.7551486 112.4924684
  32.5951144  99.6268550 111.7201677  31.2055195 100.0546375 112.1419576
  39.3837835  98.5058485 115.9945406  39.3656311  99.3267366 115.5025675
  40.3057756  98.3812560 116.2195547  35.8410890  96.0202614 116.8368915
  36.3739226  95.2590902 116.6068223  35.3124971  95.7276266 117.5793069
  39.0080585  81.1262680 112.3662556  38.6644854  82.0164322 112.2901667
  39.3759547  80.9364338 111.5032141  27.0766435  93.4496211 105.1851159
  27.9141657  93.8593219 104.9684866  27.2544703  92.5095653 105.1551352
  38.9730867  91.1171291 100.8734992  38.4577491  91.8875896 101.1123379
  38.7008176  90.4436427 101.4968053  36.5577978  85.9620992 105.9320230
  35.7019575  85.5727842 105.7525869  36.9704930  86.0412953 105.0720015
  38.0877125  83.4967335 110.3311790  37.5841921  83.4597470 109.5179595
  38.3807732  84.4060078 110.3908446  34.3320011  83.5806065 109.3377971
  35.1973008  83.3848874 108.9783861  34.3997520  83.3516417 110.2647328
  43.9465141  93.8703646 102.8088165  43.1694584  93.5314805 102.3643327
  44.6256622  93.8756269 102.1343130  38.7617171  88.9898383 102.6994773
  38.4567306  89.3044533 103.5504916  39.7147613  89.0679803 102.7422106
  37.2063602  95.1488607 104.3487727  36.6784964  94.4141366 104.0360964
  36.7051105  95.9263283 104.1027695  42.1856448  93.3437627 109.4654773
  41.5280123  94.0336889 109.5534902  42.9896848  93.7334059 109.8088759
  31.9382330  85.8108273 106.7094338  32.5126082  85.5883454 105.9767531
  32.5253312  85.8796967 107.4622940  40.9961907  91.6982000 107.5158715
  41.5093789  92.3311992 108.0180424  41.6463131  91.0983195 107.1502075
  32.2651917  87.8412734 100.7290223  31.4289229  88.1787421 101.0499498
  32.1256687  87.7061714  99.7917360  34.2404998  82.6849522 105.4369408
  33.5869410  82.3698539 104.8126022  34.1985472  82.0625262 106.1629231
  35.3516203  92.9668817  97.3522700  34.4443264  92.7358070  97.5513849
  35.8487235  92.1706436  97.5396681  38.2584281 101.6766324 100.2719386
  37.5845980 101.9798021 100.8804344  38.6450103 102.4795404  99.9224843
  37.4742738  89.1731455 109.7617055  36.5565299  89.3946402 109.6038743
  37.8902882  89.2477766 108.9028763  38.2577786  90.5722871 104.8919736
  39.0049605  91.0844268 104.5826858  38.5269375  90.2506924 105.7524129
  36.5304436  93.0681412 101.8746690  35.6215655  92.7840445 101.9719160
  36.5599520  93.4880490 101.0149997  41.7623703  96.6788001 105.6437857
  41.3086030  95.8378911 105.7003048  41.1317670  97.3149400 105.9812638
  40.7056623  87.6079987 106.8738525  39.9679380  87.0957374 107.2048767
  40.9583396  87.1680369 106.0621802  40.2056643  98.5164498 106.5787676
  40.4979617  99.0769555 105.8600041  40.7155263  98.8093059 107.3340835
  40.8068250  80.3856239 107.4680294  41.1127127  79.5253603 107.1806209
  41.5320855  80.9773860 107.2679288  27.0992606  90.7886926 105.8561892
  26.9017006  90.1956287 105.1312959  26.5439270  90.4839136 106.5737831
  35.0789330  90.6810032 107.9756485  35.1337940  89.7283869 107.8998962
  34.2680532  90.8369472 108.4597784  36.2280524  94.6090155  99.2134768
  35.7899954  93.8926014  98.7540406  36.9690965  94.8366270  98.6519860
  33.0181690  89.2987092 105.7346864  32.2049555  89.5981263 106.1412056
  33.5140684  88.9042781 106.4521346  35.1690268  99.2944849 107.6681129
  35.1266447  99.5205695 106.7389661  36.0852967  99.0608224 107.8166930
  38.6155902  89.7628917 114.5661758  38.9705289  89.9900390 115.4256224
  39.2628033  90.0947293 113.9439013  44.3453639  92.8847353 105.2711087
  44.2071537  93.0748948 104.3432276  43.9889857  93.6466735 105.7279138
  32.5095765  86.8705448 111.3508099  33.1495144  86.7294207 110.6531062
  31.6773295  86.5839961 110.9746701  44.3723018  94.9523880 110.2822358
  44.8059525  94.8599169 111.1305412  45.0854599  94.9281380 109.6442374
  33.2856069  96.1707878 107.4643091  34.0796667  95.6758198 107.2625666
  32.5747761  95.6425741 107.1010797  38.1050913  98.5525974 111.8155459
  38.1587935  99.1216910 112.5833175  37.2365694  98.7227859 111.4509496
  29.5938832  90.3150960 103.5402844  28.6636420  90.2535415 103.7572806
  29.6896304  89.7926913 102.7439485  29.5124381  86.8405773 106.1281086
  29.7731198  87.7551106 106.0190246  30.3341553  86.3730215 106.2777699
  30.9849306  88.2543530 113.2979910  31.6572360  88.0460892 112.6492559
  30.1579093  88.0565616 112.8585143  45.2338568  94.9947580 112.8155244
  45.4274458  95.8993391 113.0614519  45.1339186  94.5354999 113.6493829
  36.8874878  84.8805471 115.3145571  36.2402794  85.5795420 115.2210048
  37.6575894  85.3141615 115.6821819  40.2953676  95.1454323 118.3896124
  40.1439183  94.9164875 117.4726208  40.2858356  96.1024924 118.4027469
  37.0639013  92.7186236 113.3742391  37.9931073  92.8697395 113.2011358
  36.6430043  92.8070256 112.5191037  35.8627345  96.7436900 111.1440929
  35.7238430  96.3755684 112.0166867  35.0741941  97.2584540 110.9724886
  36.4575497 101.8445997 102.4866465  36.6327252 101.3734040 103.3012088
  35.7708285 102.4711763 102.7147726  37.4132560  96.1218503 108.5329766
  37.0782392  96.0819273 109.4287416  36.9136505  95.4563219 108.0600177
  31.3876804  91.5286133 114.0582347  31.2496602  90.7966372 114.6593887
  32.2981727  91.4395033 113.7766535  40.3491751  93.4674537  98.8066826
  39.7320922  92.7421365  98.7099879  39.8808240  94.2283897  98.4633900
  34.0159104  91.2406092 113.5466027  34.7258723  90.5999284 113.5052646
  33.9728413  91.4918987 114.4692208  42.0045883  98.1773445 116.4672606
  41.9458429  97.4932666 115.8003189  42.4065401  98.9192435 116.0153232
  32.7288038  88.2271310 115.3661667  32.1925395  87.7762048 116.0183263
  32.1404747  88.3617219 114.6232131  31.0236582 104.9935359 109.2606325
  31.2633180 105.6253883 109.9385344  30.1805778 104.6423399 109.5471684
  32.1390297  87.6859961  97.9288130  31.2619764  87.5648762  97.5650377
  32.6148050  86.8946040  97.6767019  42.0063290  96.1413029 114.6986586
  41.1190069  95.8038951 114.8212985  42.5761841  95.4096061 114.9355351
  23.6592437  92.4737121 108.0229637  24.3463477  92.1598851 107.4350653
  23.5040566  93.3778486 107.7496889  28.4627160  87.3627318 112.4514661
  28.3785348  86.7552987 111.7165071  27.6409866  87.8536336 112.4524157
  35.5364444 100.8014482 111.6647829  35.4634615 101.6069453 112.1767134
  35.0941837 101.0006448 110.8395851  35.3254223 100.0386252 105.1750651
  34.5421745 100.5807932 105.2688875  36.0246969 100.5560231 105.5744892
  38.6350873  85.8480881 107.8184856  39.1319573  85.0950844 107.4985926
  37.8637855  85.8845198 107.2528065  46.4880631  91.5521247 109.4603148
  46.4770507  92.4345962 109.0897081  45.6198010  91.1992798 109.2657685
  37.9963127 100.7001316 113.8205988  38.7091099 101.3348781 113.7481889
  37.5053156 100.7965182 113.0045990  39.7180654  94.6052568 105.3923280
  38.7836933  94.7254031 105.2227984  39.8957323  93.7025035 105.1283289
  35.2185842  87.9898264 107.5456541  34.8483630  87.4369305 108.2337446
  35.7144935  87.3856398 106.9931541  43.1053205  90.4469888 105.9273314
  43.5713658  91.2797879 105.8533616  43.5560706  89.9814869 106.6318572
  33.0475041  98.4495759 114.6411559  33.7484500  99.0832242 114.7940953
  32.5770156  98.7910491 113.8807198  41.1729437  96.7913709 102.9259466
  41.4489280  96.6770304 103.8353340  40.3033935  96.3931194 102.8871639
  41.0769868  82.8150475 109.9664215  40.1632948  83.0454702 110.1346422
  41.5062970  82.8988919 110.8178247  40.8476327  91.0040367 112.4664109
  40.1947777  91.2516274 111.8116562  41.2256707  90.1904505 112.1326586
  37.8083501 101.0400060 106.5692279  37.9905895 100.2221716 107.0320032
  38.6316487 101.2567752 106.1317169  38.1425666  99.9668245 103.8307328
  38.6713433  99.4560700 103.2177490  38.4053886  99.6510775 104.6952861
  36.8963900  91.7460178 118.9530146  36.2204537  91.6454307 119.6232521
  37.7191534  91.5899392 119.4166143  28.6442759  97.9832114 111.5742661
  29.2296196  97.2375802 111.7070566  28.4467597  98.2936071 112.4579325
  31.4981414 101.0183362 106.5905104  30.8291789 101.5029489 106.1069144
  31.3594284 101.2652582 107.5048482  23.2360414  90.5537715 110.2947105
  23.2744513  90.0201305 111.0884223  22.7300706  90.0272920 109.6758082
  35.6386683 103.0527105 113.1887762  36.1904991 103.2158727 113.9536847
  35.9792876 103.6431543 112.5167787  30.6151176  85.4002255 113.7909647
  30.6792502  86.2617086 113.3787045  30.5518296  84.7876257 113.0582005
  30.0903448  87.4725388 117.4382681  30.7175487  87.0902465 118.0520205
  29.2331367  87.2539589 117.8038374  40.4897557  97.8788363 119.0436417
  41.0337461  98.4918321 118.5491371  39.9084402  98.4367941 119.5603430
  26.8668991  89.2801817 103.3701036  27.1622432  88.3712495 103.3168090
  25.9657027  89.2589556 103.0482038  38.7755070 101.0009081 110.1751444
  38.6506209 100.1998821 109.6662390  39.4334161 101.4955274 109.6865414
  30.3963238  87.3557813 109.3528585  29.6749824  87.9693781 109.2136058
  31.1856494  87.8915578 109.2745230  40.8389978  98.8018101 111.8030994
  39.8920314  98.6823452 111.7309321  41.1872751  97.9140599 111.8857256
  33.1989552  84.6912240 115.6269236  33.7223953  84.9374536 116.3895546
  32.9801885  85.5232275 115.2072374  28.5956833  86.9615914 103.4940361
  28.2669539  86.0813293 103.3115467  28.9496203  86.9063583 104.3816750
  37.8436412  98.5970817 108.0035347  37.6961374  97.6687524 108.1842917
  38.6689905  98.6190908 107.5192422  31.7098656  87.2488884 103.8615839
  32.0494728  87.7774805 103.1394447  32.1570776  87.5869290 104.6374405
  41.4470533  99.4199376 109.0900219  42.3717081  99.2142237 108.9524670
  41.2785837  99.1715777 109.9989561  34.4042097  85.6325935 113.3118907
  34.0638917  84.8333748 113.7139587  33.6981103  85.9327646 112.7395740
  35.0558569  82.7175247 111.7646230  35.8784638  82.2435725 111.6425120
  35.2996632  83.4965731 112.2644916  33.6966803  85.7463506 102.0609131
  34.4175166  86.1244759 101.5572848  33.0732107  86.4652383 102.1644109
  37.8397926  86.4508655 102.9967464  38.0561540  87.3333293 102.6956292
  37.3591993  86.0594868 102.2673106  32.5797147  89.4094368 109.5738208
  32.4341728  89.7234671 110.4662490  32.1022351  90.0279268 109.0209107
  34.4393530  86.3996916 109.6219098  34.4255099  85.5038009 109.2851396
  35.1565958  86.4067580 110.2557384  36.2919661  86.8334256 111.6672225
  36.0337439  87.7551327 111.6656556  35.7604701  86.4364691 112.3572690
  41.2365850  99.9385043 104.4462311  41.4102727  99.3731466 103.6936163
  41.7294741 100.7385938 104.2641801  27.0542809  91.9499712 112.5125870
  26.5096278  92.7259520 112.6446144  27.9322159  92.2970517 112.3544991
  33.8430426  85.2811296 104.8906668  33.9646337  84.3527942 105.0897556
  33.5532468  85.2949982 103.9784984  36.7121616  82.9666207 108.0273388
  36.7343313  83.0305540 107.0725368  37.1289676  82.1270715 108.2213894
  47.0905241  92.7021466 106.0652611  47.5336387  91.9528791 105.6671734
  46.2131751  92.6931603 105.6826343  42.2241022  99.2551808 101.5459209
  42.9191927  99.8758500 101.7646524  42.5664172  98.4047159 101.8211587
  27.8408831  91.0769609 115.4056026  27.0990567  91.2252244 115.9920657
  27.5201576  91.3377874 114.5422776  44.1232445  96.7051513 103.0746540
  44.6483769  97.0438786 102.3495860  44.0354798  95.7698528 102.8909674
  35.7852494 100.6185587 115.2036416  36.0939620 100.3734734 116.0759116
  36.5827976 100.8232225 114.7155287  35.8073106 102.7723496 107.4341793
  35.3678096 102.2799875 108.1274650  36.5581223 102.2296464 107.1933868
  28.2865445  98.9635037 107.4366421  29.1123465  98.6638809 107.0565065
  27.9359497  98.1942660 107.8856210  33.2546978  98.3161506 109.5064095
  32.6326987  97.6532211 109.2066323  33.9251845  98.3422637 108.8237742
  26.4874050  96.8821364 108.3955355  25.6505958  96.4543538 108.2139356
  26.4597695  97.0753807 109.3326146  33.3271506  86.7943294 119.0996601
  33.3759661  87.6705416 118.7174370  33.8694020  86.2520687 118.5268244
  43.8126351  97.3384417 118.3797738  43.0221895  97.3208556 117.8402237
  43.5759706  97.8772710 119.1346774  43.9324226  94.1876883 115.6930466
  43.9822231  94.0226891 116.6345989  43.8238150  93.3204142 115.3028347
  32.8160485  96.8665429 102.9822555  32.9648605  97.5500893 102.3289228
  33.6226929  96.8470519 103.4972011  41.2227989  90.1707811 117.0089773
  42.1237852  90.0314276 116.7173771  41.2975963  90.3362266 117.9487950
  35.5570794  87.5474666 115.8542959  34.6874103  87.8408232 115.5825548
  35.7930274  88.1315111 116.5750223  45.4342423  96.6073825 115.9372488
  45.1427232  96.9703805 116.7735949  44.8214554  95.8940833 115.7585820
  46.6338106  94.1726704 108.4575058  47.4684997  94.6116509 108.6212618
  46.7697234  93.6965358 107.6383304  43.6829611  91.7306439 114.4052546
  44.1583733  91.9234086 113.5971397  42.7595177  91.7865625 114.1595930
  30.5713118  92.8930607 103.9883624  30.3259160  91.9892936 104.1863834
  30.7409033  92.8947757 103.0463102  38.2609828  83.7654283 113.3708380
  38.7791772  84.5015310 113.0454868  37.9064961  84.0718276 114.2055139
  29.8408766  88.6258964 101.4869786  29.1478011  88.7003319 100.8309822
  29.5960517  87.8619308 102.0091303  38.5122422  80.1854565 108.8909276
  38.7924176  79.5177754 109.5169703  39.2973029  80.3783661 108.3783940
  36.3155891  99.3613559 100.4534303  35.7429858  99.9803746 100.0004775
  36.8888684  99.9112921 100.9874225  42.3831280  88.6072199 112.6380851
  43.3348703  88.7070297 112.6593076  42.2134731  87.8150468 113.1478936
  40.4045660  85.6927783 112.8240252  39.8095592  85.9732795 112.1286741
  40.1195357  86.1821684 113.5956993  39.5353150  99.6450709 101.5842885
  40.4683824  99.5796271 101.7875760  39.4476363 100.4806976 101.1257418
  42.1641167  98.9616580  98.5446833  42.0854799  98.6276443  99.4382590
  42.9850834  99.4538348  98.5438305  44.8619358  91.8278319 111.7523151
  44.8295678  90.8894320 111.9382835  45.4719982  91.9062356 111.0188976
  36.7002689  90.6974372  97.7950355  37.6461794  90.5680580  97.8638773
  36.3216934  89.9589034  98.2719783  45.0113847  88.6189363 111.7981434
  44.4952895  87.8347819 111.6111363  45.8953795  88.2908079 111.9627954
  42.6724574  82.3630378 107.7577247  42.4749395  82.0545466 108.6420579
  43.2824279  83.0892017 107.8875177  50.6795908  92.8894326 110.8929188
  51.4099297  92.6279614 111.4536891  50.0702854  92.1523048 110.9331256
  48.7611205  91.0302189 111.4903639  48.0344369  90.8958153 110.8820131
  48.3458492  91.3379017 112.2960357  36.5841382  94.7492118 119.2551012
  37.5044391  94.9270717 119.4491059  36.5490965  93.8048164 119.1030711
  34.8845606  88.6224348  97.7305240  33.9777062  88.3257461  97.8067954
  35.1621587  88.3254167  96.8639527  25.8023547  89.9430712 108.1804287
  25.4826331  89.0896020 107.8878661  25.2556975  90.1579290 108.9362254
  29.5803454  92.6593153 111.8973793  29.7989464  93.5910261 111.9161827
  29.9929228  92.3001127 112.6828597  36.5007672  83.1661238 103.8849482
  35.6908400  82.8208323 104.2604728  37.1892089  82.8568782 104.4737093
  38.4298220  82.2439285 105.5073778  38.9829259  82.6634738 106.1663801
  38.6668307  81.3175033 105.5496734  34.4531319  88.2326359 121.2876542
  34.3528046  89.1820716 121.2188633  34.2352862  87.9044598 120.4152612
  33.6544391  85.4811284  97.8717220  34.5163555  85.8066182  98.1313037
  33.8394735  84.6942780  97.3590285  25.6711807  93.5633623 110.1497408
  24.9775278  93.1487576 109.6367363  26.4184798  93.6054160 109.5530827
  41.8077027  84.3539810 105.0152443  41.2275696  85.0124614 104.6330495
  41.5412960  83.5317155 104.6039860  40.2580594  83.7544868 107.2173763
  40.7580372  83.8661402 106.4088082  40.9016202  83.4505921 107.8574571
  34.3162590  91.6623497 120.1041604  33.8329671  92.4623858 120.3105493
  34.4023529  91.6731442 119.1509048  27.5848549  93.4951877 108.0263423
  27.5619237  93.5939564 107.0745306  27.8949186  94.3417028 108.3480589
  30.2435927  95.5528032 112.1410038  31.1979181  95.5211974 112.0739969
  30.0448451  95.0918656 112.9560264  30.8335309  94.1229148 114.7080835
  31.6528198  94.6173227 114.7315673  31.1072117  93.2061116 114.6798403
  40.5901905  86.5139901 104.0708791  39.7027760  86.7989551 103.8528986
  41.0055894  86.3533664 103.2236068  43.9416442  86.5386421 107.7863130
  44.7176832  87.0282874 108.0587747  43.2164576  86.9644476 108.2435000
  46.3789000  87.2514041 108.8437071  46.9733491  87.0109777 108.1330379
  46.4515584  86.5321171 109.4710607  28.5986156 101.0947652 109.1580236
  28.4640624 100.3348053 108.5918234  28.1818218 101.8188552 108.6909024
  39.7345119  96.2784575  98.1656811  40.4380969  96.4834578  98.7814466
  39.0107768  96.8461337  98.4305894  40.5642929  92.0294436 104.2859081
  40.5078131  92.4862988 103.4466713  41.1171272  91.2685121 104.1081924
  44.3747735  87.8184168 105.1109201  44.1184669  87.4180804 105.9417408
  43.7500603  88.5327962 104.9859340  48.6860073  90.5580242 107.6180492
  48.1259631  90.6273431 108.3912054  48.0803576  90.3821226 106.8979988
  31.7555282 101.9916969 109.3698678  31.6387666 102.9362401 109.2677368
  30.9347728 101.6890530 109.7584477  41.6431816  96.7167104 100.2155271
  42.4777420  96.2848303 100.0332746  41.4816159  96.5449118 101.1432165
  41.2977708  93.2199218 101.5811610  41.2426512  93.0543489 100.6400054
  40.6723764  93.9275251 101.7373800  26.0870223  88.4567282 115.4073032
  26.7329087  87.9466236 115.8960258  25.8787375  89.1935964 115.9816458
  38.6123616  95.5248130 120.9065173  39.4814775  95.6988782 120.5451808
  38.1330367  96.3442546 120.7840902  34.6073834  82.7207327 101.1596929
  34.5952504  83.6649167 101.3165199  35.4997256  82.5377472 100.8656390
  32.7809796 102.6445231 112.5854607  33.6837043 102.6768841 112.9021102
  32.5547166 101.7145682 112.6000942  34.5363398 101.3976217 109.2464685
  33.5859029 101.3978079 109.1329058  34.8395884 100.6508952 108.7300720
  38.4225953  79.3150103 105.4142865  37.6558349  78.7608590 105.5599548
  38.8336658  79.3871972 106.2757017  30.4267714  85.6034899 119.5048047
  31.2899176  85.2471704 119.7151371  29.8533125  85.2648794 120.1923451
  50.2716091 107.2336756 110.3110448  50.9094501 107.1143503 109.6073788
  50.1536934 108.1817599 110.3698400  47.0805798 107.1864184 110.2471972
  46.7424309 107.0705248 109.3592507  47.9495566 106.7855349 110.2272978
  42.9392613 109.0399660 106.2368863  42.3757478 108.9489597 105.4685151
  42.8245008 108.2199564 106.7171356  47.5625581 108.3399035 116.2058178
  47.5514221 107.9451834 115.3338682  47.7246220 107.6065108 116.7991949
  40.4857045 110.5350852 109.0753084  41.2778337 110.1941676 108.6599383
  40.7253695 110.6445827 109.9955237  48.5192172 112.7070628 101.5483328
  47.8680152 113.2924708 101.1617342  49.3136535 113.2376823 101.6078366
  42.4447799 109.7959765 101.9470463  43.2178675 109.2488752 101.8083338
  42.7973198 110.6604014 102.1584924  44.2832842 111.1236147 115.1537362
  43.9922708 112.0281778 115.0384028  44.9189826 111.1652675 115.8681431
  45.2089049 108.5012996 111.7438721  45.8052621 108.2769018 111.0295684
  45.2664020 107.7597741 112.3464169  44.7814077 105.9552431  99.5788912
  45.0339598 105.4333952  98.8172375  43.8438636 105.7918576  99.6815596
  49.8257360 104.9588209 107.3863656  50.6120449 104.5407633 107.0354073
  50.0896064 105.8634302 107.5545304  49.9967437 110.3961060 102.0852312
  49.3613270 110.4695686 102.7973217  49.6664844 110.9854658 101.4071392
  55.2265787 104.8963443 108.2896634  55.9590959 104.3262659 108.5234464
  54.4705143 104.5085043 108.7303140  44.5010366 107.8580537 101.7813287
  44.3846624 107.1825440 102.4494372  44.6112626 107.3712911 100.9645440
  46.8441907 107.3190684 105.4859977  46.4800114 106.7921305 106.1972898
  47.7009023 106.9289153 105.3126462  52.7491207  98.6085017 112.7491243
  52.4174532  99.4780428 112.5252458  52.1536821  98.2921301 113.4285273
  46.4847394 102.3480584 100.4821325  46.6521796 103.2160820 100.8491796
  46.2944563 102.5107865  99.5582614  49.2422727 110.8097563 112.1487156
  48.9423450 111.7122601 112.0402963  48.8973786 110.5429746 113.0008308
  42.6935208 107.2611359 108.1823860  41.7685705 107.1287574 108.3901552
  42.9419622 108.0405579 108.6793802  52.6419871 103.3280103 109.8284593
  51.7336748 103.2595511 109.5343354  52.5907466 103.8052048 110.6566418
  46.4636615 104.8038241 101.4667992  46.3436240 105.2495292 102.3053472
  45.7689203 105.1523559 100.9081530  40.0544019 106.9044633 109.0167649
  40.1836401 107.1579112 109.9307061  39.3741471 107.4972341 108.6972304
  44.2243507 117.5741883 105.1158123  44.1467536 118.5249708 105.1946604
  43.6205150 117.2287755 105.7733050  46.7160736 104.7469748 117.7719490
  45.9394070 105.3063669 117.7622355  47.3551299 105.2326531 118.2934360
  54.5081517 101.5296541 111.6062467  53.8655897 101.8229074 110.9602261
  54.0036446 101.4149462 112.4115663  52.1621681 105.2759714 102.2948326
  53.0739537 105.5087101 102.1196024  51.6531328 105.8596759 101.7323405
  44.9707109 107.5555202 117.3337457  45.7121793 108.0940246 117.0572281
  44.2644094 108.1821491 117.4909009  50.4462448 109.6984342 115.9309619
  50.8545804 109.2566753 115.1864251  49.7239710 109.1236970 116.1843811
  46.7993518 104.6356949 113.3043176  47.6454714 105.0596363 113.4477825
  46.7392156 103.9790573 113.9981739  50.7691263 110.2585533 109.6861907
  50.1400125 110.4231247 108.9837975  50.3816925 110.6727142 110.4572872
  54.6480495 111.1939971 107.0406271  53.9631533 111.5738872 106.4903305
  54.7324344 111.8035297 107.7738219  49.9492964 102.2961317 114.9624349
  49.7053896 103.0503378 114.4258625  50.2252894 102.6746665 115.7971596
  51.9031426 108.8399930 113.6401615  52.1148322 109.4831690 112.9635996
  51.8561175 108.0062246 113.1723545  49.5057655 101.4517750 110.5438187
  48.6442134 101.7499004 110.8354924  49.5320090 101.6688149 109.6119220
  46.3219225 109.9959941 106.9511993  46.7857570 110.2747644 106.1616615
  46.0576023 109.0943386 106.7685083  43.2143306 109.5431423 109.8891756
  43.7844663 109.9718691 109.2509240  43.8051418 109.2614007 110.5875942
  45.2588111 106.1183093 103.7601558  45.9612154 106.5704137 104.2275484
  44.9268739 105.4766912 104.3881451  43.7068472 104.7094850 118.1352767
  43.0767133 105.3911131 118.3688164  43.6004560 104.5977932 117.1905905
  39.0013445 104.3766646 109.0618691  38.2112499 104.6324175 108.5858802
  39.4924692 105.1914984 109.1670732  53.0177254 111.7171885 111.8123972
  53.8394698 111.3152072 111.5306654  53.0139657 111.6140119 112.7640088
  40.9528190 104.7411225 106.0202168  40.1559354 104.8529919 106.5385664
  40.7253782 105.0797877 105.1543059  46.7833858 111.2655928 113.9684683
  46.8478290 111.7276336 114.8042854  46.0744782 110.6353293 114.0966992
  37.2851148 104.6297136 111.4933682  37.5359186 105.5144146 111.7591258
  37.8210696 104.4501738 110.7208774  61.1083247 108.0610634 108.1608944
  60.3546956 107.4918032 108.0052948  61.2430789 108.0273298 109.1079578
  46.4981876 112.9324036 103.8363663  46.3627550 113.7775572 104.2648511
  47.0391688 113.1343314 103.0729597  42.9849215  99.0115616 120.4978018
  42.5916161  98.4581814 121.1725662  43.8015355  99.3226194 120.8884536
  39.9511273 110.4499474 104.4091588  40.4635793 111.2442724 104.5597153
  40.6033986 109.7525764 104.3425189  41.7606158 113.5665230 106.4914341
  41.9372786 114.4883195 106.3035325  42.5562991 113.2523649 106.9208721
  45.9017176 100.4273495 118.0898275  46.6426890 101.0280648 118.0102737
  46.1335099  99.6851133 117.5316317  41.0458514 105.6129862 116.3676504
  40.9312029 104.7115119 116.6683603  40.1903032 105.8593559 116.0161321
  48.1250352 113.5547602 117.9664005  47.6814206 112.7683981 117.6484910
  48.7867565 113.7426753 117.3007896  42.8837473 115.0843404 112.4924684
  43.4344898 114.9560467 111.7201677  42.0448949 115.3838293 112.1419576
  50.2231590 113.8350402 115.9945406  50.2050065 114.6559283 115.5025675
  51.1451510 113.7104478 116.2195547  46.6804644 111.3494532 116.8368915
  47.2132981 110.5882820 116.6068223  46.1518725 111.0568184 117.5793069
  49.8474339  96.4554598 112.3662556  49.5038608  97.3456240 112.2901667
  50.2153302  96.2656255 111.5032141  37.9160190 108.7788128 105.1851159
  38.7535412 109.1885137 104.9684866  38.0938457 107.8387570 105.1551352
  49.8124622 106.4463209 100.8734992  49.2971245 107.2167814 101.1123379
  49.5401930 105.7728345 101.4968053  47.3971733 101.2912910 105.9320230
  46.5413329 100.9019760 105.7525869  47.8098685 101.3704871 105.0720015
  48.9270879  98.8259253 110.3311790  48.4235675  98.7889388 109.5179595
  49.2201486  99.7351996 110.3908446  45.1713765  98.9097983 109.3377971
  46.0366762  98.7140791 108.9783861  45.2391274  98.6808334 110.2647328
  54.7858896 109.1995564 102.8088165  54.0088339 108.8606723 102.3643327
  55.4650377 109.2048187 102.1343130  49.6010925 104.3190301 102.6994773
  49.2961061 104.6336450 103.5504916  50.5541367 104.3971721 102.7422106
  48.0457357 110.4780524 104.3487727  47.5178718 109.7433284 104.0360964
  47.5444860 111.2555201 104.1027695  53.0250203 108.6729545 109.4654773
  52.3673877 109.3628806 109.5534902  53.8290602 109.0625977 109.8088759
  42.7776084 101.1400191 106.7094338  43.3519836 100.9175372 105.9767531
  43.3647067 101.2088885 107.4622940  51.8355662 107.0273918 107.5158715
  52.3487543 107.6603909 108.0180424  52.4856886 106.4275113 107.1502075
  43.1045672 103.1704652 100.7290223  42.2682984 103.5079338 101.0499498
  42.9650441 103.0353631  99.7917360  45.0798752  98.0141440 105.4369408
  44.4263165  97.6990457 104.8126022  45.0379226  97.3917180 106.1629231
  46.1909957 108.2960735  97.3522700  45.2837019 108.0649988  97.5513849
  46.6880989 107.4998354  97.5396681  49.0978036 117.0058242 100.2719386
  48.4239735 117.3089939 100.8804344  49.4843858 117.8087322  99.9224843
  48.3136493 104.5023373 109.7617055  47.3959054 104.7238320 109.6038743
  48.7296636 104.5769684 108.9028763  49.0971540 105.9014789 104.8919736
  49.8443359 106.4136186 104.5826858  49.3663130 105.5798841 105.7524129
  47.3698190 108.3973329 101.8746690  46.4609410 108.1132362 101.9719160
  47.3993274 108.8172408 101.0149997  52.6017458 112.0079919 105.6437857
  52.1479785 111.1670829 105.7003048  51.9711425 112.6441317 105.9812638
  51.5450377 102.9371905 106.8738525  50.8073134 102.4249291 107.2048767
  51.7977151 102.4972287 106.0621802  51.0450397 113.8456416 106.5787676
  51.3373371 114.4061473 105.8600041  51.5549018 114.1384977 107.3340835
  51.6462005  95.7148157 107.4680294  51.9520882  94.8545520 107.1806209
  52.3714610  96.3065777 107.2679288  37.9386361 106.1178844 105.8561892
  37.7410761 105.5248204 105.1312959  37.3833025 105.8131054 106.5737831
  45.9183085 106.0101950 107.9756485  45.9731694 105.0575786 107.8998962
  45.1074287 106.1661389 108.4597784  47.0674278 109.9382073  99.2134768
  46.6293708 109.2217932  98.7540406  47.8084719 110.1658188  98.6519860
  43.8575444 104.6279010 105.7346864  43.0443310 104.9273180 106.1412056
  44.3534439 104.2334699 106.4521346  46.0084022 114.6236767 107.6681129
  45.9660201 114.8497613 106.7389661  46.9246721 114.3900141 107.8166930
  49.4549656 105.0920834 114.5661758  49.8099044 105.3192307 115.4256224
  50.1021787 105.4239211 113.9439013  55.1847393 108.2139270 105.2711087
  55.0465292 108.4040866 104.3432276  54.8283612 108.9758653 105.7279138
  43.3489519 102.1997365 111.3508099  43.9888899 102.0586124 110.6531062
  42.5167050 101.9131879 110.9746701  55.2116773 110.2815797 110.2822358
  55.6453279 110.1891086 111.1305412  55.9248353 110.2573298 109.6442374
  44.1249823 111.4999796 107.4643091  44.9190422 111.0050116 107.2625666
  43.4141515 110.9717659 107.1010797  48.9444668 113.8817891 111.8155459
  48.9981690 114.4508828 112.5833175  48.0759449 114.0519776 111.4509496
  40.4332587 105.6442878 103.5402844  39.5030175 105.5827333 103.7572806
  40.5290059 105.1218830 102.7439485  40.3518136 102.1697690 106.1281086
  40.6124953 103.0843024 106.0190246  41.1735308 101.7022133 106.2777699
  41.8243061 103.5835448 113.2979910  42.4966114 103.3752810 112.6492559
  40.9972847 103.3857534 112.8585143  56.0732322 110.3239498 112.8155244
  56.2668212 111.2285308 113.0614519  55.9732940 109.8646917 113.6493829
  47.7268633 100.2097388 115.3145571  47.0796548 100.9087338 115.2210048
  48.4969648 100.6433532 115.6821819  51.1347431 110.4746241 118.3896124
  50.9832937 110.2456792 117.4726208  51.1252110 111.4316842 118.4027469
  47.9032767 108.0478153 113.3742391  48.8324827 108.1989313 113.2011358
  47.4823797 108.1362174 112.5191037  46.7021099 112.0728818 111.1440929
  46.5632185 111.7047602 112.0166867  45.9135695 112.5876457 110.9724886
  47.2969251 117.1737914 102.4866465  47.4721007 116.7025957 103.3012088
  46.6102039 117.8003680 102.7147726  48.2526314 111.4510420 108.5329766
  47.9176147 111.4111190 109.4287416  47.7530260 110.7855136 108.0600177
  42.2270558 106.8578050 114.0582347  42.0890356 106.1258289 114.6593887
  43.1375482 106.7686951 113.7766535  51.1885506 108.7966455  98.8066826
  50.5714677 108.0713283  98.7099879  50.7201994 109.5575815  98.4633900
  44.8552859 106.5698010 113.5466027  45.5652477 105.9291202 113.5052646
  44.8122167 106.8210905 114.4692208  52.8439638 113.5065363 116.4672606
  52.7852184 112.8224583 115.8003189  53.2459156 114.2484353 116.0153232
  43.5681793 103.5563228 115.3661667  43.0319150 103.1053966 116.0183263
  42.9798501 103.6909137 114.6232131  41.8630336 120.3227277 109.2606325
  42.1026935 120.9545801 109.9385344  41.0199533 119.9715317 109.5471684
  42.9784052 103.0151879  97.9288130  42.1013518 102.8940680  97.5650377
  43.4541805 102.2237957  97.6767019  52.8457045 111.4704947 114.6986586
  51.9583824 111.1330869 114.8212985  53.4155596 110.7387978 114.9355351
  34.4986192 107.8029039 108.0229637  35.1857232 107.4890769 107.4350653
  34.3434321 108.7070403 107.7496889  39.3020914 102.6919235 112.4514661
  39.2179103 102.0844905 111.7165071  38.4803620 103.1828254 112.4524157
  46.3758198 116.1306399 111.6647829  46.3028370 116.9361371 112.1767134
  45.9335591 116.3298365 110.8395851  46.1647978 115.3678169 105.1750651
  45.3815500 115.9099850 105.2688875  46.8640723 115.8852149 105.5744892
  49.4744628 101.1772799 107.8184856  49.9713327 100.4242761 107.4985926
  48.7031609 101.2137116 107.2528065  57.3274385 106.8813164 109.4603148
  57.3164262 107.7637880 109.0897081  56.4591765 106.5284715 109.2657685
  48.8356882 116.0293233 113.8205988  49.5484854 116.6640698 113.7481889
  48.3446910 116.1257099 113.0045990  50.5574409 109.9344486 105.3923280
  49.6230687 110.0545949 105.2227984  50.7351077 109.0316953 105.1283289
  46.0579597 103.3190182 107.5456541  45.6877384 102.7661222 108.2337446
  46.5538689 102.7148315 106.9931541  53.9446960 105.7761805 105.9273314
  54.4107412 106.6089797 105.8533616  54.3954460 105.3106787 106.6318572
  43.8868795 113.7787677 114.6411559  44.5878255 114.4124160 114.7940953
  43.4163910 114.1202408 113.8807198  52.0123191 112.1205627 102.9259466
  52.2883035 112.0062221 103.8353340  51.1427690 111.7223112 102.8871639
  51.9163623  98.1442392 109.9664215  51.0026703  98.3746619 110.1346422
  52.3456724  98.2280836 110.8178247  51.6870081 106.3332284 112.4664109
  51.0341531 106.5808192 111.8116562  52.0650461 105.5196423 112.1326586
  48.6477255 116.3691978 106.5692279  48.8299650 115.5513633 107.0320032
  49.4710241 116.5859670 106.1317169  48.9819421 115.2960163 103.8307328
  49.5107187 114.7852617 103.2177490  49.2447640 114.9802693 104.6952861
  47.7357654 107.0752095 118.9530146  47.0598291 106.9746225 119.6232521
  48.5585288 106.9191309 119.4166143  39.4836513 113.3124032 111.5742661
  40.0689950 112.5667720 111.7070566  39.2861352 113.6227989 112.4579325
  42.3375169 116.3475279 106.5905104  41.6685544 116.8321407 106.1069144
  42.1988038 116.5944500 107.5048482  34.0754168 105.8829632 110.2947105
  34.1138268 105.3493223 111.0884223  33.5694461 105.3564838 109.6758082
  46.4780437 118.3819023 113.1887762  47.0298745 118.5450644 113.9536847
  46.8186631 118.9723461 112.5167787  41.4544930 100.7294173 113.7909647
  41.5186257 101.5909004 113.3787045  41.3912051 100.1168174 113.0582005
  40.9297203 102.8017305 117.4382681  41.5569242 102.4194383 118.0520205
  40.0725122 102.5831507 117.8038374  51.3291311 113.2080280 119.0436417
  51.8731215 113.8210239 118.5491371  50.7478156 113.7659859 119.5603430
  37.7062746 104.6093734 103.3701036  38.0016187 103.7004413 103.3168090
  36.8050781 104.5881474 103.0482038  49.6148824 116.3300998 110.1751444
  49.4899964 115.5290738 109.6662390  50.2727916 116.8247192 109.6865414
  41.2356993 102.6849731 109.3528585  40.5143578 103.2985699 109.2136058
  42.0250248 103.2207496 109.2745230  51.6783733 114.1310019 111.8030994
  50.7314068 114.0115370 111.7309321  52.0266506 113.2432517 111.8857256
  44.0383306 100.0204157 115.6269236  44.5617708 100.2666454 116.3895546
  43.8195639 100.8524192 115.2072374  39.4350587 102.2907832 103.4940361
  39.1063293 101.4105211 103.3115467  39.7889958 102.2355501 104.3816750
  48.6830166 113.9262735 108.0035347  48.5355129 112.9979442 108.1842917
  49.5083660 113.9482825 107.5192422  42.5492410 102.5780802 103.8615839
  42.8888483 103.1066723 103.1394447  42.9964531 102.9161208 104.6374405
  52.2864288 114.7491293 109.0900219  53.2110835 114.5434155 108.9524670
  52.1179591 114.5007695 109.9989561  45.2435851 100.9617853 113.3118907
  44.9032672 100.1625666 113.7139587  44.5374857 101.2619563 112.7395740
  45.8952323  98.0467165 111.7646230  46.7178392  97.5727643 111.6425120
  46.1390387  98.8257649 112.2644916  44.5360558 101.0755423 102.0609131
  45.2568920 101.4536676 101.5572848  43.9125862 101.7944300 102.1644109
  48.6791680 101.7800572 102.9967464  48.8955295 102.6625210 102.6956292
  48.1985748 101.3886786 102.2673106  43.4190902 104.7386286 109.5738208
  43.2735482 105.0526589 110.4662490  42.9416105 105.3571186 109.0209107
  45.2787285 101.7288834 109.6219098  45.2648853 100.8329927 109.2851396
  45.9959713 101.7359497 110.2557384  47.1313415 102.1626174 111.6672225
  46.8731193 103.0843244 111.6656556  46.5998456 101.7656608 112.3572690
  52.0759604 115.2676961 104.4462311  52.2496482 114.7023383 103.6936163
  52.5688495 116.0677856 104.2641801  37.8936564 107.2791630 112.5125870
  37.3490032 108.0551438 112.6446144  38.7715914 107.6262434 112.3544991
  44.6824181 100.6103214 104.8906668  44.8040092  99.6819860 105.0897556
  44.3926223 100.6241900 103.9784984  47.5515371  98.2958124 108.0273388
  47.5737068  98.3597457 107.0725368  47.9683430  97.4562633 108.2213894
  57.9298995 108.0313384 106.0652611  58.3730141 107.2820709 105.6671734
  57.0525506 108.0223520 105.6826343  53.0634777 114.5843725 101.5459209
  53.7585681 115.2050418 101.7646524  53.4057927 113.7339077 101.8211587
  38.6802586 106.4061526 115.4056026  37.9384322 106.5544162 115.9920657
  38.3595330 106.6669792 114.5422776  54.9626200 112.0343431 103.0746540
  55.4877524 112.3730704 102.3495860  54.8748552 111.0990446 102.8909674
  46.6246248 115.9477504 115.2036416  46.9333375 115.7026651 116.0759116
  47.4221730 116.1524143 114.7155287  46.6466860 118.1015414 107.4341793
  46.2071851 117.6091793 108.1274650  47.3974977 117.5588382 107.1933868
  39.1259199 114.2926955 107.4366421  39.9517219 113.9930727 107.0565065
  38.7753251 113.5234577 107.8856210  44.0940733 113.6453423 109.5064095
  43.4720742 112.9824128 109.2066323  44.7645600 113.6714555 108.8237742
  37.3267805 112.2113281 108.3955355  36.4899713 111.7835456 108.2139356
  37.2991450 112.4045725 109.3326146  44.1665260 102.1235211 119.0996601
  44.2153416 102.9997334 118.7174370  44.7087774 101.5812604 118.5268244
  54.6520106 112.6676334 118.3797738  53.8615650 112.6500473 117.8402237
  54.4153460 113.2064628 119.1346774  54.7717981 109.5168801 115.6930466
  54.8215986 109.3518808 116.6345989  54.6631904 108.6496060 115.3028347
  43.6554240 112.1957347 102.9822555  43.8042360 112.8792811 102.3289228
  44.4620683 112.1762437 103.4972011  52.0621743 105.4999729 117.0089773
  52.9631606 105.3606194 116.7173771  52.1369718 105.6654184 117.9487950
  46.3964549 102.8766584 115.8542959  45.5267858 103.1700150 115.5825548
  46.6324029 103.4607029 116.5750223  56.2736178 111.9365742 115.9372488
  55.9820986 112.2995723 116.7735949  55.6608309 111.2232751 115.7585820
  57.4731860 109.5018622 108.4575058  58.3078751 109.9408426 108.6212618
  57.6090989 109.0257275 107.6383304  54.5223366 107.0598357 114.4052546
  54.9977488 107.2526003 113.5971397  53.5988931 107.1157543 114.1595930
  41.4106873 108.2222524 103.9883624  41.1652914 107.3184854 104.1863834
  41.5802787 108.2239675 103.0463102  49.1003582  99.0946201 113.3708380
  49.6185526  99.8307227 113.0454868  48.7458715  99.4010194 114.2055139
  40.6802520 103.9550882 101.4869786  39.9871765 104.0295237 100.8309822
  40.4354272 103.1911225 102.0091303  49.3516177  95.5146483 108.8909276
  49.6317930  94.8469672 109.5169703  50.1366784  95.7075579 108.3783940
  47.1549645 114.6905477 100.4534303  46.5823612 115.3095664 100.0004775
  47.7282439 115.2404839 100.9874225  53.2225035 103.9364117 112.6380851
  54.1742458 104.0362215 112.6593076  53.0528485 103.1442386 113.1478936
  51.2439414 101.0219700 112.8240252  50.6489347 101.3024713 112.1286741
  50.9589111 101.5113601 113.5956993  50.3746905 114.9742627 101.5842885
  51.3077578 114.9088189 101.7875760  50.2870118 115.8098894 101.1257418
  53.0034922 114.2908497  98.5446833  52.9248553 113.9568361  99.4382590
  53.8244588 114.7830265  98.5438305  55.7013113 107.1570237 111.7523151
  55.6689433 106.2186238 111.9382835  56.3113736 107.2354273 111.0188976
  47.5396444 106.0266290  97.7950355  48.4855548 105.8972498  97.8638773
  47.1610689 105.2880952  98.2719783  55.8507601 103.9481280 111.7981434
  55.3346650 103.1639737 111.6111363  56.7347550 103.6199997 111.9627954
  53.5118328  97.6922296 107.7577247  53.3143149  97.3837384 108.6420579
  54.1218034  98.4183935 107.8875177  61.5189663 108.2186244 110.8929188
  62.2493051 107.9571532 111.4536891  60.9096608 107.4814966 110.9331256
  59.6004960 106.3594106 111.4903639  58.8738123 106.2250071 110.8820131
  59.1852247 106.6670935 112.2960357  47.4235136 110.0784036 119.2551012
  48.3438146 110.2562635 119.4491059  47.3884719 109.1340081 119.1030711
  45.7239361 103.9516266  97.7305240  44.8170816 103.6549379  97.8067954
  46.0015342 103.6546084  96.8639527  36.6417301 105.2722630 108.1804287
  36.3220085 104.4187938 107.8878661  36.0950729 105.4871208 108.9362254
  40.4197209 107.9885071 111.8973793  40.6383218 108.9202178 111.9161827
  40.8322982 107.6293045 112.6828597  47.3401426  98.4953156 103.8849482
  46.5302155  98.1500241 104.2604728  48.0285843  98.1860700 104.4737093
  49.2691975  97.5731203 105.5073778  49.8223013  97.9926656 106.1663801
  49.5062061  96.6466951 105.5496734  45.2925074 103.5618276 121.2876542
  45.1921801 104.5112633 121.2188633  45.0746616 103.2336515 120.4152612
  44.4938145 100.8103201  97.8717220  45.3557309 101.1358100  98.1313037
  44.6788490 100.0234697  97.3590285  36.5105561 108.8925541 110.1497408
  35.8169033 108.4779494 109.6367363  37.2578552 108.9346078 109.5530827
  52.6470782  99.6831728 105.0152443  52.0669451 100.3416532 104.6330495
  52.3806715  98.8609072 104.6039860  51.0974348  99.0836786 107.2173763
  51.5974127  99.1953320 106.4088082  51.7409956  98.7797838 107.8574571
  45.1556344 106.9915415 120.1041604  44.6723426 107.7915775 120.3105493
  45.2417283 107.0023360 119.1509048  38.4242304 108.8243795 108.0263423
  38.4012992 108.9231482 107.0745306  38.7342940 109.6708946 108.3480589
  41.0829682 110.8819950 112.1410038  42.0372935 110.8503892 112.0739969
  40.8842205 110.4210574 112.9560264  41.6729064 109.4521066 114.7080835
  42.4921953 109.9465145 114.7315673  41.9465871 108.5353034 114.6798403
  51.4295660 101.8431818 104.0708791  50.5421515 102.1281469 103.8528986
  51.8449649 101.6825582 103.2236068  54.7810196 101.8678339 107.7863130
  55.5570586 102.3574792 108.0587747  54.0558330 102.2936393 108.2435000
  57.2182755 102.5805958 108.8437071  57.8127245 102.3401694 108.1330379
  57.2909338 101.8613089 109.4710607  39.4379910 116.4239569 109.1580236
  39.3034378 115.6639970 108.5918234  39.0211973 117.1480469 108.6909024
  50.5738873 111.6076493  98.1656811  51.2774723 111.8126495  98.7814466
  49.8501522 112.1753255  98.4305894  51.4036684 107.3586354 104.2859081
  51.3471885 107.8154906 103.4466713  51.9565026 106.5977039 104.1081924
  55.2141490 103.1476086 105.1109201  54.9578424 102.7472722 105.9417408
  54.5894358 103.8619880 104.9859340  59.5253827 105.8872159 107.6180492
  58.9653385 105.9565349 108.3912054  58.9197331 105.7113144 106.8979988
  42.5949036 117.3208886 109.3698678  42.4781420 118.2654319 109.2677368
  41.7741482 117.0182448 109.7584477  52.4825571 112.0459022 100.2155271
  53.3171175 111.6140221 100.0332746  52.3209914 111.8741036 101.1432165
  52.1371463 108.5491135 101.5811610  52.0820267 108.3835407 100.6400054
  51.5117518 109.2567168 101.7373800  36.9263978 103.7859200 115.4073032
  37.5722841 103.2758154 115.8960258  36.7181129 104.5227881 115.9816458
  49.4517370 110.8540047 120.9065173  50.3208530 111.0280700 120.5451808
  48.9724122 111.6734464 120.7840902  45.4467588  98.0499244 101.1596929
  45.4346258  98.9941084 101.3165199  46.3391010  97.8669390 100.8656390
  43.6203550 117.9737148 112.5854607  44.5230797 118.0060759 112.9021102
  43.3940920 117.0437599 112.6000942  45.3757152 116.7268135 109.2464685
  44.4252783 116.7269996 109.1329058  45.6789638 115.9800869 108.7300720
  49.2619708  94.6442021 105.4142865  48.4952104  94.0900508 105.5599548
  49.6730413  94.7163890 106.2757017  41.2661469 100.9326817 119.5048047
  42.1292930 100.5763622 119.7151371  40.6926880 100.5940712 120.1923451
  61.1109846 122.5628673 110.3110448  61.7488256 122.4435421 109.6073788
  60.9930689 123.5109517 110.3698400  57.9199552 122.5156101 110.2471972
  57.5818064 122.3997166 109.3592507  58.7889320 122.1147266 110.2272978
  53.7786368 124.3691578 106.2368863  53.2151233 124.2781515 105.4685151
  53.6638763 123.5491482 106.7171356  58.4019335 123.6690953 116.2058178
  58.3907976 123.2743751 115.3338682  58.5639975 122.9357026 116.7991949
  51.3250800 125.8642769 109.0753084  52.1172092 125.5233594 108.6599383
  51.5647450 125.9737744 109.9955237  59.3585927 128.0362545 101.5483328
  58.7073906 128.6216626 101.1617342  60.1530289 128.5668740 101.6078366
  53.2841554 125.1251683 101.9470463  54.0572430 124.5780670 101.8083338
  53.6366953 125.9895932 102.1584924  55.1226596 126.4528065 115.1537362
  54.8316462 127.3573696 115.0384028  55.7583581 126.4944592 115.8681431
  56.0482803 123.8304913 111.7438721  56.6446375 123.6060936 111.0295684
  56.1057775 123.0889659 112.3464169  55.6207831 121.2844349  99.5788912
  55.8733352 120.7625870  98.8172375  54.6832391 121.1210494  99.6815596
  60.6651114 120.2880127 107.3863656  61.4514204 119.8699550 107.0354073
  60.9289819 121.1926219 107.5545304  60.8361192 125.7252977 102.0852312
  60.2007025 125.7987604 102.7973217  60.5058598 126.3146576 101.4071392
  66.0659541 120.2255360 108.2896634  66.7984713 119.6554577 108.5234464
  65.3098897 119.8376961 108.7303140  55.3404120 123.1872455 101.7813287
  55.2240378 122.5117358 102.4494372  55.4506380 122.7004829 100.9645440
  57.6835661 122.6482602 105.4859977  57.3193868 122.1213223 106.1972898
  58.5402777 122.2581071 105.3126462  63.5884962 113.9376934 112.7491243
  63.2568287 114.8072345 112.5252458  62.9930575 113.6213218 113.4285273
  57.3241148 117.6772501 100.4821325  57.4915550 118.5452738 100.8491796
  57.1338317 117.8399783  99.5582614  60.0816481 126.1389480 112.1487156
  59.7817204 127.0414519 112.0402963  59.7367541 125.8721664 113.0008308
  53.5328963 122.5903277 108.1823860  52.6079459 122.4579491 108.3901552
  53.7813376 123.3697496 108.6793802  63.4813625 118.6572021 109.8284593
  62.5730502 118.5887429 109.5343354  63.4301221 119.1343965 110.6566418
  57.3030369 120.1330159 101.4667992  57.1829994 120.5787210 102.3053472
  56.6082957 120.4815477 100.9081530  50.8937774 122.2336551 109.0167649
  51.0230155 122.4871030 109.9307061  50.2135225 122.8264259 108.6972304
  55.0637261 132.9033801 105.1158123  54.9861291 133.8541626 105.1946604
  54.4598905 132.5579673 105.7733050  57.5554491 120.0761666 117.7719490
  56.7787825 120.6355586 117.7622355  58.1945054 120.5618449 118.2934360
  65.3475272 116.8588459 111.6062467  64.7049652 117.1520992 110.9602261
  64.8430200 116.7441379 112.4115663  63.0015435 120.6051632 102.2948326
  63.9133291 120.8379019 102.1196024  62.4925082 121.1888676 101.7323405
  55.8100863 122.8847119 117.3337457  56.5515548 123.4232163 117.0572281
  55.1037849 123.5113408 117.4909009  61.2856203 125.0276260 115.9309619
  61.6939559 124.5858670 115.1864251  60.5633464 124.4528887 116.1843811
  57.6387273 119.9648867 113.3043176  58.4848468 120.3888280 113.4477825
  57.5785911 119.3082491 113.9981739  61.6085017 125.5877451 109.6861907
  60.9793880 125.7523165 108.9837975  61.2210680 126.0019060 110.4572872
  65.4874249 126.5231888 107.0406271  64.8025288 126.9030790 106.4903305
  65.5718099 127.1327215 107.7738219  60.7886718 117.6253235 114.9624349
  60.5447650 118.3795296 114.4258625  61.0646649 118.0038583 115.7971596
  62.7425181 124.1691847 113.6401615  62.9542076 124.8123607 112.9635996
  62.6954929 123.3354164 113.1723545  60.3451410 116.7809668 110.5438187
  59.4835889 117.0790922 110.8354924  60.3713845 116.9980067 109.6119220
  57.1612979 125.3251859 106.9511993  57.6251325 125.6039562 106.1616615
  56.8969777 124.4235303 106.7685083  54.0537060 124.8723340 109.8891756
  54.6238417 125.3010609 109.2509240  54.6445172 124.5905925 110.5875942
  56.0981865 121.4475011 103.7601558  56.8005909 121.8996055 104.2275484
  55.7662494 120.8058830 104.3881451  54.5462227 120.0386768 118.1352767
  53.9160888 120.7203048 118.3688164  54.4398315 119.9269849 117.1905905
  49.8407199 119.7058564 109.0618691  49.0506253 119.9616092 108.5858802
  50.3318447 120.5206902 109.1670732  63.8571009 127.0463803 111.8123972
  64.6788453 126.6443990 111.5306654  63.8533412 126.9432037 112.7640088
  51.7921945 120.0703143 106.0202168  50.9953108 120.1821837 106.5385664
  51.5647537 120.4089795 105.1543059  57.6227612 126.5947846 113.9684683
  57.6872045 127.0568253 114.8042854  56.9138536 125.9645211 114.0966992
  48.1244902 119.9589054 111.4933682  48.3752941 120.8436064 111.7591258
  48.6604451 119.7793656 110.7208774  71.9477002 123.3902551 108.1608944
  71.1940710 122.8209949 108.0052948  72.0824543 123.3565216 109.1079578
  57.3375630 128.2615954 103.8363663  57.2021305 129.1067489 104.2648511
  57.8785443 128.4635231 103.0729597  53.8242970 114.3407533 120.4978018
  53.4309915 113.7873732 121.1725662  54.6409110 114.6518112 120.8884536
  50.7905027 125.7791392 104.4091588  51.3029548 126.5734642 104.5597153
  51.4427740 125.0817682 104.3425189  52.5999912 128.8957148 106.4914341
  52.7766540 129.8175113 106.3035325  53.3956746 128.5815567 106.9208721
  56.7410931 115.7565413 118.0898275  57.4820644 116.3572566 118.0102737
  56.9728853 115.0143050 117.5316317  51.8852269 120.9421780 116.3676504
  51.7705784 120.0407037 116.6683603  51.0296786 121.1885477 116.0161321
  58.9644106 128.8839520 117.9664005  58.5207961 128.0975899 117.6484910
  59.6261320 129.0718671 117.3007896  53.7231228 130.4135322 112.4924684
  54.2738653 130.2852385 111.7201677  52.8842703 130.7130211 112.1419576
  61.0625344 129.1642320 115.9945406  61.0443820 129.9851201 115.5025675
  61.9845265 129.0396395 116.2195547  57.5198399 126.6786450 116.8368915
  58.0526735 125.9174738 116.6068223  56.9912480 126.3860101 117.5793069
  60.6868094 111.7846516 112.3662556  60.3432363 112.6748157 112.2901667
  61.0547056 111.5948173 111.5032141  48.7553944 124.1080046 105.1851159
  49.5929166 124.5177054 104.9684866  48.9332212 123.1679488 105.1551352
  60.6518376 121.7755127 100.8734992  60.1365000 122.5459731 101.1123379
  60.3795685 121.1020263 101.4968053  58.2365487 116.6204827 105.9320230
  57.3807084 116.2311678 105.7525869  58.6492439 116.6996788 105.0720015
  59.7664634 114.1551171 110.3311790  59.2629430 114.1181306 109.5179595
  60.0595241 115.0643913 110.3908446  56.0107520 114.2389900 109.3377971
  56.8760517 114.0432709 108.9783861  56.0785029 114.0100252 110.2647328
  65.6252650 124.5287481 102.8088165  64.8482093 124.1898641 102.3643327
  66.3044131 124.5340104 102.1343130  60.4404679 119.6482219 102.6994773
  60.1354815 119.9628368 103.5504916  61.3935122 119.7263639 102.7422106
  58.8851111 125.8072442 104.3487727  58.3572473 125.0725202 104.0360964
  58.3838614 126.5847118 104.1027695  63.8643957 124.0021463 109.4654773
  63.2067632 124.6920724 109.5534902  64.6684357 124.3917894 109.8088759
  53.6169839 116.4692108 106.7094338  54.1913591 116.2467290 105.9767531
  54.2040821 116.5380803 107.4622940  62.6749416 122.3565835 107.5158715
  63.1881298 122.9895827 108.0180424  63.3250640 121.7567031 107.1502075
  53.9439426 118.4996569 100.7290223  53.1076738 118.8371256 101.0499498
  53.8044196 118.3645549  99.7917360  55.9192507 113.3433357 105.4369408
  55.2656919 113.0282374 104.8126022  55.8772981 112.7209098 106.1629231
  57.0303712 123.6252652  97.3522700  56.1230773 123.3941906  97.5513849
  57.5274743 122.8290272  97.5396681  59.9371790 132.3350159 100.2719386
  59.2633489 132.6381856 100.8804344  60.3237612 133.1379240  99.9224843
  59.1530247 119.8315291 109.7617055  58.2352808 120.0530238 109.6038743
  59.5690391 119.9061601 108.9028763  59.9365295 121.2306706 104.8919736
  60.6837114 121.7428104 104.5826858  60.2056884 120.9090759 105.7524129
  58.2091945 123.7265247 101.8746690  57.3003164 123.4424280 101.9719160
  58.2387029 124.1464326 101.0149997  63.4411212 127.3371837 105.6437857
  62.9873539 126.4962747 105.7003048  62.8105179 127.9733235 105.9812638
  62.3844132 118.2663823 106.8738525  61.6466889 117.7541209 107.2048767
  62.6370905 117.8264204 106.0621802  61.8844152 129.1748333 106.5787676
  62.1767126 129.7353390 105.8600041  62.3942772 129.4676894 107.3340835
  62.4855759 111.0440075 107.4680294  62.7914636 110.1837438 107.1806209
  63.2108364 111.6357695 107.2679288  48.7780115 121.4470761 105.8561892
  48.5804515 120.8540122 105.1312959  48.2226779 121.1422971 106.5737831
  56.7576839 121.3393868 107.9756485  56.8125449 120.3867704 107.8998962
  55.9468041 121.4953307 108.4597784  57.9068033 125.2673991  99.2134768
  57.4687463 124.5509850  98.7540406  58.6478474 125.4950106  98.6519860
  54.6969199 119.9570928 105.7346864  53.8837064 120.2565098 106.1412056
  55.1928193 119.5626616 106.4521346  56.8477777 129.9528684 107.6681129
  56.8053956 130.1789531 106.7389661  57.7640476 129.7192059 107.8166930
  60.2943411 120.4212752 114.5661758  60.6492798 120.6484225 115.4256224
  60.9415542 120.7531129 113.9439013  66.0241148 123.5431188 105.2711087
  65.8859046 123.7332784 104.3432276  65.6677366 124.3050571 105.7279138
  54.1883274 117.5289283 111.3508099  54.8282653 117.3878042 110.6531062
  53.3560804 117.2423796 110.9746701  66.0510527 125.6107715 110.2822358
  66.4847034 125.5183004 111.1305412  66.7642108 125.5865215 109.6442374
  54.9643578 126.8291713 107.4643091  55.7584176 126.3342034 107.2625666
  54.2535270 126.3009577 107.1010797  59.7838422 129.2109809 111.8155459
  59.8375444 129.7800745 112.5833175  58.9153203 129.3811694 111.4509496
  51.2726341 120.9734795 103.5402844  50.3423929 120.9119251 103.7572806
  51.3683813 120.4510748 102.7439485  51.1911890 117.4989608 106.1281086
  51.4518707 118.4134941 106.0190246  52.0129062 117.0314051 106.2777699
  52.6636815 118.9127365 113.2979910  53.3359869 118.7044727 112.6492559
  51.8366602 118.7149451 112.8585143  66.9126077 125.6531416 112.8155244
  67.1061967 126.5577226 113.0614519  66.8126695 125.1938835 113.6493829
  58.5662387 115.5389306 115.3145571  57.9190302 116.2379256 115.2210048
  59.3363403 115.9725450 115.6821819  61.9741185 125.8038158 118.3896124
  61.8226692 125.5748710 117.4726208  61.9645865 126.7608760 118.4027469
  58.7426522 123.3770071 113.3742391  59.6718582 123.5281231 113.2011358
  58.3217552 123.4654092 112.5191037  57.5414854 127.4020735 111.1440929
  57.4025939 127.0339520 112.0166867  56.7529450 127.9168375 110.9724886
  58.1363006 132.5029832 102.4866465  58.3114761 132.0317875 103.3012088
  57.4495794 133.1295598 102.7147726  59.0920069 126.7802338 108.5329766
  58.7569901 126.7403108 109.4287416  58.5924014 126.1147054 108.0600177
  53.0664313 122.1869968 114.0582347  52.9284111 121.4550207 114.6593887
  53.9769236 122.0978868 113.7766535  62.0279260 124.1258372  98.8066826
  61.4108431 123.4005201  98.7099879  61.5595749 124.8867733  98.4633900
  55.6946613 121.8989927 113.5466027  56.4046232 121.2583120 113.5052646
  55.6515922 122.1502822 114.4692208  63.6833392 128.8357281 116.4672606
  63.6245938 128.1516501 115.8003189  64.0852910 129.5776271 116.0153232
  54.4075547 118.8855145 115.3661667  53.8712904 118.4345884 116.0183263
  53.8192256 119.0201054 114.6232131  53.8177806 118.3443797  97.9288130
  52.9407273 118.2232598  97.5650377  54.2935559 117.5529875  97.6767019
  63.6850799 126.7996865 114.6986586  62.7977578 126.4622787 114.8212985
  64.2549350 126.0679896 114.9355351  45.3379946 123.1320957 108.0229637
  46.0250986 122.8182687 107.4350653  45.1828075 124.0362321 107.7496889
  50.1414669 118.0211153 112.4514661  50.0572857 117.4136823 111.7165071
  49.3197375 118.5120171 112.4524157  57.2151953 131.4598317 111.6647829
  57.1422124 132.2653289 112.1767134  56.7729346 131.6590283 110.8395851
  57.0041732 130.6970087 105.1750651  56.2209254 131.2391767 105.2688875
  57.7034477 131.2144067 105.5744892  60.3138382 116.5064717 107.8184856
  60.8107082 115.7534679 107.4985926  59.5425364 116.5429033 107.2528065
  68.1668140 122.2105082 109.4603148  68.1558016 123.0929798 109.0897081
  67.2985519 121.8576633 109.2657685  59.6750636 131.3585151 113.8205988
  60.3878608 131.9932616 113.7481889  59.1840665 131.4549017 113.0045990
  61.3968163 125.2636404 105.3923280  60.4624442 125.3837866 105.2227984
  61.5744832 124.3608871 105.1283289  56.8973351 118.6482100 107.5456541
  56.5271139 118.0953140 108.2337446  57.3932444 118.0440233 106.9931541
  64.7840714 121.1053723 105.9273314  65.2501167 121.9381715 105.8533616
  65.2348215 120.6398705 106.6318572  54.7262550 129.1079595 114.6411559
  55.4272009 129.7416078 114.7940953  54.2557665 129.4494326 113.8807198
  62.8516946 127.4497544 102.9259466  63.1276789 127.3354139 103.8353340
  61.9821444 127.0515029 102.8871639  62.7557377 113.4734310 109.9664215
  61.8420457 113.7038537 110.1346422  63.1850479 113.5572754 110.8178247
  62.5263836 121.6624202 112.4664109  61.8735286 121.9100110 111.8116562
  62.9044216 120.8488340 112.1326586  59.4871010 131.6983895 106.5692279
  59.6693404 130.8805551 107.0320032  60.3103996 131.9151587 106.1317169
  59.8213175 130.6252080 103.8307328  60.3500942 130.1144535 103.2177490
  60.0841395 130.3094611 104.6952861  58.5751409 122.4044013 118.9530146
  57.8992046 122.3038142 119.6232521  59.3979043 122.2483227 119.4166143
  50.3230268 128.6415950 111.5742661  50.9083705 127.8959638 111.7070566
  50.1255106 128.9519906 112.4579325  53.1768923 131.6767197 106.5905104
  52.5079298 132.1613325 106.1069144  53.0381793 131.9236417 107.5048482
  44.9147923 121.2121550 110.2947105  44.9532022 120.6785141 111.0884223
  44.4088215 120.6856755 109.6758082  57.3174192 133.7110941 113.1887762
  57.8692500 133.8742562 113.9536847  57.6580385 134.3015378 112.5167787
  52.2938685 116.0586090 113.7909647  52.3580011 116.9200921 113.3787045
  52.2305805 115.4460092 113.0582005  51.7690957 118.1309223 117.4382681
  52.3962996 117.7486300 118.0520205  50.9118876 117.9123425 117.8038374
  62.1685066 128.5372198 119.0436417  62.7124970 129.1502156 118.5491371
  61.5871911 129.0951776 119.5603430  48.5456500 119.9385652 103.3701036
  48.8409941 119.0296330 103.3168090  47.6444536 119.9173391 103.0482038
  60.4542579 131.6592916 110.1751444  60.3293718 130.8582656 109.6662390
  61.1121670 132.1539109 109.6865414  52.0750747 118.0141649 109.3528585
  51.3537333 118.6277616 109.2136058  52.8644003 118.5499413 109.2745230
  62.5177487 129.4601936 111.8030994  61.5707823 129.3407287 111.7309321
  62.8660260 128.5724434 111.8857256  54.8777061 115.3496075 115.6269236
  55.4011462 115.5958372 116.3895546  54.6589394 116.1816110 115.2072374
  50.2744342 117.6199750 103.4940361  49.9457048 116.7397129 103.3115467
  50.6283712 117.5647418 104.3816750  59.5223921 129.2554652 108.0035347
  59.3748883 128.3271360 108.1842917  60.3477414 129.2774743 107.5192422
  53.3886165 117.9072719 103.8615839  53.7282237 118.4358641 103.1394447
  53.8358285 118.2453126 104.6374405  63.1258042 130.0783211 109.0900219
  64.0504590 129.8726072 108.9524670  62.9573346 129.8299612 109.9989561
  56.0829606 116.2909770 113.3118907  55.7426426 115.4917583 113.7139587
  55.3768612 116.5911481 112.7395740  56.7346078 113.3759083 111.7646230
  57.5572147 112.9019561 111.6425120  56.9784141 114.1549566 112.2644916
  55.3754312 116.4047341 102.0609131  56.0962675 116.7828594 101.5572848
  54.7519616 117.1236218 102.1644109  59.5185435 117.1092490 102.9967464
  59.7349049 117.9917128 102.6956292  59.0379502 116.7178703 102.2673106
  54.2584656 120.0678203 109.5738208  54.1129237 120.3818506 110.4662490
  53.7809860 120.6863104 109.0209107  56.1181039 117.0580751 109.6219098
  56.1042608 116.1621845 109.2851396  56.8353467 117.0651415 110.2557384
  57.9707170 117.4918091 111.6672225  57.7124948 118.4135162 111.6656556
  57.4392210 117.0948526 112.3572690  62.9153359 130.5968879 104.4462311
  63.0890236 130.0315301 103.6936163  63.4082250 131.3969773 104.2641801
  48.7330318 122.6083548 112.5125870  48.1883787 123.3843356 112.6446144
  49.6109668 122.9554352 112.3544991  55.5217935 115.9395132 104.8906668
  55.6433846 115.0111778 105.0897556  55.2319977 115.9533818 103.9784984
  58.3909125 113.6250042 108.0273388  58.4130822 113.6889375 107.0725368
  58.8077184 112.7854551 108.2213894  68.7692750 123.3605302 106.0652611
  69.2123896 122.6112627 105.6671734  67.8919260 123.3515438 105.6826343
  63.9028531 129.9135643 101.5459209  64.5979436 130.5342336 101.7646524
  64.2451681 129.0630994 101.8211587  49.5196340 121.7353444 115.4056026
  48.7778076 121.8836079 115.9920657  49.1989085 121.9961710 114.5422776
  65.8019954 127.3635349 103.0746540  66.3271278 127.7022621 102.3495860
  65.7142307 126.4282364 102.8909674  57.4640003 131.2769422 115.2036416
  57.7727129 131.0318569 116.0759116  58.2615485 131.4816061 114.7155287
  57.4860615 133.4307332 107.4341793  57.0465605 132.9383710 108.1274650
  58.2368732 132.8880299 107.1933868  49.9652954 129.6218873 107.4366421
  50.7910974 129.3222645 107.0565065  49.6147006 128.8526495 107.8856210
  54.9334487 128.9745341 109.5064095  54.3114496 128.3116046 109.2066323
  55.6039354 129.0006473 108.8237742  48.1661559 127.5405199 108.3955355
  47.3293467 127.1127373 108.2139356  48.1385204 127.7337642 109.3326146
  55.0059015 117.4527129 119.0996601  55.0547170 118.3289252 118.7174370
  55.5481529 116.9104522 118.5268244  65.4913860 127.9968252 118.3797738
  64.7009404 127.9792391 117.8402237  65.2547215 128.5356546 119.1346774
  65.6111735 124.8460719 115.6930466  65.6609740 124.6810726 116.6345989
  65.5025659 123.9787978 115.3028347  54.4947994 127.5249264 102.9822555
  54.6436114 128.2084729 102.3289228  55.3014438 127.5054354 103.4972011
  62.9015498 120.8291647 117.0089773  63.8025360 120.6898111 116.7173771
  62.9763472 120.9946101 117.9487950  57.2358303 118.2058501 115.8542959
  56.3661612 118.4992067 115.5825548  57.4717783 118.7898946 116.5750223
  67.1129932 127.2657660 115.9372488  66.8214740 127.6287641 116.7735949
  66.5002063 126.5524668 115.7585820  68.3125614 124.8310540 108.4575058
  69.1472506 125.2700344 108.6212618  68.4484743 124.3549193 107.6383304
  65.3617120 122.3890275 114.4052546  65.8371242 122.5817921 113.5971397
  64.4382686 122.4449461 114.1595930  52.2500627 123.5514442 103.9883624
  52.0046669 122.6476772 104.1863834  52.4196542 123.5531592 103.0463102
  59.9397337 114.4238118 113.3708380  60.4579281 115.1599145 113.0454868
  59.5852470 114.7302112 114.2055139  51.5196275 119.2842799 101.4869786
  50.8265519 119.3587154 100.8309822  51.2748026 118.5203143 102.0091303
  60.1909931 110.8438401 108.8909276  60.4711685 110.1761590 109.5169703
  60.9760538 111.0367496 108.3783940  57.9943400 130.0197395 100.4534303
  57.4217367 130.6387582 100.0004775  58.5676193 130.5696756 100.9874225
  64.0618789 119.2656035 112.6380851  65.0136212 119.3654132 112.6593076
  63.8922240 118.4734303 113.1478936  62.0833169 116.3511618 112.8240252
  61.4883101 116.6316631 112.1286741  61.7982866 116.8405519 113.5956993
  61.2140659 130.3034545 101.5842885  62.1471333 130.2380106 101.7875760
  61.1263872 131.1390812 101.1257418  63.8428676 129.6200415  98.5446833
  63.7642308 129.2860279  99.4382590  64.6638343 130.1122183  98.5438305
  66.5406867 122.4862154 111.7523151  66.5083187 121.5478155 111.9382835
  67.1507491 122.5646191 111.0188976  58.3790198 121.3558207  97.7950355
  59.3249303 121.2264416  97.8638773  58.0004443 120.6172869  98.2719783
  66.6901356 119.2773198 111.7981434  66.1740404 118.4931655 111.6111363
  67.5741304 118.9491914 111.9627954  64.3512083 113.0214213 107.7577247
  64.1536904 112.7129302 108.6420579  64.9611788 113.7475852 107.8875177
  72.3583417 123.5478161 110.8929188  73.0886806 123.2863449 111.4536891
  71.7490363 122.8106883 110.9331256  70.4398714 121.6886024 111.4903639
  69.7131878 121.5541989 110.8820131  70.0246001 121.9962852 112.2960357
  58.2628891 125.4075954 119.2551012  59.1831900 125.5854553 119.4491059
  58.2278474 124.4631999 119.1030711  56.5633115 119.2808184  97.7305240
  55.6564571 118.9841297  97.8067954  56.8409096 118.9838002  96.8639527
  47.4811056 120.6014547 108.1804287  47.1613840 119.7479855 107.8878661
  46.9344484 120.8163125 108.9362254  51.2590963 123.3176988 111.8973793
  51.4776973 124.2494096 111.9161827  51.6716737 122.9584963 112.6828597
  58.1795181 113.8245074 103.8849482  57.3695909 113.4792158 104.2604728
  58.8679598 113.5152617 104.4737093  60.1085729 112.9023120 105.5073778
  60.6616768 113.3218574 106.1663801  60.3455816 111.9758868 105.5496734
  56.1318828 118.8910194 121.2876542  56.0315555 119.8404551 121.2188633
  55.9140371 118.5628433 120.4152612  55.3331900 116.1395119  97.8717220
  56.1951064 116.4650017  98.1313037  55.5182244 115.3526615  97.3590285
  47.3499316 124.2217459 110.1497408  46.6562787 123.8071412 109.6367363
  48.0972307 124.2637995 109.5530827  63.4864536 115.0123645 105.0152443
  62.9063205 115.6708450 104.6330495  63.2200469 114.1900990 104.6039860
  61.9368103 114.4128703 107.2173763  62.4367881 114.5245238 106.4088082
  62.5803711 114.1089756 107.8574571  55.9950099 122.3207333 120.1041604
  55.5117180 123.1207693 120.3105493  56.0811038 122.3315278 119.1509048
  49.2636058 124.1535712 108.0263423  49.2406746 124.2523400 107.0745306
  49.5736695 125.0000863 108.3480589  51.9223436 126.2111868 112.1410038
  52.8766690 126.1795810 112.0739969  51.7235960 125.7502491 112.9560264
  52.5122818 124.7812984 114.7080835  53.3315707 125.2757062 114.7315673
  52.7859626 123.8644952 114.6798403  62.2689414 117.1723736 104.0708791
  61.3815269 117.4573386 103.8528986  62.6843403 117.0117499 103.2236068
  65.6203950 117.1970257 107.7863130  66.3964341 117.6866709 108.0587747
  64.8952085 117.6228311 108.2435000  68.0576509 117.9097876 108.8437071
  68.6521000 117.6693612 108.1330379  68.1303093 117.1905007 109.4710607
  50.2773665 131.7531487 109.1580236  50.1428133 130.9931888 108.5918234
  49.8605727 132.4772387 108.6909024  61.4132628 126.9368411  98.1656811
  62.1168478 127.1418413  98.7814466  60.6895277 127.5045172  98.4305894
  62.2430438 122.6878272 104.2859081  62.1865639 123.1446823 103.4466713
  62.7958781 121.9268956 104.1081924  66.0535244 118.4768004 105.1109201
  65.7972178 118.0764639 105.9417408  65.4288112 119.1911798 104.9859340
  70.3647582 121.2164077 107.6180492  69.8047140 121.2857266 108.3912054
  69.7591085 121.0405062 106.8979988  53.4342791 132.6500804 109.3698678
  53.3175175 133.5946237 109.2677368  52.6135237 132.3474366 109.7584477
  63.3219325 127.3750940 100.2155271  64.1564929 126.9432138 100.0332746
  63.1603668 127.2032953 101.1432165  62.9765217 123.8783053 101.5811610
  62.9214021 123.7127324 100.6400054  62.3511273 124.5859086 101.7373800
  47.7657732 119.1151117 115.4073032  48.4116596 118.6050071 115.8960258
  47.5574883 119.8519799 115.9816458  60.2911125 126.1831965 120.9065173
  61.1602284 126.3572617 120.5451808  59.8117876 127.0026382 120.7840902
  56.2861343 113.3791162 101.1596929  56.2740013 114.3233002 101.3165199
  57.1784765 113.1961307 100.8656390  54.4597305 133.3029066 112.5854607
  55.3624552 133.3352676 112.9021102  54.2334675 132.3729517 112.6000942
  56.2150907 132.0560052 109.2464685  55.2646538 132.0561914 109.1329058
  56.5183393 131.3092787 108.7300720  60.1013462 109.9733939 105.4142865
  59.3345858 109.4192425 105.5599548  60.5124167 110.0455807 106.2757017
  52.1055223 116.2618735 119.5048047  52.9686685 115.9055539 119.7151371
  51.5320634 115.9232629 120.1923451  71.9503600 137.8920591 110.3110448
  72.5882010 137.7727338 109.6073788  71.8324443 138.8401435 110.3698400
  68.7593307 137.8448019 110.2471972  68.4211818 137.7289084 109.3592507
  69.6283075 137.4439184 110.2272978  64.6180122 139.6983495 106.2368863
  64.0544987 139.6073432 105.4685151  64.5032517 138.8783400 106.7171356
  66.8876558 139.1596831 111.7438721  67.4840130 138.9352853 111.0295684
  66.9451529 138.4181576 112.3464169  66.4601586 136.6136266  99.5788912
  66.7127107 136.0917788  98.8172375  65.5226145 136.4502412  99.6815596
  71.5044869 135.6172045 107.3863656  72.2907958 135.1991468 107.0354073
  71.7683573 136.5218137 107.5545304  71.6754946 141.0544895 102.0852312
  71.0400779 141.1279522 102.7973217  71.3452353 141.6438494 101.4071392
  76.9053296 135.5547278 108.2896634  77.6378468 134.9846495 108.5234464
  76.1492652 135.1668878 108.7303140  66.1797875 138.5164372 101.7813287
  66.0634133 137.8409276 102.4494372  66.2900135 138.0296746 100.9645440
  68.5229416 137.9774519 105.4859977  68.1587623 137.4505140 106.1972898
  69.3796532 137.5872988 105.3126462  68.1634903 133.0064419 100.4821325
  68.3309305 133.8744656 100.8491796  67.9732072 133.1691701  99.5582614
  64.3722717 137.9195195 108.1823860  63.4473214 137.7871409 108.3901552
  64.6207130 138.6989414 108.6793802  74.3207380 133.9863938 109.8284593
  73.4124257 133.9179347 109.5343354  74.2694975 134.4635883 110.6566418
  68.1424123 135.4622077 101.4667992  68.0223749 135.9079127 102.3053472
  67.4476712 135.8107394 100.9081530  61.7331528 137.5628468 109.0167649
  61.8623909 137.8162947 109.9307061  61.0528980 138.1556176 108.6972304
  73.8409190 135.9343550 102.2948326  74.7527046 136.1670937 102.1196024
  73.3318837 136.5180594 101.7323405  68.4781027 135.2940784 113.3043176
  69.3242223 135.7180198 113.4477825  68.4179665 134.6374409 113.9981739
  71.1845164 132.1101586 110.5438187  70.3229643 132.4082839 110.8354924
  71.2107599 132.3271985 109.6119220  68.0006734 140.6543776 106.9511993
  68.4645079 140.9331479 106.1616615  67.7363532 139.7527221 106.7685083
  66.9375620 136.7766929 103.7601558  67.6399663 137.2287972 104.2275484
  66.6056248 136.1350748 104.3881451  60.6800954 135.0350481 109.0618691
  59.8900008 135.2908010 108.5858802  61.1712201 135.8498819 109.1670732
  62.6315699 135.3995061 106.0202168  61.8346863 135.5113755 106.5385664
  62.4041291 135.7381713 105.1543059  58.9638657 135.2880972 111.4933682
  59.2146695 136.1727982 111.7591258  59.4998205 135.1085573 110.7208774
  62.7246023 136.2713698 116.3676504  62.6099538 135.3698955 116.6683603
  61.8690541 136.5177394 116.0161321  71.5261848 127.1138433 112.3662556
  71.1826117 128.0040075 112.2901667  71.8940811 126.9240091 111.5032141
  71.4912131 137.1047044 100.8734992  70.9758754 137.8751649 101.1123379
  71.2189439 136.4312180 101.4968053  69.0759242 131.9496745 105.9320230
  68.2200838 131.5603595 105.7525869  69.4886194 132.0288706 105.0720015
  70.6058388 129.4843088 110.3311790  70.1023184 129.4473224 109.5179595
  70.8988995 130.3935831 110.3908446  66.8501274 129.5681818 109.3377971
  67.7154271 129.3724627 108.9783861  66.9178783 129.3392170 110.2647328
  76.4646405 139.8579399 102.8088165  75.6875848 139.5190558 102.3643327
  77.1437886 139.8632022 102.1343130  71.2798434 134.9774136 102.6994773
  70.9748570 135.2920286 103.5504916  72.2328876 135.0555556 102.7422106
  64.4563593 131.7984026 106.7094338  65.0307345 131.5759207 105.9767531
  65.0434576 131.8672720 107.4622940  73.5143171 137.6857753 107.5158715
  74.0275052 138.3187745 108.0180424  74.1644395 137.0858948 107.1502075
  64.7833181 133.8288487 100.7290223  63.9470493 134.1663174 101.0499498
  64.6437950 133.6937467  99.7917360  66.7586261 128.6725275 105.4369408
  66.1050673 128.3574292 104.8126022  66.7166735 128.0501015 106.1629231
  67.8697466 138.9544570  97.3522700  66.9624528 138.7233823  97.5513849
  68.3668498 138.1582189  97.5396681  69.9924002 135.1607208 109.7617055
  69.0746563 135.3822155 109.6038743  70.4084145 135.2353519 108.9028763
  70.7759049 136.5598624 104.8919736  71.5230868 137.0720021 104.5826858
  71.0450639 136.2382677 105.7524129  69.0485699 139.0557165 101.8746690
  68.1396919 138.7716198 101.9719160  69.0780783 139.4756243 101.0149997
  74.2804967 142.6663754 105.6437857  73.8267294 141.8254664 105.7003048
  73.6498934 143.3025153 105.9812638  73.2237886 133.5955740 106.8738525
  72.4860643 133.0833127 107.2048767  73.4764660 133.1556122 106.0621802
  73.3249514 126.3731992 107.4680294  73.6308391 125.5129356 107.1806209
  74.0502119 126.9649613 107.2679288  59.6173870 136.7762679 105.8561892
  59.4198270 136.1832040 105.1312959  59.0620534 136.4714889 106.5737831
  67.5970593 136.6685785 107.9756485  67.6519203 135.7159622 107.8998962
  66.7861796 136.8245225 108.4597784  68.7461787 140.5965909  99.2134768
  68.3081217 139.8801767  98.7540406  69.4872228 140.8242023  98.6519860
  65.5362953 135.2862845 105.7346864  64.7230819 135.5857016 106.1412056
  66.0321948 134.8918534 106.4521346  76.8634902 138.8723106 105.2711087
  76.7252801 139.0624702 104.3432276  76.5071121 139.6342488 105.7279138
  65.0277028 132.8581201 111.3508099  65.6676407 132.7169960 110.6531062
  64.1954559 132.5715714 110.9746701  62.1120096 136.3026713 103.5402844
  61.1817684 136.2411168 103.7572806  62.2077568 135.7802666 102.7439485
  62.0305645 132.8281526 106.1281086  62.2912462 133.7426859 106.0190246
  62.8522817 132.3605968 106.2777699  63.5030570 134.2419283 113.2979910
  64.1753623 134.0336645 112.6492559  62.6760356 134.0441369 112.8585143
  69.4056142 130.8681224 115.3145571  68.7584057 131.5671173 115.2210048
  70.1757157 131.3017368 115.6821819  63.9058067 137.5161886 114.0582347
  63.7677865 136.7842125 114.6593887  64.8162991 137.4270786 113.7766535
  72.8673015 139.4550290  98.8066826  72.2502185 138.7297118  98.7099879
  72.3989503 140.2159650  98.4633900  66.5340368 137.2281845 113.5466027
  67.2439986 136.5875037 113.5052646  66.4909676 137.4794740 114.4692208
  65.2469302 134.2147063 115.3661667  64.7106659 133.7637802 116.0183263
  64.6586010 134.3492972 114.6232131  64.6571561 133.6735714  97.9288130
  63.7801027 133.5524515  97.5650377  65.1329314 132.8821793  97.6767019
  60.9808423 133.3503071 112.4514661  60.8966612 132.7428740 111.7165071
  60.1591129 133.8412089 112.4524157  71.1532137 131.8356634 107.8184856
  71.6500836 131.0826597 107.4985926  70.3819118 131.8720951 107.2528065
  72.2361918 140.5928322 105.3923280  71.3018196 140.7129784 105.2227984
  72.4138586 139.6900788 105.1283289  67.7367106 133.9774017 107.5456541
  67.3664893 133.4245058 108.2337446  68.2326198 133.3732151 106.9931541
  75.6234469 136.4345641 105.9273314  76.0894921 137.2673632 105.8533616
  76.0741969 135.9690622 106.6318572  73.6910700 142.7789462 102.9259466
  73.9670544 142.6646057 103.8353340  72.8215199 142.3806947 102.8871639
  55.7541677 136.5413468 110.2947105  55.7925777 136.0077058 111.0884223
  55.2481970 136.0148673 109.6758082  63.1332439 131.3878008 113.7909647
  63.1973766 132.2492839 113.3787045  63.0699560 130.7752010 113.0582005
  62.6084712 133.4601141 117.4382681  63.2356751 133.0778218 118.0520205
  61.7512631 133.2415343 117.8038374  59.3850255 135.2677570 103.3701036
  59.6803696 134.3588248 103.3168090  58.4838290 135.2465309 103.0482038
  62.9144502 133.3433566 109.3528585  62.1931087 133.9569534 109.2136058
  63.7037757 133.8791331 109.2745230  65.7170815 130.6787993 115.6269236
  66.2405217 130.9250289 116.3895546  65.4983148 131.5108028 115.2072374
  61.1138096 132.9491667 103.4940361  60.7850802 132.0689046 103.3115467
  61.4677467 132.8939336 104.3816750  64.2279919 133.2364637 103.8615839
  64.5675992 133.7650558 103.1394447  64.6752040 133.5745043 104.6374405
  66.9223360 131.6201688 113.3118907  66.5820181 130.8209501 113.7139587
  66.2162366 131.9203399 112.7395740  67.5739832 128.7051000 111.7646230
  68.3965901 128.2311478 111.6425120  67.8177896 129.4841484 112.2644916
  66.2148066 131.7339259 102.0609131  66.9356429 132.1120512 101.5572848
  65.5913371 132.4528136 102.1644109  70.3579189 132.4384408 102.9967464
  70.5742804 133.3209046 102.6956292  69.8773257 132.0470621 102.2673106
  65.0978411 135.3970121 109.5738208  64.9522991 135.7110424 110.4662490
  64.6203614 136.0155021 109.0209107  66.9574794 132.3872669 109.6219098
  66.9436362 131.4913762 109.2851396  67.6747222 132.3943333 110.2557384
  68.8100924 132.8210009 111.6672225  68.5518702 133.7427080 111.6656556
  68.2785965 132.4240444 112.3572690  66.3611690 131.2687049 104.8906668
  66.4827601 130.3403695 105.0897556  66.0713732 131.2825735 103.9784984
  69.2302880 128.9541960 108.0273388  69.2524577 129.0181293 107.0725368
  69.6470939 128.1146468 108.2213894  79.6086504 138.6897219 106.0652611
  80.0517650 137.9404544 105.6671734  78.7313015 138.6807356 105.6826343
  60.3590095 137.0645362 115.4056026  59.6171831 137.2127997 115.9920657
  60.0382839 137.3253627 114.5422776  76.6413709 142.6927266 103.0746540
  77.1665033 143.0314539 102.3495860  76.5536061 141.7574282 102.8909674
  63.0894382 138.8806360 103.9883624  62.8440423 137.9768690 104.1863834
  63.2590296 138.8823510 103.0463102  70.7791091 129.7530036 113.3708380
  71.2973035 130.4891063 113.0454868  70.4246224 130.0594029 114.2055139
  62.3590029 134.6134717 101.4869786  61.6659274 134.6879072 100.8309822
  62.1141781 133.8495061 102.0091303  71.0303686 126.1730318 108.8909276
  71.3105439 125.5053508 109.5169703  71.8154292 126.3659414 108.3783940
  72.9226923 131.6803536 112.8240252  72.3276855 131.9608548 112.1286741
  72.6376620 132.1697437 113.5956993  69.2183953 136.6850125  97.7950355
  70.1643057 136.5556333  97.8638773  68.8398198 135.9464787  98.2719783
  67.4026870 134.6100101  97.7305240  66.4958325 134.3133214  97.8067954
  67.6802851 134.3129920  96.8639527  58.3204810 135.9306465 108.1804287
  58.0007594 135.0771773 107.8878661  57.7738238 136.1455043 108.9362254
  69.0188935 129.1536991 103.8849482  68.2089664 128.8084076 104.2604728
  69.7073352 128.8444535 104.4737093  70.9479484 128.2315038 105.5073778
  71.5010522 128.6510491 106.1663801  71.1849570 127.3050786 105.5496734
  66.1725654 131.4687037  97.8717220  67.0344818 131.7941935  98.1313037
  66.3575998 130.6818533  97.3590285  74.3258291 130.3415563 105.0152443
  73.7456960 131.0000367 104.6330495  74.0594223 129.5192908 104.6039860
  72.7761857 129.7420621 107.2173763  73.2761636 129.8537155 106.4088082
  73.4197465 129.4381674 107.8574571  73.1083169 132.5015654 104.0708791
  72.2209024 132.7865304 103.8528986  73.5237158 132.3409417 103.2236068
  76.4597705 132.5262175 107.7863130  77.2358095 133.0158627 108.0587747
  75.7345839 132.9520229 108.2435000  78.8970264 133.2389794 108.8437071
  79.4914754 132.9985530 108.1330379  78.9696847 132.5196924 109.4710607
  73.0824193 138.0170189 104.2859081  73.0259394 138.4738741 103.4466713
  73.6352535 137.2560874 104.1081924  76.8928998 133.8059921 105.1109201
  76.6365933 133.4056557 105.9417408  76.2681867 134.5203715 104.9859340
  81.2041336 136.5455995 107.6180492  80.6440894 136.6149184 108.3912054
  80.5984840 136.3696979 106.8979988  74.1613080 142.7042857 100.2155271
  74.9958684 142.2724056 100.0332746  73.9997423 142.5324871 101.1432165
  73.8158972 139.2074971 101.5811610  73.7607776 139.0419242 100.6400054
  73.1905027 139.9151004 101.7373800  58.6051487 134.4443035 115.4073032
  59.2510350 133.9341989 115.8960258  58.3968638 135.1811717 115.9816458
  67.1255097 128.7083080 101.1596929  67.1133767 129.6524920 101.3165199
  68.0178519 128.5253225 100.8656390  70.9407217 125.3025856 105.4142865
  70.1739613 124.7484343 105.5599548  71.3517922 125.3747725 106.2757017
  77.5980016 144.0017193 105.4369408  76.9444428 143.6866210 104.8126022
  77.5560490 143.3792933 106.1629231  79.8582690 144.4828909 103.8849482
  79.0483418 144.1375994 104.2604728  80.5467107 144.1736453 104.4737093
  81.7800971 140.6317774 105.4142865  81.0133367 140.0776261 105.5599548
  82.1911676 140.7039643 106.2757017   6.9141075  22.9231207  97.0355754
   7.5519485  22.8037955  96.3319094   6.7961918  23.8712051  97.0943706
   3.7230781  22.8758636  96.9717279   3.3849292  22.7599700  96.0837814
   4.5920549  22.4749801  96.9518285   5.1617155  28.3965080  88.2728635
   4.5105135  28.9819160  87.8862649   5.9561518  28.9271275  88.3323672
   1.8514032  24.1907448  98.4684028   2.4477604  23.9663470  97.7540991
   1.9089003  23.4492193  99.0709476   1.4239060  21.6446883  86.3034219
   1.6764581  21.1228404  85.5417682   0.4863619  21.4813028  86.4060903
   6.4682343  20.6482661  94.1108962   7.2545432  20.2302084  93.7599379
   6.7321047  21.5528753  94.2790611   6.6392420  26.0855512  88.8097619
   6.0038253  26.1590138  89.5218524   6.3089827  26.6749110  88.1316698
  11.8690770  20.5857894  95.0141941  12.6015942  20.0157111  95.2479770
  11.1130126  20.1979495  95.4548446   1.1435349  23.5474989  88.5058594
   1.0271607  22.8719892  89.1739678   1.2537609  23.0607363  87.6890747
   3.4866890  23.0085136  92.2105283   3.1225097  22.4815757  92.9218205
   4.3434006  22.6183605  92.0371769   5.8847710  26.4992015  98.8732462
   5.5848433  27.4017053  98.7648269   5.5398770  26.2324198  99.7253615
   9.2844854  19.0174555  96.5529899   8.3761731  18.9489963  96.2588660
   9.2332450  19.4946500  97.3811725   3.1061598  20.4932693  88.1913299
   2.9861223  20.9389744  89.0298779   2.4114186  20.8418011  87.6326837
  11.1506500  17.2190993  98.3307773  10.5080881  17.5123526  97.6847568
  10.6461429  17.1043913  99.1360970   8.8046664  20.9654166  89.0193633
   9.7164520  21.1981553  88.8441330   8.2956311  21.5491211  88.4568711
   7.4116246  25.9479985  96.4107214   6.7825109  26.1125699  95.7083282
   7.0241908  26.3621594  97.1818178  11.2905478  26.8834423  93.7651578
  10.6056516  27.2633324  93.2148611  11.3749327  27.4929749  94.4983526
   8.5456410  24.5294382 100.3646921   8.7573305  25.1726142  99.6881302
   8.4986158  23.6956698  99.8968851   2.9644208  25.6854393  93.6757299
   3.4282554  25.9642096  92.8861922   2.7001006  24.7837837  93.4930390
   1.9013094  21.8077545  90.4846864   2.6037138  22.2598589  90.9520791
   1.5693723  21.1661364  91.1126757   9.6602238  27.4066337  98.5369279
  10.4819681  27.0046524  98.2551960   9.6564641  27.3034571  99.4885395
   3.4258841  26.9550380 100.6929989   3.4903274  27.4170788 101.5288161
   2.7169765  26.3247745 100.8212299  17.7508231  23.7505086  94.8854250
  16.9971939  23.1812484  94.7298255  17.8855772  23.7167750  95.8324885
   3.1406859  28.6218488  90.5608970   3.0052534  29.4670024  90.9893817
   3.6816671  28.8237765  89.7974903   6.8656573  29.5244854 102.7190713
   6.8475049  30.3453735 102.2270982   7.7876493  29.3998930 102.9440854
   6.4549605  22.1357661  87.5980298   5.9396229  22.9062265  87.8368686
   6.1826914  21.4622797  88.2213360  11.4283879  24.8890015  89.5333472
  10.6513322  24.5501175  89.0888634  12.1075360  24.8942639  88.8588437
   6.2435908  20.0084753  89.4240079   5.9386044  20.3230902  90.2750223
   7.1966350  20.0866173  89.4667412   4.6882340  26.1674976  91.0733033
   4.1603702  25.4327736  90.7606271   4.1869843  26.9449653  90.8273002
   9.6675186  24.3623997  96.1900080   9.0098861  25.0523258  96.2780208
  10.4715585  24.7520429  96.5334066   8.4780645  22.7168369  94.2404021
   8.9912527  23.3498361  94.7425731   9.1281869  22.1169565  93.8747381
   2.8334940  23.9855187  84.0768006   1.9262002  23.7544440  84.2759155
   3.3305972  23.1892806  84.2641988   5.7403019  32.6952694  86.9964693
   5.0664718  32.9984390  87.6049650   6.1268841  33.4981774  86.6470150
   4.9561476  20.1917825  96.4862362   4.0384037  20.4132772  96.3284050
   5.3721619  20.2664135  95.6274069   5.7396524  21.5909241  91.6165042
   6.4868343  22.1030638  91.3072164   6.0088113  21.2693293  92.4769436
   4.0123174  24.0867781  88.5991996   3.1034393  23.8026814  88.6964466
   4.0418258  24.5066860  87.7395303   9.2442441  27.6974371  92.3683164
   8.7904768  26.8565281  92.4248354   8.6136408  28.3335769  92.7057944
   8.1875361  18.6266357  93.5983831   7.4498118  18.1143743  93.9294074
   8.4402134  18.1866739  92.7867108   7.6875380  29.5350868  93.3032982
   7.9798355  30.0955925  92.5845348   8.1974001  29.8279429  94.0586141
   2.5608068  21.6996402  94.7001792   2.6156678  20.7470238  94.6244268
   1.7499270  21.8555841  95.1843090   3.7099262  25.6276525  85.9380075
   3.2718691  24.9112384  85.4785712   4.4509702  25.8552640  85.3765166
   2.6509006  30.3131219  94.3926435   2.6085184  30.5392065  93.4634967
   3.5671704  30.0794593  94.5412236  11.8272376  23.9033722  91.9956394
  11.6890275  24.0935318  91.0677583  11.4708595  24.6653105  92.4524445
  11.8541756  25.9710249  97.0067665  12.2878263  25.8785538  97.8550719
  12.5673337  25.9467750  96.3687681   5.5869651  29.5712343  98.5400766
   5.6406673  30.1403280  99.3078482   4.7184432  29.7414228  98.1754803
  12.7157306  26.0133950  99.5400550  12.9093196  26.9179760  99.7859825
  12.6157924  25.5541369 100.3739136   4.5457751  23.7372605 100.0987698
   5.4749811  23.8883765  99.9256665   4.1248781  23.8256626  99.2436344
   3.3446082  27.7623270  97.8686235   3.2057168  27.3942054  98.7412173
   2.5560679  28.2770909  97.6970193   3.9394234  32.8632366  89.2111772
   4.1145990  32.3920409  90.0257394   3.2527022  33.4898132  89.4393032
   4.8951298  27.1404872  95.2575073   4.5601130  27.1005642  96.1532723
   4.3955243  26.4749588  94.7845483   7.8310489  24.4860907  85.5312133
   7.2139660  23.7607735  85.4345185   7.3626978  25.2470267  85.1879207
   9.4864621  29.1959815 103.1917913   9.4277167  28.5119035 102.5248496
   9.8884139  29.9378805 102.7398539   9.4882028  27.1599399 101.4231893
   8.6008807  26.8225321 101.5458292  10.0580579  26.4282430 101.6600658
   3.0183182  31.8200851  98.3893136   2.9453353  32.6255823  98.9012440
   2.5760575  32.0192817  97.5641157   2.8072961  31.0572621  91.8995957
   2.0240483  31.5994302  91.9934182   3.5065706  31.5746601  92.2990199
  13.9699369  22.5707616  96.1848454  13.9589245  23.4532332  95.8142387
  13.1016748  22.2179167  95.9902991   5.4781865  31.7187685 100.5451294
   6.1909837  32.3535150 100.4727196   4.9871894  31.8151551  99.7291296
   7.1999392  25.6238938  92.1168586   6.2655671  25.7440401  91.9473290
   7.3776060  24.7211405  91.8528596  10.5871943  21.4656257  92.6518620
  11.0532395  22.2984249  92.5778923  11.0379444  21.0001239  93.3563879
   8.6548174  27.8100079  89.6504772   8.9308018  27.6956673  90.5598646
   7.7852673  27.4117563  89.6116945   8.3295065  22.0226736  99.1909416
   7.6766515  22.2702644  98.5361868   8.7075444  21.2090874  98.8571893
   5.2902238  32.0586429  93.2937586   5.4724633  31.2408085  93.7565338
   6.1135224  32.2754122  92.8562476   5.6244404  30.9854615  90.5552634
   6.1532170  30.4747069  89.9422797   5.8872623  30.6697145  91.4198167
   3.1205420  34.0713475  99.9133069   3.6723728  34.2345096 100.6782154
   3.4611614  34.6617913  99.2413094   6.2573808  32.0195450  96.8996751
   6.1324947  31.2185190  96.3907696   6.9152899  32.5141644  96.4110721
   8.3208716  29.8204470  98.5276301   7.3739052  29.7009822  98.4554628
   8.6691489  28.9326968  98.6102562   5.3255149  29.6157187  94.7280653
   5.1780112  28.6873894  94.9088223   6.1508643  29.6377277  94.2437728
   8.9289271  30.4385745  95.8145526   9.8535819  30.2328607  95.6769977
   8.7604575  30.1902147  96.7234867   8.7184587  30.9571413  91.1707617
   8.8921465  30.3917835  90.4181470   9.2113479  31.7572308  90.9887107
  14.5723979  23.7207836  92.7897917  15.0155125  22.9715161  92.3917040
  13.6950489  23.7117972  92.4071649   9.7059760  30.2738177  88.2704516
  10.4010665  30.8944870  88.4891830  10.0482910  29.4233528  88.5456894
  11.6051183  27.7237883  89.7991846  12.1302507  28.0625155  89.0741166
  11.5173536  26.7884898  89.6154981   3.2671232  31.6371956 101.9281723
   3.5758358  31.3921103 102.8004423   4.0646714  31.8418595 101.4400593
   3.2891844  33.7909866  94.1587100   2.8496834  33.2986245  94.8519956
   4.0399961  33.2482834  93.9179175  11.2945089  28.3570786 105.1043044
  10.5040633  28.3394925 104.5647544  11.0578444  28.8959080 105.8592081
  11.4142964  25.2063253 102.4175773  11.4640969  25.0413260 103.3591296
  11.3056888  24.3390512 102.0273654  12.9161161  27.6260194 102.6617795
  12.6245969  27.9890175 103.4981255  12.3033292  26.9127203 102.4831127
  14.1156843  25.1913074  95.1820365  14.9503735  25.6302878  95.3457925
  14.2515972  24.7151727  94.3628611  11.1648349  22.7492809 101.1297852
  11.6402471  22.9420455 100.3216704  10.2413915  22.8051995 100.8841236
   3.7974628  30.3799929  87.1779609   3.2248595  30.9990116  86.7250081
   4.3707422  30.9299291  87.7119531   9.8650018  19.6258569  99.3626158
  10.8167441  19.7256667  99.3838382   9.6953469  18.8336838  99.8724242
   7.0171888  30.6637079  88.3088192   7.9502561  30.5982641  88.5121067
   6.9295101  31.4993346  87.8502724   9.6459905  29.9802949  85.2692139
   9.5673536  29.6462813  86.1627897  10.4669572  30.4724717  85.2683611
  12.3438096  22.8464689  98.4768458  12.3114416  21.9080689  98.6628142
  12.9538720  22.9248725  97.7434283   4.1821427  21.7160742  84.5195662
   5.1280532  21.5866950  84.5884080   3.8035672  20.9775404  84.9965090
  12.4932585  19.6375732  98.5226741  11.9771633  18.8534189  98.3356670
  13.3772533  19.3094449  98.6873260  18.1614646  23.9080696  97.6174495
  18.8918034  23.6465984  98.1782198  17.5521591  23.1709417  97.6576563
  16.2429943  22.0488558  98.2148946  15.5163107  21.9144523  97.6065437
  15.8277230  22.3565387  99.0205664   9.2895765  15.3726180  91.7397749
   8.7094434  16.0310984  91.3575802   9.0231698  14.5503524  91.3285167
   8.0720643  17.5326270  90.7954097   7.1846498  17.8175921  90.5774292
   8.4874632  17.3720033  89.9481374  11.4235179  17.5572791  94.5108437
  12.1995569  18.0469244  94.7833054  10.6983313  17.9830845  94.9680306
  13.8607738  18.2700410  95.5682377  14.4552229  18.0296146  94.8575686
  13.9334322  17.5507541  96.1955914   7.2163857  27.2970945  84.8902117
   7.9199707  27.5020947  85.5059773   6.4926505  27.8647707  85.1551201
   8.0461667  23.0480806  91.0104388   7.9896868  23.5049357  90.1712020
   8.5990009  22.2871491  90.8327230  11.8566473  18.8370538  91.8354507
  11.6003407  18.4367174  92.6662715  11.2319341  19.5514332  91.7104646
  16.1678811  21.5766611  94.3425799  15.6078369  21.6459800  95.1157361
  15.5622314  21.4007596  93.6225295   9.1250554  27.7353474  86.9400578
   9.9596158  27.3034672  86.7578052   8.9634897  27.5635488  87.8677472
   8.7796446  24.2385587  88.3056917   8.7245250  24.0729859  87.3645361
   8.1542501  24.9461620  88.4619107   2.0182136  32.4162587  95.9709992
   1.0677767  32.4164448  95.8574364   2.3214622  31.6695321  95.4546026
  17.7534829  38.2523125  97.0355754  18.3913239  38.1329872  96.3319094
  17.6355672  39.2003969  97.0943706  14.5624535  38.2050553  96.9717279
  14.2243047  38.0891618  96.0837814  15.4314304  37.8041718  96.9518285
  10.4211351  40.0586030  92.9614170   9.8576216  39.9675967  92.1930458
  10.3063746  39.2385934  93.4416662  15.0444318  39.3585405 102.9303484
  15.0332959  38.9638203 102.0583988  15.2064958  38.6251478 103.5237256
   7.9675783  41.5537221  95.7998390   8.7597075  41.2128046  95.3844690
   8.2072433  41.6632196  96.7200544  16.0010910  43.7256997  88.2728635
  15.3498890  44.3111078  87.8862649  16.7955273  44.2563192  88.3323672
   9.9266537  40.8146134  88.6715769  10.6997413  40.2675122  88.5328645
  10.2791936  41.6790384  88.8830231  11.7651580  42.1422517 101.8782668
  11.4741446  43.0468148 101.7629335  12.4008564  42.1839044 102.5926738
  12.6907786  39.5199365  98.4684028  13.2871359  39.2955388  97.7540991
  12.7482758  38.7784111  99.0709476  12.2632815  36.9738801  86.3034219
  12.5158335  36.4520322  85.5417682  11.3257374  36.8104946  86.4060903
  17.3076098  35.9774579  94.1108962  18.0939187  35.5594002  93.7599379
  17.5714802  36.8820671  94.2790611  17.4786175  41.4147429  88.8097619
  16.8432008  41.4882056  89.5218524  17.1483581  42.0041028  88.1316698
  22.7084525  35.9149812  95.0141941  23.4409697  35.3449029  95.2479770
  21.9523880  35.5271413  95.4548446  11.9829104  38.8766907  88.5058594
  11.8665362  38.2011810  89.1739678  12.0931363  38.3899280  87.6890747
  14.3260644  38.3377054  92.2105283  13.9618852  37.8107675  92.9218205
  15.1827760  37.9475523  92.0371769  20.2309945  29.6271386  99.4736549
  19.8993270  30.4966797  99.2497764  19.6355558  29.3107670 100.1530580
  13.9666131  33.3666953  87.2066632  14.1340534  34.2347190  87.5737103
  13.7763301  33.5294235  86.2827921  16.7241465  41.8283932  98.8732462
  16.4242188  42.7308971  98.7648269  16.3792524  41.5616115  99.7253615
  10.1753946  38.2797729  94.9069167   9.2504443  38.1473943  95.1146858
  10.4238359  39.0591948  95.4039109  20.1238608  34.3466472  96.5529899
  19.2155486  34.2781881  96.2588660  20.0726204  34.8238417  97.3811725
  13.9455352  35.8224611  88.1913299  13.8254978  36.2681662  89.0298779
  13.2507941  36.1709928  87.6326837   7.5362757  37.9231003  95.7412956
   7.6655138  38.1765482  96.6552367   6.8560208  38.5158711  95.4217611
  11.7062244  48.5928253  91.8403430  11.6286274  49.5436078  91.9191910
  11.1023888  48.2474125  92.4978356  14.1979474  35.7656118 104.4964797
  13.4212808  36.3250038 104.4867661  14.8370037  36.2512901 105.0179667
  21.9900255  32.5482911  98.3307773  21.3474635  32.8415444  97.6847568
  21.4855183  32.4335831  99.1360970  19.6440418  36.2946084  89.0193633
  20.5558275  36.5273471  88.8441330  19.1350066  36.8783128  88.4568711
  12.4525846  38.5741571 104.0582764  13.1940531  39.1126615 103.7817587
  11.7462832  39.2007860 104.2154316  17.9281186  40.7170712 102.6554925
  18.3364542  40.2753122 101.9109558  17.2058448  40.1423339 102.9089118
  14.2812256  35.6543319 100.0288482  15.1273451  36.0782732 100.1723131
  14.2210894  34.9976943 100.7227045  18.2510001  41.2771902  96.4107214
  17.6218863  41.4417617  95.7083282  17.8635663  41.6913512  97.1818178
  22.1299233  42.2126340  93.7651578  21.4450271  42.5925242  93.2148611
  22.2143082  42.8221667  94.4983526  17.4311702  33.3147687 101.6869656
  17.1872633  34.0689747 101.1503932  17.7071632  33.6933035 102.5216903
  19.3850164  39.8586299 100.3646921  19.5967060  40.5018059  99.6881302
  19.3379913  39.0248616  99.8968851  16.9876393  32.4704120  97.2683494
  16.1260872  32.7685374  97.5600231  17.0138828  32.6874519  96.3364526
  13.8037963  41.0146311  93.6757299  14.2676308  41.2934014  92.8861922
  13.5394761  40.1129755  93.4930390  10.6962044  40.5617792  96.6137062
  11.2663401  40.9905060  95.9754547  11.2870156  40.2800377  97.3121248
  12.7406849  37.1369463  90.4846864  13.4430892  37.5890507  90.9520791
  12.4087477  36.4953282  91.1126757  11.1887210  35.7281220 104.8598074
  10.5585871  36.4097500 105.0933471  11.0823298  35.6164301 103.9151212
   6.4832183  35.3953016  95.7863998   5.6931237  35.6510544  95.3104109
   6.9743430  36.2101353  95.8916038  20.4995992  42.7358255  98.5369279
  21.3213436  42.3338442  98.2551960  20.4958395  42.6326489  99.4885395
   8.4346928  35.7597595  92.7447475   7.6378091  35.8716289  93.2630970
   8.2072520  36.0984247  91.8788365  14.2652596  42.2842298 100.6929989
  14.3297028  42.7462705 101.5288161  13.5563520  41.6539663 100.8212299
   4.7669886  35.6483506  98.2178989   5.0177924  36.5330516  98.4836565
   5.3029434  35.4688108  97.4454081  28.5901985  39.0797003  94.8854250
  27.8365694  38.5104401  94.7298255  28.7249526  39.0459668  95.8324885
  13.9800613  43.9510406  90.5608970  13.8446288  44.7961941  90.9893817
  14.5210426  44.1529683  89.7974903   7.4330011  41.4685844  91.1336895
   7.9454531  42.2629094  91.2842459   8.0852724  40.7712134  91.0670496
   9.2424895  44.5851600  93.2159648   9.4191524  45.5069565  93.0280632
  10.0381729  44.2710019  93.6454028  13.3835914  31.4459864 104.8143581
  14.1245627  32.0467018 104.7348044  13.6153837  30.7037502 104.2561624
   8.5277252  36.6316232 103.0921811   8.4130767  35.7301489 103.3928910
   7.6721770  36.8779928 102.7406628  15.6069090  44.5733972 104.6909312
  15.1632944  43.7870351 104.3730216  16.2686303  44.7613123 104.0253202
  10.3656211  46.1029774  99.2169990  10.9163636  45.9746837  98.4446984
   9.5267687  46.4024663  98.8664883  17.7050328  44.8536772 102.7190713
  17.6868803  45.6745653 102.2270982  18.6270248  44.7290847 102.9440854
  14.1623382  42.3680901 103.5614221  14.6951719  41.6069190 103.3313529
  13.6337463  42.0754553 104.3038376  17.3293077  27.4740967  99.0907863
  16.9857346  28.3642609  99.0146974  17.6972040  27.2842625  98.2277448
   5.3978928  39.7974498  91.9096465   6.2354150  40.2071506  91.6930173
   5.5757195  38.8573940  91.8796659  17.2943360  37.4649579  87.5980298
  16.7789983  38.2354183  87.8368686  17.0220668  36.7914715  88.2213360
  14.8790471  32.3099279  92.6565537  14.0232067  31.9206130  92.4771175
  15.2917422  32.3891240  91.7965322  16.4089617  29.8445623  97.0557096
  15.9054413  29.8075758  96.2424902  16.7020224  30.7538365  97.1153753
  12.6532503  29.9284352  96.0623278  13.5185500  29.7327161  95.7029167
  12.7210012  29.6994704  96.9892635  22.2677634  40.2181933  89.5333472
  21.4907077  39.8793093  89.0888634  22.9469115  40.2234556  88.8588437
  17.0829663  35.3376671  89.4240079  16.7779798  35.6522820  90.2750223
  18.0360105  35.4158090  89.4667412  15.5276095  41.4966894  91.0733033
  14.9997456  40.7619654  90.7606271  15.0263597  42.2741570  90.8273002
  20.5068941  39.6915914  96.1900080  19.8492615  40.3815176  96.2780208
  21.3109340  40.0812346  96.5334066  10.2594822  32.1586560  93.4339645
  10.8338574  31.9361742  92.7012838  10.8465805  32.2275255  94.1868246
  19.3174399  38.0460287  94.2404021  19.8306281  38.6790279  94.7425731
  19.9675623  37.4461483  93.8747381  10.5864409  34.1891021  87.4535530
   9.7501722  34.5265708  87.7744805  10.4469179  34.0540001  86.5162667
  12.5617490  29.0327809  92.1614714  11.9081902  28.7176826  91.5371329
  12.5197964  28.4103550  92.8874537  13.6728695  39.3147104  84.0768006
  12.7655757  39.0836358  84.2759155  14.1699727  38.5184723  84.2641988
  16.5796774  48.0244611  86.9964693  15.9058472  48.3276308  87.6049650
  16.9662596  48.8273692  86.6470150  15.7955230  35.5209743  96.4862362
  14.8777792  35.7424690  96.3284050  16.2115374  35.5956053  95.6274069
  16.5790278  36.9201158  91.6165042  17.3262097  37.4322556  91.3072164
  16.8481868  36.5985211  92.4769436  14.8516928  39.4159699  88.5991996
  13.9428148  39.1318732  88.6964466  14.8812012  39.8358778  87.7395303
  20.0836196  43.0266289  92.3683164  19.6298523  42.1857198  92.4248354
  19.4530162  43.6627687  92.7057944  19.0269115  33.9558275  93.5983831
  18.2891872  33.4435661  93.9294074  19.2795889  33.5158656  92.7867108
  18.5269135  44.8642785  93.3032982  18.8192109  45.4247842  92.5845348
  19.0367755  45.1571346  94.0586141  19.1280743  26.7334527  94.1925601
  19.4339619  25.8731890  93.9051516  19.8533347  27.3252147  93.9924595
   5.4205099  37.1365213  92.5807199   5.2229498  36.5434574  91.8558265
   4.8651763  36.8317423  93.2983137  13.4001822  37.0288320  94.7001792
  13.4550432  36.0762156  94.6244268  12.5893024  37.1847759  95.1843090
  14.5493016  40.9568443  85.9380075  14.1112446  40.2404302  85.4785712
  15.2903457  41.1844558  85.3765166  11.3394182  35.6465379  92.4592171
  10.5262048  35.9459550  92.8657363  11.8353176  35.2521068  93.1766653
  13.4902760  45.6423136  94.3926435  13.4478939  45.8683983  93.4634967
  14.4065459  45.4086511  94.5412236  16.9368394  36.1107204 101.2907065
  17.2917782  36.3378677 102.1501530  17.5840525  36.4425581 100.6684320
  22.6666131  39.2325640  91.9956394  22.5284029  39.4227236  91.0677583
  22.3102350  39.9945023  92.4524445  10.8308257  33.2183735  98.0753406
  11.4707636  33.0772494  97.3776369   9.9985788  32.9318248  97.6992008
  22.6935510  41.3002167  97.0067665  23.1272017  41.2077456  97.8550719
  23.4067091  41.2759667  96.3687681  11.6068561  42.5186165  94.1888398
  12.4009159  42.0236485  93.9870973  10.8960253  41.9904028  93.8256104
  16.4263405  44.9004261  98.5400766  16.4800428  45.4695197  99.3078482
  15.5578187  45.0706146  98.1754803   7.9151324  36.6629247  90.2648151
   6.9848912  36.6013703  90.4818113   8.0108796  36.1405200  89.4684792
   7.8336873  33.1884060  92.8526392   8.0943691  34.1029393  92.7435553
   8.6554046  32.7208502  93.0023005   9.3061799  34.6021817 100.0225217
   9.9784852  34.3939179  99.3737866   8.4791585  34.4043903  99.5830449
  23.5551060  41.3425867  99.5400550  23.7486950  42.2471678  99.7859825
  23.4551678  40.8833286 100.3739136  15.2087371  31.2283758 102.0390878
  14.5615286  31.9273708 101.9455354  15.9788386  31.6619902 102.4067126
  18.6166169  41.4932610 105.1141431  18.4651675  41.2643162 104.1971515
  18.6070848  42.4503212 105.1272776  15.3851505  39.0664523 100.0987698
  16.3143565  39.2175683  99.9256665  14.9642535  39.1548544  99.2436344
  14.1839837  43.0915187  97.8686235  14.0450923  42.7233972  98.7412173
  13.3954433  43.6062827  97.6970193  14.7787989  48.1924284  89.2111772
  14.9539745  47.7212327  90.0257394  14.0920777  48.8190050  89.4393032
  15.7345052  42.4696790  95.2575073  15.3994885  42.4297560  96.1532723
  15.2348998  41.8041506  94.7845483   9.7089296  37.8764420 100.7827654
   9.5709094  37.1444659 101.3839193  10.6194219  37.7873320 100.5011842
  18.6704244  39.8152824  85.5312133  18.0533414  39.0899653  85.4345185
  18.2020732  40.5762185  85.1879207  12.3371597  37.5884379 100.2711334
  13.0471215  36.9477572 100.2297952  12.2940905  37.8397274 101.1937515
  20.3258375  44.5251733 103.1917913  20.2670921  43.8410953 102.5248496
  20.7277894  45.2670723 102.7398539  11.0500531  34.5749597 102.0906973
  10.5137888  34.1240336 102.7428570  10.4617239  34.7095506 101.3477438
   9.3449074  51.3413647  95.9851632   9.5845672  51.9732171  96.6630650
   8.5018271  50.9901687  96.2716991  10.4602790  34.0338249  84.6533437
   9.5832256  33.9127049  84.2895684  10.9360543  33.2424327  84.4012326
  20.3275783  42.4891317 101.4231893  19.4402561  42.1517238 101.5458292
  20.8974334  41.7574348 101.6600658   1.9804930  38.8215408  94.7474944
   2.6675970  38.5077138  94.1595959   1.8253058  39.7256773  94.4742195
   6.7839652  33.7105605  99.1759968   6.6997841  33.1031275  98.4410378
   5.9622358  34.2014623  99.1769464  13.8576936  47.1492769  98.3893136
  13.7847107  47.9547741  98.9012440  13.4154329  47.3484735  97.5641157
  13.6466716  46.3864539  91.8995957  12.8634238  46.9286219  91.9934182
  14.3459461  46.9038519  92.2990199  16.9563366  32.1959168  94.5430163
  17.4532065  31.4429131  94.2231233  16.1850347  32.2323485  93.9773372
  24.8093123  37.8999534  96.1848454  24.7982999  38.7824249  95.8142387
  23.9410503  37.5471085  95.9902991  16.3175620  47.0479603 100.5451294
  17.0303592  47.6827068 100.4727196  15.8265648  47.1443469  99.7291296
  18.0393146  40.9530856  92.1168586  17.1049425  41.0732318  91.9473290
  18.2169815  40.0503322  91.8528596  13.5398334  34.3376551  94.2701847
  13.1696122  33.7847592  94.9582753  14.0357427  33.7334685  93.7176847
  21.4265698  36.7948175  92.6518620  21.8926150  37.6276167  92.5778923
  21.8773198  36.3293157  93.3563879  11.3687533  44.7974047 101.3656865
  12.0696993  45.4310529 101.5186260  10.8982648  45.1388778 100.6052505
  19.4941929  43.1391996  89.6504772  19.7701773  43.0248591  90.5598646
  18.6246428  42.7409481  89.6116945  19.3982361  29.1628762  96.6909522
  18.4845440  29.3932989  96.8591729  19.8275462  29.2467206  97.5423554
  19.1688819  37.3518654  99.1909416  18.5160269  37.5994561  98.5361868
  19.5469199  36.5382792  98.8571893  16.1295993  47.3878347  93.2937586
  16.3118387  46.5700003  93.7565338  16.9528979  47.6046039  92.8562476
  16.4638158  46.3146532  90.5552634  16.9925925  45.8038987  89.9422797
  16.7266378  45.9989062  91.4198167  15.2176392  38.0938465 105.6775453
  14.5417029  37.9932594 106.3477828  16.0404026  37.9377679 106.1411450
   6.9655251  44.3310402  98.2987968   7.5508688  43.5854089  98.4315872
   6.7680090  44.6414358  99.1824632   9.8193906  47.3661649  93.3150410
   9.1504282  47.8507777  92.8314450   9.6806776  47.6130869  94.2293789
   1.5572906  36.9016002  97.0192411   1.5957005  36.3679592  97.8129529
   1.0513199  36.3751207  96.4003388  13.9599175  49.4005392  99.9133069
  14.5117483  49.5637014 100.6782154  14.3005368  49.9909830  99.2413094
   8.9363668  31.7480542 100.5154953   9.0004995  32.6095373 100.1032351
   8.8730788  31.1354544  99.7827312   8.4115941  33.8203675 104.1627988
   9.0387979  33.4380752 104.7765512   7.5543860  33.6017877 104.5283680
  18.8110049  44.2266650 105.7681723  19.3549953  44.8396608 105.2736678
  18.2296894  44.7846228 106.2848736   5.1881483  35.6280104  90.0946343
   5.4834925  34.7190782  90.0413396   4.2869519  35.6067843  89.7727345
  17.0967562  47.3487368  96.8996751  16.9718702  46.5477108  96.3907696
  17.7546653  47.8433561  96.4110721   8.7175730  33.7036100  96.0773891
   7.9962316  34.3172068  95.9381364   9.5068986  34.2393865  95.9990537
  19.1602471  45.1496388  98.5276301  18.2132806  45.0301739  98.4554628
  19.5085244  44.2618886  98.6102562  11.5202044  31.0390527 102.3514543
  12.0436446  31.2852824 103.1140852  11.3014377  31.8710562 101.9317680
   6.9169325  33.3094202  90.2185668   6.5882031  32.4291580  90.0360774
   7.2708696  33.2541870  91.1062057  16.1648904  44.9449104  94.7280653
  16.0173866  44.0165812  94.9088223  16.9902397  44.9669195  94.2437728
  10.0311148  33.5967171  90.5861145  10.3707221  34.1253093  89.8639754
  10.4783269  33.9347577  91.3619712  19.7683026  45.7677663  95.8145526
  20.6929573  45.5620524  95.6769977  19.5998329  45.5194064  96.7234867
  12.7254589  31.9804222 100.0364213  12.3851409  31.1812035 100.4384893
  12.0193595  32.2805933  99.4641047  13.3771061  29.0653535  98.4891536
  14.1997130  28.5914013  98.3670427  13.6209124  29.8444018  98.9890223
  12.0179295  32.0941793  88.7854438  12.7387658  32.4723046  88.2818155
  11.3944599  32.8130670  88.8889416  16.1610418  32.7986942  89.7212770
  16.3774033  33.6811580  89.4201599  15.6804485  32.4073155  88.9918412
  10.9009640  35.7572655  96.2983515  10.7554220  36.0712958  97.1907797
  10.4234843  36.3757555  95.7454414  12.7606022  32.7475203  96.3464405
  12.7467591  31.8516296  96.0096703  13.4778451  32.7545867  96.9802691
  14.6132153  33.1812543  98.3917532  14.3549931  34.1029614  98.3901862
  14.0817194  32.7842978  99.0817996  19.5578342  46.2863330  91.1707617
  19.7315219  45.7209753  90.4181470  20.0507233  47.0864225  90.9887107
   5.3755302  38.2978000  99.2371176   4.8308770  39.0737808  99.3691451
   6.2534652  38.6448804  99.0790298  12.1642918  31.6289583  91.6151975
  12.2858830  30.7006230  91.8142862  11.8744961  31.6428269  90.7030290
  15.0334109  29.3144494  94.7518695  15.0555806  29.3783827  93.7970674
  15.4502168  28.4749003  94.9459201  25.4117733  39.0499753  92.7897917
  25.8548879  38.3007079  92.3917040  24.5344243  39.0409890  92.4071649
  20.5453514  45.6030095  88.2704516  21.2404419  46.2236788  88.4891830
  20.8876665  44.7525446  88.5456894   6.1621324  37.4247896 102.1301333
   5.4203060  37.5730531 102.7165964   5.8414068  37.6856161 101.2668083
  22.4444938  43.0529800  89.7991846  22.9696262  43.3917073  89.0741166
  22.3567290  42.1176816  89.6154981  14.1064986  46.9663874 101.9281723
  14.4152113  46.7213021 102.8004423  14.9040468  47.1710513 101.4400593
  14.1285598  49.1201784  94.1587100  13.6890589  48.6278162  94.8519956
  14.8793715  48.5774751  93.9179175   6.6077937  45.3113325  94.1611728
   7.4335957  45.0117096  93.7810371   6.2571989  44.5420947  94.6101516
  11.5759470  44.6639793  96.2309401  10.9539480  44.0010498  95.9311629
  12.2464337  44.6900925  95.5483049   4.8086542  43.2299651  95.1200661
   3.9718451  42.8021825  94.9384663   4.7810188  43.4232094  96.0571453
  11.6483998  33.1421581 105.8241907  11.6972153  34.0183704 105.4419677
  12.1906512  32.5998974 105.2513551  22.1338844  43.6862704 105.1043044
  21.3434387  43.6686843 104.5647544  21.8972198  44.2250998 105.8592081
  22.2536719  40.5355170 102.4175773  22.3034724  40.3705178 103.3591296
  22.1450642  39.6682429 102.0273654  11.1372977  43.2143716  89.7067862
  11.2861098  43.8979181  89.0534535  11.9439421  43.1948806  90.2217318
  19.5440481  36.5186098 103.7335080  20.4450344  36.3792563 103.4419077
  19.6188456  36.6840553 104.6733257  13.8783286  33.8952953 102.5788266
  13.0086596  34.1886519 102.3070855  14.1142767  34.4793398 103.2995530
  23.7554915  42.9552112 102.6617795  23.4639724  43.3182092 103.4981255
  23.1427047  42.2419120 102.4831127  24.9550598  40.5204992  95.1820365
  25.7897489  40.9594796  95.3457925  25.0909727  40.0443645  94.3628611
  22.0042104  38.0784727 101.1297852  22.4796225  38.2712373 100.3216704
  21.0807669  38.1343912 100.8841236   8.8925610  39.2408894  90.7128931
   8.6471652  38.3371224  90.9109141   9.0621525  39.2426044  89.7708409
  16.5822320  30.1132570 100.0953686  17.1004264  30.8493597  99.7700175
  16.2277453  30.4196563 100.9300446   8.1621258  34.9737251  88.2115092
   7.4690503  35.0481606  87.5555128   7.9173010  34.2097595  88.7336609
  16.8334914  26.5332853  95.6154583  17.1136668  25.8656042  96.2415010
  17.6185521  26.7261948  95.1029247  14.6368383  45.7091847  87.1779609
  14.0642350  46.3282034  86.7250081  15.2101177  46.2591208  87.7119531
  20.7043773  34.9550487  99.3626158  21.6561196  35.0548584  99.3838382
  20.5347223  34.1628755  99.8724242  18.7258152  32.0406070  99.5485559
  18.1308084  32.3211083  98.8532048  18.4407849  32.5299971 100.3202300
  17.8565643  45.9928997  88.3088192  18.7896316  45.9274558  88.5121067
  17.7688855  46.8285264  87.8502724  20.4853659  45.3094867  85.2692139
  20.4067291  44.9754731  86.1627897  21.3063326  45.8016635  85.2683611
  23.1831851  38.1756606  98.4768458  23.1508171  37.2372607  98.6628142
  23.7932474  38.2540643  97.7434283  15.0215181  37.0452659  84.5195662
  15.9674286  36.9158867  84.5884080  14.6429426  36.3067321  84.9965090
  23.3326339  34.9667650  98.5226741  22.8165388  34.1826106  98.3356670
  24.2166288  34.6386366  98.6873260  20.9937066  28.7108665  94.4822554
  20.7961887  28.4023754  95.3665886  21.6036771  29.4370304  94.6120483
  29.0008400  39.2372613  97.6174495  29.7311789  38.9757901  98.1782198
  28.3915346  38.5001335  97.6576563  27.0823697  37.3780476  98.2148946
  26.3556861  37.2436441  97.6065437  26.6670984  37.6857304  99.0205664
  14.9053874  41.0970405 105.9796319  15.8256883  41.2749004 106.1736365
  14.8703457  40.1526451 105.8276018  13.2058099  34.9702636  84.4550547
  12.2989554  34.6735748  84.5313261  13.4834080  34.6732454  83.5884833
   4.1236039  36.2908999  94.9049593   3.8038823  35.4374307  94.6123967
   3.5769467  36.5057577  95.6607561   7.9015946  39.0071440  98.6219100
   8.1201956  39.9388548  98.6407134   8.3141720  38.6479415  99.4073904
  14.8220164  29.5139525  90.6094788  14.0120893  29.1686610  90.9850034
  15.5104581  29.2047069  91.1982400  16.7510713  28.5917572  92.2319085
  17.3041751  29.0113026  92.8909108  16.9880799  27.6653320  92.2742041
  12.7743812  34.5804646 108.0121849  12.6740539  35.5299003 107.9433940
  12.5565354  34.2522885 107.1397919  11.9756883  31.8289571  84.5962526
  12.8376047  32.1544469  84.8558344  12.1607227  31.0421067  84.0835592
   3.9924299  39.9111911  96.8742715   3.2987770  39.4965863  96.3612669
   4.7397290  39.9532447  96.2776134  20.1289520  30.7018097  91.7397749
  19.5488189  31.3602901  91.3575802  19.8625452  29.8795442  91.3285167
  18.5793086  30.1023155  93.9419070  19.0792864  30.2139690  93.1333388
  19.2228694  29.7984208  94.5819878  12.6375082  38.0101785 106.8286911
  12.1542164  38.8102145 107.0350800  12.7236021  38.0209730 105.8754355
   5.9061041  39.8430164  94.7508730   5.8831730  39.9417852  93.7990613
   6.2161678  40.6895315  95.0725896   8.5648419  41.9006319  98.8655344
   9.5191673  41.8690262  98.7985276   8.3660943  41.4396943  99.6805570
   9.1547801  40.4707435 101.4326142   9.9740690  40.9651514 101.4560979
   9.4284609  39.5539404 101.4043709  18.9114398  32.8618188  90.7954097
  18.0240253  33.1467838  90.5774292  19.3268387  32.7011951  89.9481374
  22.2628934  32.8864709  94.5108437  23.0389324  33.3761161  94.7833054
  21.5377068  33.3122763  94.9680306  24.7001492  33.5992328  95.5682377
  25.2945983  33.3588064  94.8575686  24.7728076  32.8799459  96.1955914
   6.9198648  47.4425939  95.8825542   6.7853116  46.6826340  95.3163540
   6.5030710  48.1666839  95.4154331  18.0557611  42.6262862  84.8902117
  18.7593461  42.8312865  85.5059773  17.3320260  43.1939624  85.1551201
  18.8855421  38.3772724  91.0104388  18.8290623  38.8341275  90.1712020
  19.4383764  37.6163408  90.8327230  22.6960227  34.1662456  91.8354507
  22.4397162  33.7659091  92.6662715  22.0713095  34.8806249  91.7104646
  27.0072565  36.9058529  94.3425799  26.4472123  36.9751718  95.1157361
  26.4016069  36.7299513  93.6225295  10.0767774  48.3395256  96.0943985
   9.9600158  49.2840688  95.9922675   9.2560220  48.0368817  96.4829784
  19.9644309  43.0645392  86.9400578  20.7989912  42.6326590  86.7578052
  19.8028651  42.8927405  87.8677472  19.6190201  39.5677505  88.3056917
  19.5639004  39.4021776  87.3645361  18.9936256  40.2753538  88.4619107
   4.4082716  34.8045569 102.1318339   5.0541579  34.2944523 102.6205564
   4.1999867  35.5414251 102.7061764  16.9336108  41.8726417 107.6310480
  17.8027268  42.0467069 107.2697115  16.4542859  42.6920834 107.5086209
  12.9286326  29.0685614  87.8842235  12.9164996  30.0127454  88.0410506
  13.8209748  28.8855759  87.5901696  11.1022288  48.9923518  99.3099913
  12.0049535  49.0247128  99.6266408  10.8759658  48.0623969  99.3246249
  12.8575890  47.7454504  95.9709992  11.9071521  47.7456366  95.8574364
  13.1608376  46.9987239  95.4546026  16.7438446  25.6628391  92.1388172
  15.9770841  25.1086877  92.2844854  17.1549151  25.7350259  93.0002324
  28.5928584  53.5815043  97.0355754  29.2306994  53.4621790  96.3319094
  28.4749426  54.5295887  97.0943706  25.4018290  53.5342471  96.9717279
  25.0636801  53.4183536  96.0837814  26.2708058  53.1333636  96.9518285
  21.2605106  55.3877947  92.9614170  20.6969971  55.2967884  92.1930458
  21.1457501  54.5677852  93.4416662  25.8838073  54.6877323 102.9303484
  25.8726714  54.2930121 102.0583988  26.0458712  53.9543395 103.5237256
  18.8069538  56.8829139  95.7998390  19.5990829  56.5419964  95.3844690
  19.0466188  56.9924114  96.7200544  26.8404664  59.0548915  88.2728635
  26.1892644  59.6402995  87.8862649  27.6349027  59.5855110  88.3323672
  20.7660291  56.1438052  88.6715769  21.5391167  55.5967039  88.5328645
  21.1185690  57.0082301  88.8830231  22.6045334  57.4714434 101.8782668
  22.3135200  58.3760065 101.7629335  23.2402318  57.5130962 102.5926738
  23.5301541  54.8491283  98.4684028  24.1265113  54.6247305  97.7540991
  23.5876512  54.1076028  99.0709476  28.1469852  51.3066497  94.1108962
  28.9332941  50.8885920  93.7599379  28.4108556  52.2112589  94.2790611
  28.3179929  56.7439347  88.8097619  27.6825762  56.8173973  89.5218524
  27.9877336  57.3332946  88.1316698  33.5478279  51.2441730  95.0141941
  34.2803451  50.6740947  95.2479770  32.7917635  50.8563330  95.4548446
  22.8222858  54.2058824  88.5058594  22.7059116  53.5303728  89.1739678
  22.9325118  53.7191198  87.6890747  25.1654399  53.6668971  92.2105283
  24.8012606  53.1399592  92.9218205  26.0221515  53.2767440  92.0371769
  31.0703700  44.9563304  99.4736549  30.7387024  45.8258715  99.2497764
  30.4749313  44.6399588 100.1530580  27.5635219  57.1575850  98.8732462
  27.2635942  58.0600889  98.7648269  27.2186279  56.8908033  99.7253615
  21.0147701  53.6089647  94.9069167  20.0898197  53.4765861  95.1146858
  21.2632114  54.3883866  95.4039109  30.9632363  49.6758390  96.5529899
  30.0549240  49.6073799  96.2588660  30.9119959  50.1530335  97.3811725
  18.3756512  53.2522920  95.7412956  18.5048893  53.5057399  96.6552367
  17.6953963  53.8450628  95.4217611  22.5455999  63.9220170  91.8403430
  22.4680029  64.8727995  91.9191910  21.9417642  63.5766043  92.4978356
  25.0373229  51.0948036 104.4964797  24.2606563  51.6541956 104.4867661
  25.6763792  51.5804819 105.0179667  32.8294009  47.8774828  98.3307773
  32.1868390  48.1707362  97.6847568  32.3248938  47.7627749  99.1360970
  23.2919601  53.9033489 104.0582764  24.0334285  54.4418533 103.7817587
  22.5856586  54.5299778 104.2154316  28.7674941  56.0462629 102.6554925
  29.1758297  55.6045040 101.9109558  28.0452202  55.4715257 102.9089118
  25.1206011  50.9835236 100.0288482  25.9667206  51.4074650 100.1723131
  25.0604648  50.3268861 100.7227045  29.0903755  56.6063820  96.4107214
  28.4612618  56.7709534  95.7083282  28.7029417  57.0205430  97.1818178
  28.2705456  48.6439605 101.6869656  28.0266388  49.3981665 101.1503932
  28.5465387  49.0224952 102.5216903  30.2243919  55.1878217 100.3646921
  30.4360814  55.8309977  99.6881302  30.1773667  54.3540534  99.8968851
  27.8270148  47.7996038  97.2683494  26.9654627  48.0977291  97.5600231
  27.8532582  48.0166437  96.3364526  24.6431717  56.3438228  93.6757299
  25.1070063  56.6225931  92.8861922  24.3788515  55.4421673  93.4930390
  21.5355798  55.8909710  96.6137062  22.1057155  56.3196978  95.9754547
  22.1263910  55.6092294  97.3121248  23.5800603  52.4661381  90.4846864
  24.2824647  52.9182424  90.9520791  23.2481232  51.8245199  91.1126757
  22.0280965  51.0573137 104.8598074  21.3979625  51.7389418 105.0933471
  21.9217053  50.9456219 103.9151212  17.3225937  50.7244933  95.7863998
  16.5324991  50.9802462  95.3104109  17.8137185  51.5393271  95.8916038
  31.3389747  58.0650172  98.5369279  32.1607190  57.6630360  98.2551960
  31.3352150  57.9618407  99.4885395  19.2740683  51.0889512  92.7447475
  18.4771846  51.2008207  93.2630970  19.0466275  51.4276165  91.8788365
  25.1046350  57.6134216 100.6929989  25.1690783  58.0754623 101.5288161
  24.3957274  56.9831581 100.8212299  15.6063640  50.9775424  98.2178989
  15.8571679  51.8622434  98.4836565  16.1423189  50.7980025  97.4454081
  24.8194368  59.2802323  90.5608970  24.6840043  60.1253859  90.9893817
  25.3604180  59.4821601  89.7974903  21.3061707  45.3593903 107.2223325
  20.9128653  44.8060102 107.8970969  22.1227848  45.6704482 107.6129842
  18.2723765  56.7977761  91.1336895  18.7848286  57.5921011  91.2842459
  18.9246478  56.1004052  91.0670496  20.0818650  59.9143518  93.2159648
  20.2585278  60.8361482  93.0280632  20.8775483  59.6001937  93.6454028
  24.2229668  46.7751782 104.8143581  24.9639382  47.3758935 104.7348044
  24.4547591  46.0329420 104.2561624  19.3671006  51.9608149 103.0921811
  19.2524522  51.0593407 103.3928910  18.5115524  52.2071846 102.7406628
  26.4462844  59.9025890 104.6909312  26.0026698  59.1162268 104.3730216
  27.1080058  60.0905040 104.0253202  21.2049965  61.4321691  99.2169990
  21.7557390  61.3038755  98.4446984  20.3661441  61.7316580  98.8664883
  28.5444082  60.1828690 102.7190713  28.5262558  61.0037571 102.2270982
  29.4664002  60.0582765 102.9440854  25.0017136  57.6972819 103.5614221
  25.5345473  56.9361107 103.3313529  24.4731218  57.4046471 104.3038376
  28.1686831  42.8032885  99.0907863  27.8251101  43.6934527  99.0146974
  28.5365794  42.6134543  98.2277448  16.2372682  55.1266416  91.9096465
  17.0747904  55.5363424  91.6930173  16.4150950  54.1865858  91.8796659
  25.7184225  47.6391197  92.6565537  24.8625821  47.2498047  92.4771175
  26.1311177  47.7183158  91.7965322  27.2483372  45.1737540  97.0557096
  26.7448167  45.1367675  96.2424902  27.5413979  46.0830283  97.1153753
  23.4926258  45.2576270  96.0623278  24.3579254  45.0619079  95.7029167
  23.5603767  45.0286622  96.9892635  26.3669849  56.8258812  91.0733033
  25.8391211  56.0911571  90.7606271  25.8657352  57.6033488  90.8273002
  31.3462695  55.0207832  96.1900080  30.6886370  55.7107093  96.2780208
  32.1503094  55.4104264  96.5334066  21.0988577  47.4878478  93.4339645
  21.6732329  47.2653659  92.7012838  21.6859559  47.5567172  94.1868246
  30.1568154  53.3752205  94.2404021  30.6700036  54.0082197  94.7425731
  30.8069378  52.7753400  93.8747381  21.4258164  49.5182939  87.4535530
  20.5895476  49.8557625  87.7744805  21.2862933  49.3831919  86.5162667
  23.4011244  44.3619727  92.1614714  22.7475657  44.0468744  91.5371329
  23.3591719  43.7395467  92.8874537  27.4190528  63.3536529  86.9964693
  26.7452227  63.6568226  87.6049650  27.8056350  64.1565609  86.6470150
  26.6348985  50.8501660  96.4862362  25.7171546  51.0716607  96.3284050
  27.0509128  50.9247971  95.6274069  27.4184033  52.2493076  91.6165042
  28.1655852  52.7614473  91.3072164  27.6875622  51.9277129  92.4769436
  25.6910683  54.7451617  88.5991996  24.7821902  54.4610650  88.6964466
  25.7205767  55.1650695  87.7395303  30.9229950  58.3558206  92.3683164
  30.4692277  57.5149116  92.4248354  30.2923917  58.9919605  92.7057944
  29.8662870  49.2850192  93.5983831  29.1285627  48.7727578  93.9294074
  30.1189643  48.8450574  92.7867108  29.3662889  60.1934703  93.3032982
  29.6585864  60.7539760  92.5845348  29.8761510  60.4863264  94.0586141
  29.9674497  42.0626444  94.1925601  30.2733374  41.2023808  93.9051516
  30.6927102  42.6544064  93.9924595  16.2598853  52.4657131  92.5807199
  16.0623253  51.8726492  91.8558265  15.7045517  52.1609341  93.2983137
  24.2395577  52.3580237  94.7001792  24.2944187  51.4054074  94.6244268
  23.4286779  52.5139676  95.1843090  22.1787937  50.9757297  92.4592171
  21.3655802  51.2751468  92.8657363  22.6746931  50.5812986  93.1766653
  24.3296515  60.9715054  94.3926435  24.2872693  61.1975900  93.4634967
  25.2459213  60.7378429  94.5412236  27.7762148  51.4399122 101.2907065
  28.1311536  51.6670595 102.1501530  28.4234280  51.7717498 100.6684320
  21.6702011  48.5475653  98.0753406  22.3101391  48.4064412  97.3776369
  20.8379542  48.2610166  97.6992008  33.5329265  56.6294084  97.0067665
  33.9665772  56.5369374  97.8550719  34.2460846  56.6051585  96.3687681
  22.4462315  57.8478083  94.1888398  23.2402914  57.3528403  93.9870973
  21.7354008  57.3195946  93.8256104  27.2657160  60.2296179  98.5400766
  27.3194182  60.7987115  99.3078482  26.3971941  60.3998064  98.1754803
  18.7545079  51.9921165  90.2648151  17.8242667  51.9305620  90.4818113
  18.8502551  51.4697118  89.4684792  18.6730628  48.5175978  92.8526392
  18.9337445  49.4321311  92.7435553  19.4947800  48.0500420  93.0023005
  20.1455553  49.9313735 100.0225217  20.8178607  49.7231097  99.3737866
  19.3185340  49.7335821  99.5830449  34.3944815  56.6717785  99.5400550
  34.5880705  57.5763596  99.7859825  34.2945433  56.2125204 100.3739136
  26.0481125  46.5575676 102.0390878  25.4009040  47.2565625 101.9455354
  26.8182141  46.9911820 102.4067126  29.4559923  56.8224528 105.1141431
  29.3045430  56.5935080 104.1971515  29.4464603  57.7795129 105.1272776
  26.2245260  54.3956441 100.0987698  27.1537320  54.5467600  99.9256665
  25.8036290  54.4840461  99.2436344  25.0233591  58.4207105  97.8686235
  24.8844677  58.0525889  98.7412173  24.2348188  58.9354744  97.6970193
  25.6181743  63.5216201  89.2111772  25.7933499  63.0504245  90.0257394
  24.9314531  64.1481968  89.4393032  26.5738807  57.7988708  95.2575073
  26.2388639  57.7589478  96.1532723  26.0742752  57.1333424  94.7845483
  20.5483050  53.2056338 100.7827654  20.4102848  52.4736577 101.3839193
  21.4587974  53.1165238 100.5011842  23.1765351  52.9176297 100.2711334
  23.8864970  52.2769489 100.2297952  23.1334659  53.1689192 101.1937515
  31.1652130  59.8543650 103.1917913  31.1064676  59.1702871 102.5248496
  31.5671648  60.5962640 102.7398539  21.8894285  49.9041515 102.0906973
  21.3531642  49.4532253 102.7428570  21.3010994  50.0387424 101.3477438
  20.1842829  66.6705564  95.9851632  20.4239427  67.3024088  96.6630650
  19.3412025  66.3193604  96.2716991  21.2996544  49.3630166  84.6533437
  20.4226010  49.2418967  84.2895684  21.7754297  48.5716245  84.4012326
  31.1669537  57.8183234 101.4231893  30.2796316  57.4809156 101.5458292
  31.7368088  57.0866266 101.6600658  12.8198684  54.1507326  94.7474944
  13.5069724  53.8369056  94.1595959  12.6646813  55.0548691  94.4742195
  17.6233406  49.0397523  99.1759968  17.5391595  48.4323192  98.4410378
  16.8016113  49.5306541  99.1769464  24.6970690  62.4784687  98.3893136
  24.6240862  63.2839658  98.9012440  24.2548084  62.6776653  97.5641157
  24.4860470  61.7156457  91.8995957  23.7027992  62.2578137  91.9934182
  25.1853215  62.2330436  92.2990199  27.7957120  47.5251086  94.5430163
  28.2925820  46.7721048  94.2231233  27.0244102  47.5615403  93.9773372
  27.1569374  62.3771521 100.5451294  27.8697346  63.0118986 100.4727196
  26.6659403  62.4735387  99.7291296  28.8786901  56.2822773  92.1168586
  27.9443180  56.4024236  91.9473290  29.0563569  55.3795240  91.8528596
  24.3792089  49.6668469  94.2701847  24.0089876  49.1139510  94.9582753
  24.8751181  49.0626603  93.7176847  32.2659452  52.1240093  92.6518620
  32.7319904  52.9568084  92.5778923  32.7166953  51.6585074  93.3563879
  22.2081288  60.1265964 101.3656865  22.9090747  60.7602447 101.5186260
  21.7376403  60.4680696 100.6052505  30.3335683  58.4683914  89.6504772
  30.6095527  58.3540509  90.5598646  29.4640182  58.0701399  89.6116945
  30.2376115  44.4920680  96.6909522  29.3239195  44.7224907  96.8591729
  30.6669216  44.5759124  97.5423554  30.0082574  52.6810572  99.1909416
  29.3554024  52.9286479  98.5361868  30.3862953  51.8674710  98.8571893
  26.9689747  62.7170265  93.2937586  27.1512142  61.8991921  93.7565338
  27.7922733  62.9337957  92.8562476  27.3031913  61.6438450  90.5552634
  27.8319679  61.1330905  89.9422797  27.5660132  61.3280980  91.4198167
  26.0570147  53.4230383 105.6775453  25.3810784  53.3224512 106.3477828
  26.8797780  53.2669596 106.1411450  17.8049006  59.6602319  98.2987968
  18.3902442  58.9146007  98.4315872  17.6073844  59.9706276  99.1824632
  20.6587661  62.6953567  93.3150410  19.9898036  63.1799694  92.8314450
  20.5200531  62.9422787  94.2293789  12.3966660  52.2307919  97.0192411
  12.4350760  51.6971510  97.8129529  11.8906953  51.7043125  96.4003388
  24.7992929  64.7297310  99.9133069  25.3511237  64.8928932 100.6782154
  25.1399123  65.3201748  99.2413094  19.7757423  47.0772460 100.5154953
  19.8398749  47.9387291 100.1032351  19.7124543  46.4646462  99.7827312
  19.2509695  49.1495592 104.1627988  19.8781734  48.7672670 104.7765512
  18.3937614  48.9309794 104.5283680  29.6503804  59.5558568 105.7681723
  30.1943708  60.1688526 105.2736678  29.0690649  60.1138146 106.2848736
  16.0275238  50.9572022  90.0946343  16.3228679  50.0482700  90.0413396
  15.1263274  50.9359761  89.7727345  27.9361317  62.6779286  96.8996751
  27.8112456  61.8769026  96.3907696  28.5940408  63.1725479  96.4110721
  19.5569485  49.0328018  96.0773891  18.8356071  49.6463986  95.9381364
  20.3462741  49.5685783  95.9990537  29.9996225  60.4788306  98.5276301
  29.0526561  60.3593657  98.4554628  30.3478998  59.5910804  98.6102562
  22.3595798  46.3682445 102.3514543  22.8830200  46.6144741 103.1140852
  22.1408132  47.2002479 101.9317680  17.7563080  48.6386119  90.2185668
  17.4275786  47.7583498  90.0360774  18.1102450  48.5833788  91.1062057
  27.0042658  60.2741022  94.7280653  26.8567621  59.3457729  94.9088223
  27.8296152  60.2961113  94.2437728  20.8704903  48.9259089  90.5861145
  21.2100975  49.4545010  89.8639754  21.3177023  49.2639495  91.3619712
  30.6076780  61.0969581  95.8145526  31.5323328  60.8912442  95.6769977
  30.4392084  60.8485982  96.7234867  23.5648343  47.3096140 100.0364213
  23.2245164  46.5103953 100.4384893  22.8587350  47.6097851  99.4641047
  24.2164815  44.3945452  98.4891536  25.0390885  43.9205930  98.3670427
  24.4602879  45.1735936  98.9890223  22.8573050  47.4233711  88.7854438
  23.5781412  47.8014963  88.2818155  22.2338354  48.1422587  88.8889416
  21.7403394  51.0864573  96.2983515  21.5947975  51.4004876  97.1907797
  21.2628598  51.7049473  95.7454414  23.5999777  48.0767121  96.3464405
  23.5861346  47.1808214  96.0096703  24.3172205  48.0837785  96.9802691
  25.4525908  48.5104461  98.3917532  25.1943685  49.4321532  98.3901862
  24.9210948  48.1134896  99.0817996  30.3972096  61.6155248  91.1707617
  30.5708974  61.0501671  90.4181470  30.8900988  62.4156143  90.9887107
  16.2149056  53.6269917  99.2371176  15.6702524  54.4029725  99.3691451
  17.0928406  53.9740722  99.0790298  23.0036673  46.9581501  91.6151975
  23.1252584  46.0298147  91.8142862  22.7138715  46.9720187  90.7030290
  25.8727863  44.6436412  94.7518695  25.8949560  44.7075745  93.7970674
  26.2895922  43.8040920  94.9459201  31.3847269  60.9322013  88.2704516
  32.0798174  61.5528705  88.4891830  31.7270419  60.0817364  88.5456894
  17.0015078  52.7539813 102.1301333  16.2596814  52.9022449 102.7165964
  16.6807822  53.0148079 101.2668083  24.9458741  62.2955792 101.9281723
  25.2545867  62.0504938 102.8004423  25.7434223  62.5002430 101.4400593
  24.9679353  64.4493701  94.1587100  24.5284343  63.9570080  94.8519956
  25.7187470  63.9066669  93.9179175  17.4471692  60.6405242  94.1611728
  18.2729712  60.3409014  93.7810371  17.0965744  59.8712865  94.6101516
  22.4153225  59.9931710  96.2309401  21.7933234  59.3302415  95.9311629
  23.0858092  60.0192842  95.5483049  15.6480297  58.5591569  95.1200661
  14.8112205  58.1313743  94.9384663  15.6203942  58.7524012  96.0571453
  22.4877752  48.4713498 105.8241907  22.5365908  49.3475621 105.4419677
  23.0300267  47.9290892 105.2513551  32.9732598  59.0154622 105.1043044
  32.1828142  58.9978761 104.5647544  32.7365953  59.5542915 105.8592081
  33.0930473  55.8647088 102.4175773  33.1428478  55.6997096 103.3591296
  32.9844396  54.9974347 102.0273654  21.9766732  58.5435634  89.7067862
  22.1254852  59.2271098  89.0534535  22.7833175  58.5240724  90.2217318
  30.3834236  51.8478016 103.7335080  31.2844098  51.7084481 103.4419077
  30.4582210  52.0132471 104.6733257  24.7177041  49.2244871 102.5788266
  23.8480350  49.5178437 102.3070855  24.9536521  49.8085316 103.2995530
  34.5948670  58.2844030 102.6617795  34.3033478  58.6474010 103.4981255
  33.9820801  57.5711038 102.4831127  32.8435858  53.4076644 101.1297852
  33.3189980  53.6004291 100.3216704  31.9201424  53.4635830 100.8841236
  19.7319365  54.5700811  90.7128931  19.4865407  53.6663141  90.9109141
  19.9015279  54.5717962  89.7708409  27.4216075  45.4424488 100.0953686
  27.9398019  46.1785515  99.7700175  27.0671207  45.7488481 100.9300446
  19.0015012  50.3029169  88.2115092  18.3084257  50.3773524  87.5555128
  18.7566764  49.5389513  88.7336609  27.6728669  41.8624770  95.6154583
  27.9530423  41.1947959  96.2415010  28.4579276  42.0553866  95.1029247
  25.4762137  61.0383764  87.1779609  24.9036104  61.6573951  86.7250081
  26.0494931  61.5883126  87.7119531  31.5437527  50.2842404  99.3626158
  32.4954950  50.3840502  99.3838382  31.3740978  49.4920673  99.8724242
  29.5651907  47.3697988  99.5485559  28.9701839  47.6503000  98.8532048
  29.2801603  47.8591888 100.3202300  28.6959397  61.3220914  88.3088192
  29.6290070  61.2566476  88.5121067  28.6082610  62.1577181  87.8502724
  34.0225605  53.5048524  98.4768458  33.9901925  52.5664525  98.6628142
  34.6326229  53.5832561  97.7434283  34.1720093  50.2959567  98.5226741
  33.6559142  49.5118024  98.3356670  35.0560042  49.9678284  98.6873260
  31.8330820  44.0400583  94.4822554  31.6355642  43.7315671  95.3665886
  32.4430526  44.7662222  94.6120483  25.7447628  56.4262323 105.9796319
  26.6650638  56.6040922 106.1736365  25.7097211  55.4818368 105.8276018
  14.9629793  51.6200917  94.9049593  14.6432578  50.7666225  94.6123967
  14.4163222  51.8349495  95.6607561  18.7409701  54.3363358  98.6219100
  18.9595711  55.2680466  98.6407134  19.1535475  53.9771332  99.4073904
  25.6613919  44.8431443  90.6094788  24.8514647  44.4978528  90.9850034
  26.3498336  44.5338987  91.1982400  27.5904467  43.9209490  92.2319085
  28.1435506  44.3404943  92.8909108  27.8274553  42.9945238  92.2742041
  23.6137566  49.9096564 108.0121849  23.5134293  50.8590920 107.9433940
  23.3959108  49.5814802 107.1397919  22.8150638  47.1581489  84.5962526
  23.6769802  47.4836387  84.8558344  23.0000982  46.3712984  84.0835592
  14.8318053  55.2403828  96.8742715  14.1381525  54.8257781  96.3612669
  15.5791044  55.2824365  96.2776134  30.9683274  46.0310015  91.7397749
  30.3881943  46.6894819  91.3575802  30.7019207  45.2087360  91.3285167
  29.4186840  45.4315073  93.9419070  29.9186619  45.5431607  93.1333388
  30.0622448  45.1276126  94.5819878  23.4768836  53.3393702 106.8286911
  22.9935918  54.1394062 107.0350800  23.5629775  53.3501647 105.8754355
  16.7454796  55.1722082  94.7508730  16.7225484  55.2709769  93.7990613
  17.0555432  56.0187233  95.0725896  19.4042174  57.2298237  98.8655344
  20.3585427  57.1982179  98.7985276  19.2054697  56.7688861  99.6805570
  19.9941556  55.7999353 101.4326142  20.8134445  56.2943432 101.4560979
  20.2678364  54.8831321 101.4043709  29.7508152  48.1910105  90.7954097
  28.8634007  48.4759756  90.5774292  30.1662141  48.0303869  89.9481374
  33.1022688  48.2156626  94.5108437  33.8783078  48.7053079  94.7833054
  32.3770822  48.6414681  94.9680306  35.5395247  48.9284246  95.5682377
  36.1339738  48.6879982  94.8575686  35.6121831  48.2091376  96.1955914
  17.7592403  62.7717857  95.8825542  17.6246871  62.0118257  95.3163540
  17.3424465  63.4958756  95.4154331  29.7249176  53.7064641  91.0104388
  29.6684377  54.1633193  90.1712020  30.2777518  52.9455326  90.8327230
  33.5353982  49.4954373  91.8354507  33.2790916  49.0951009  92.6662715
  32.9106850  50.2098167  91.7104646  20.9161528  63.6687174  96.0943985
  20.7993913  64.6132606  95.9922675  20.0953975  63.3660735  96.4829784
  30.4583955  54.8969423  88.3056917  30.4032759  54.7313694  87.3645361
  29.8330010  55.6045456  88.4619107  15.2476470  50.1337487 102.1318339
  15.8935334  49.6236441 102.6205564  15.0393621  50.8706169 102.7061764
  27.7729862  57.2018334 107.6310480  28.6421022  57.3758987 107.2697115
  27.2936614  58.0212751 107.5086209  23.7680081  44.3977532  87.8842235
  23.7558750  45.3419372  88.0410506  24.6603503  44.2147677  87.5901696
  21.9416043  64.3215435  99.3099913  22.8443289  64.3539046  99.6266408
  21.7153413  63.3915886  99.3246249  23.6969645  63.0746422  95.9709992
  22.7465276  63.0748284  95.8574364  24.0002131  62.3279157  95.4546026
  27.5832200  40.9920308  92.1388172  26.8164596  40.4378795  92.2844854
  27.9942905  41.0642177  93.0002324  19.5873961  47.2805104 106.2293353
  20.4505423  46.9241909 106.4396678  19.0139372  46.9418999 106.9168758
  39.4322338  68.9106960  97.0355754  40.0700748  68.7913708  96.3319094
  39.3143181  69.8587804  97.0943706  36.2412044  68.8634389  96.9717279
  35.9030556  68.7475453  96.0837814  37.1101813  68.4625554  96.9518285
  32.0998860  70.7169865  92.9614170  31.5363725  70.6259802  92.1930458
  31.9851255  69.8969769  93.4416662  36.7231827  70.0169240 102.9303484
  36.7120468  69.6222039 102.0583988  36.8852467  69.2835313 103.5237256
  29.6463292  72.2121057  95.7998390  30.4384584  71.8711881  95.3844690
  29.8859942  72.3216032  96.7200544  37.6798419  74.3840833  88.2728635
  37.0286399  74.9694913  87.8862649  38.4742782  74.9147028  88.3323672
  31.6054046  71.4729970  88.6715769  32.3784922  70.9258957  88.5328645
  31.9579445  72.3374219  88.8830231  33.4439089  72.8006352 101.8782668
  33.1528954  73.7051983 101.7629335  34.0796073  72.8422880 102.5926738
  34.3695295  70.1783201  98.4684028  34.9658868  69.9539223  97.7540991
  34.4270267  69.4367946  99.0709476  33.9420324  67.6322636  86.3034219
  34.1945844  67.1104157  85.5417682  33.0044883  67.4688781  86.4060903
  38.9863607  66.6358414  94.1108962  39.7726696  66.2177837  93.7599379
  39.2502311  67.5404506  94.2790611  39.1573684  72.0731265  88.8097619
  38.5219517  72.1465891  89.5218524  38.8271090  72.6624863  88.1316698
  44.3872034  66.5733647  95.0141941  45.1197206  66.0032864  95.2479770
  43.6311389  66.1855248  95.4548446  33.6616613  69.5350742  88.5058594
  33.5452871  68.8595645  89.1739678  33.7718872  69.0483116  87.6890747
  36.0048153  68.9960889  92.2105283  35.6406361  68.4691510  92.9218205
  36.8615269  68.6059358  92.0371769  41.9097454  60.2855222  99.4736549
  41.5780779  61.1550633  99.2497764  41.3143067  59.9691506 100.1530580
  35.6453640  64.0250789  87.2066632  35.8128043  64.8931025  87.5737103
  35.4550809  64.1878070  86.2827921  38.4028974  72.4867768  98.8732462
  38.1029697  73.3892806  98.7648269  38.0580033  72.2199951  99.7253615
  31.8541455  68.9381564  94.9069167  30.9291952  68.8057779  95.1146858
  32.1025868  69.7175784  95.4039109  41.8026117  65.0050308  96.5529899
  40.8942995  64.9365716  96.2588660  41.7513713  65.4822253  97.3811725
  35.6242861  66.4808446  88.1913299  35.5042486  66.9265497  89.0298779
  34.9295450  66.8293764  87.6326837  29.2150266  68.5814838  95.7412956
  29.3442647  68.8349317  96.6552367  28.5347717  69.1742546  95.4217611
  33.3849753  79.2512088  91.8403430  33.3073783  80.2019913  91.9191910
  32.7811397  78.9057960  92.4978356  35.8766983  66.4239953 104.4964797
  35.1000317  66.9833873 104.4867661  36.5157546  66.9096736 105.0179667
  43.6687764  63.2066746  98.3307773  43.0262144  63.4999279  97.6847568
  43.1642692  63.0919666  99.1360970  41.3227927  66.9529919  89.0193633
  42.2345784  67.1857306  88.8441330  40.8137575  67.5366964  88.4568711
  34.1313355  69.2325407 104.0582764  34.8728040  69.7710451 103.7817587
  33.4250341  69.8591695 104.2154316  39.6068695  71.3754547 102.6554925
  40.0152051  70.9336958 101.9109558  38.8845957  70.8007175 102.9089118
  35.9599765  66.3127154 100.0288482  36.8060960  66.7366567 100.1723131
  35.8998403  65.6560778 100.7227045  39.9297510  71.9355738  96.4107214
  39.3006372  72.1001452  95.7083282  39.5423172  72.3497347  97.1818178
  43.8086742  72.8710176  93.7651578  43.1237780  73.2509077  93.2148611
  43.8930591  73.4805502  94.4983526  39.1099210  63.9731522 101.6869656
  38.8660142  64.7273583 101.1503932  39.3859141  64.3516870 102.5216903
  41.0637673  70.5170135 100.3646921  41.2754568  71.1601895  99.6881302
  41.0167422  69.6832451  99.8968851  38.6663902  63.1287955  97.2683494
  37.8048381  63.4269209  97.5600231  38.6926337  63.3458354  96.3364526
  35.4825472  71.6730146  93.6757299  35.9463817  71.9517849  92.8861922
  35.2182270  70.7713590  93.4930390  32.3749553  71.2201627  96.6137062
  32.9450910  71.6488896  95.9754547  32.9657665  70.9384212  97.3121248
  34.4194358  67.7953298  90.4846864  35.1218401  68.2474342  90.9520791
  34.0874986  67.1537117  91.1126757  32.8674719  66.3865055 104.8598074
  32.2373380  67.0681336 105.0933471  32.7610807  66.2748136 103.9151212
  28.1619692  66.0536851  95.7863998  27.3718746  66.3094379  95.3104109
  28.6530939  66.8685189  95.8916038  42.1783501  73.3942090  98.5369279
  43.0000945  72.9922277  98.2551960  42.1745904  73.2910324  99.4885395
  30.1134437  66.4181430  92.7447475  29.3165600  66.5300124  93.2630970
  29.8860029  66.7568082  91.8788365  35.9440105  72.9426133 100.6929989
  36.0084537  73.4046541 101.5288161  35.2351029  72.3123498 100.8212299
  26.4457395  66.3067341  98.2178989  26.6965433  67.1914351  98.4836565
  26.9816943  66.1271943  97.4454081  50.2689494  69.7380839  94.8854250
  49.5153203  69.1688237  94.7298255  50.4037035  69.7043503  95.8324885
  35.6588122  74.6094241  90.5608970  35.5233797  75.4545777  90.9893817
  36.1997935  74.8113519  89.7974903  32.1455462  60.6885821 107.2223325
  31.7522408  60.1352019 107.8970969  32.9621602  60.9996399 107.6129842
  29.1117520  72.1269679  91.1336895  29.6242040  72.9212929  91.2842459
  29.7640233  71.4295969  91.0670496  30.9212404  75.2435435  93.2159648
  31.0979033  76.1653400  93.0280632  31.7169238  74.9293854  93.6454028
  35.0623423  62.1043700 104.8143581  35.8033136  62.7050853 104.7348044
  35.2941346  61.3621338 104.2561624  30.2064761  67.2900067 103.0921811
  30.0918276  66.3885324 103.3928910  29.3509279  67.5363764 102.7406628
  37.2856599  75.2317807 104.6909312  36.8420453  74.4454186 104.3730216
  37.9473812  75.4196958 104.0253202  32.0443720  76.7613609  99.2169990
  32.5951145  76.6330672  98.4446984  31.2055196  77.0608498  98.8664883
  39.3837837  75.5120607 102.7190713  39.3656312  76.3329488 102.2270982
  40.3057757  75.3874683 102.9440854  35.8410891  73.0264737 103.5614221
  36.3739228  72.2653025 103.3313529  35.3124972  72.7338389 104.3038376
  27.0766436  70.4558333  91.9096465  27.9141658  70.8655342  91.6930173
  27.2544704  69.5157775  91.8796659  38.9730869  68.1233414  87.5980298
  38.4577492  68.8938019  87.8368686  38.7008177  67.4498550  88.2213360
  36.5577980  62.9683115  92.6565537  35.7019576  62.5789965  92.4771175
  36.9704931  63.0475075  91.7965322  38.0877126  60.5029458  97.0557096
  37.5841922  60.4659593  96.2424902  38.3807733  61.4122201  97.1153753
  34.3320012  60.5868188  96.0623278  35.1973009  60.3910996  95.7029167
  34.3997521  60.3578539  96.9892635  43.9465143  70.8765769  89.5333472
  43.1694585  70.5376928  89.0888634  44.6256624  70.8818392  88.8588437
  38.7617172  65.9960506  89.4240079  38.4567307  66.3106655  90.2750223
  39.7147614  66.0741926  89.4667412  37.2063604  72.1550729  91.0733033
  36.6784965  71.4203489  90.7606271  36.7051106  72.9325406  90.8273002
  42.1856450  70.3499750  96.1900080  41.5280124  71.0399011  96.2780208
  42.9896849  70.7396182  96.5334066  31.9382331  62.8170396  93.4339645
  32.5126083  62.5945577  92.7012838  32.5253314  62.8859090  94.1868246
  40.9961908  68.7044122  94.2404021  41.5093790  69.3374114  94.7425731
  41.6463132  68.1045318  93.8747381  32.2651918  64.8474857  87.4535530
  31.4289231  65.1849543  87.7744805  32.1256688  64.7123836  86.5162667
  35.3516204  69.9730940  84.0768006  34.4443266  69.7420193  84.2759155
  35.8487236  69.1768559  84.2641988  38.2584283  78.6828447  86.9964693
  37.5845981  78.9860143  87.6049650  38.6450105  79.4857527  86.6470150
  37.4742739  66.1793578  96.4862362  36.5565301  66.4008525  96.3284050
  37.8902883  66.2539888  95.6274069  38.2577787  67.5784994  91.6165042
  39.0049606  68.0906391  91.3072164  38.5269377  67.2569046  92.4769436
  36.5304437  70.0743534  88.5991996  35.6215656  69.7902567  88.6964466
  36.5599521  70.4942613  87.7395303  41.7623705  73.6850124  92.3683164
  41.3086032  72.8441034  92.4248354  41.1317671  74.3211522  92.7057944
  40.7056624  64.6142110  93.5983831  39.9679381  64.1019496  93.9294074
  40.9583398  64.1742492  92.7867108  40.2056644  75.5226621  93.3032982
  40.4979618  76.0831678  92.5845348  40.7155264  75.8155182  94.0586141
  27.0992608  67.7949049  92.5807199  26.9017007  67.2018409  91.8558265
  26.5439272  67.4901259  93.2983137  35.0789331  67.6872155  94.7001792
  35.1337941  66.7345991  94.6244268  34.2680533  67.8431594  95.1843090
  36.2280525  71.6152278  85.9380075  35.7899955  70.8988137  85.4785712
  36.9690966  71.8428393  85.3765166  33.0181691  66.3049215  92.4592171
  32.2049557  66.6043385  92.8657363  33.5140685  65.9104904  93.1766653
  35.1690269  76.3006972  94.3926435  35.1266448  76.5267818  93.4634967
  36.0852968  76.0670346  94.5412236  38.6155903  66.7691039 101.2907065
  38.9705291  66.9962512 102.1501530  39.2628034  67.1009416 100.6684320
  44.3453640  69.8909475  91.9956394  44.2071538  70.0811071  91.0677583
  43.9889859  70.6528858  92.4524445  32.5095766  63.8767570  98.0753406
  33.1495145  63.7356329  97.3776369  31.6773297  63.5902084  97.6992008
  44.3723019  71.9586002  97.0067665  44.8059526  71.8661291  97.8550719
  45.0854600  71.9343503  96.3687681  33.2856070  73.1770001  94.1888398
  34.0796668  72.6820321  93.9870973  32.5747762  72.6487864  93.8256104
  38.1050914  75.5588096  98.5400766  38.1587937  76.1279033  99.3078482
  37.2365696  75.7289981  98.1754803  29.5938833  67.3213082  90.2648151
  28.6636421  67.2597538  90.4818113  29.6896305  66.7989035  89.4684792
  29.5124382  63.8467895  92.8526392  29.7731200  64.7613229  92.7435553
  30.3341555  63.3792338  93.0023005  30.9849308  65.2605652 100.0225217
  31.6572361  65.0523015  99.3737866  30.1579094  65.0627738  99.5830449
  45.2338569  72.0009703  99.5400550  45.4274459  72.9055513  99.7859825
  45.1339187  71.5417122 100.3739136  36.8874880  61.8867593 102.0390878
  36.2402795  62.5857543 101.9455354  37.6575895  62.3203737 102.4067126
  40.2953678  72.1516446 105.1141431  40.1439184  71.9226997 104.1971515
  40.2858357  73.1087047 105.1272776  37.0639014  69.7248358 100.0987698
  37.9931074  69.8759518  99.9256665  36.6430044  69.8132379  99.2436344
  35.8627346  73.7499023  97.8686235  35.7238432  73.3817807  98.7412173
  35.0741942  74.2646662  97.6970193  36.4575498  78.8508119  89.2111772
  36.6327254  78.3796162  90.0257394  35.7708286  79.4773885  89.4393032
  37.4132561  73.1280625  95.2575073  37.0782394  73.0881395  96.1532723
  36.9136507  72.4625341  94.7845483  31.3876805  68.5348255 100.7827654
  31.2496603  67.8028494 101.3839193  32.2981728  68.4457156 100.5011842
  40.3491753  70.4736660  85.5312133  39.7320923  69.7483488  85.4345185
  39.8808241  71.2346020  85.1879207  34.0159106  68.2468215 100.2711334
  34.7258724  67.6061407 100.2297952  33.9728414  68.4981110 101.1937515
  42.0045884  75.1835568 103.1917913  41.9458430  74.4994788 102.5248496
  42.4065403  75.9254558 102.7398539  32.7288040  65.2333433 102.0906973
  32.1925397  64.7824171 102.7428570  32.1404748  65.3679341 101.3477438
  31.0236583  81.9997482  95.9851632  31.2633181  82.6316006  96.6630650
  30.1805780  81.6485522  96.2716991  42.0063292  73.1475152 101.4231893
  41.1190070  72.8101074 101.5458292  42.5761843  72.4158183 101.6600658
  23.6592439  69.4799244  94.7474944  24.3463479  69.1660974  94.1595959
  23.5040567  70.3840608  94.4742195  28.4627161  64.3689440  99.1759968
  28.3785350  63.7615110  98.4410378  27.6409867  64.8598459  99.1769464
  35.5364445  77.8076604  98.3893136  35.4634616  78.6131576  98.9012440
  35.0941838  78.0068570  97.5641157  35.3254225  77.0448374  91.8995957
  34.5421746  77.5870055  91.9934182  36.0246970  77.5622354  92.2990199
  38.6350875  62.8543004  94.5430163  39.1319574  62.1012966  94.2231233
  37.8637856  62.8907321  93.9773372  46.4880632  68.5583369  96.1848454
  46.4770508  69.4408085  95.8142387  45.6198012  68.2054920  95.9902991
  37.9963128  77.7063438 100.5451294  38.7091101  78.3410903 100.4727196
  37.5053157  77.8027304  99.7291296  39.7180655  71.6114691  92.1168586
  38.7836934  71.7316154  91.9473290  39.8957324  70.7087158  91.8528596
  35.2185843  64.9960387  94.2701847  34.8483631  64.4431427  94.9582753
  35.7144936  64.3918520  93.7176847  43.1053207  67.4532010  92.6518620
  43.5713659  68.2860002  92.5778923  43.5560707  66.9876992  93.3563879
  33.0475042  75.4557882 101.3656865  33.7484502  76.0894365 101.5186260
  32.5770157  75.7972613 100.6052505  41.1729438  73.7975832  89.6504772
  41.4489282  73.6832426  90.5598646  40.3033937  73.3993316  89.6116945
  40.8476328  68.0102489  99.1909416  40.1947778  68.2578397  98.5361868
  41.2256708  67.1966627  98.8571893  37.8083502  78.0462182  93.2937586
  37.9905896  77.2283838  93.7565338  38.6316488  78.2629875  92.8562476
  38.1425667  76.9730368  90.5552634  38.6713434  76.4622822  89.9422797
  38.4053887  76.6572898  91.4198167  36.8963901  68.7522300 105.6775453
  36.2204538  68.6516430 106.3477828  37.7191535  68.5961514 106.1411450
  28.6442760  74.9894237  98.2987968  29.2296197  74.2437925  98.4315872
  28.4467599  75.2998194  99.1824632  31.4981415  78.0245484  93.3150410
  30.8291791  78.5091612  92.8314450  31.3594285  78.2714705  94.2293789
  23.2360415  67.5599837  97.0192411  23.2744514  67.0263428  97.8129529
  22.7300708  67.0335043  96.4003388  35.6386684  80.0589228  99.9133069
  36.1904992  80.2220849 100.6782154  35.9792877  80.6493666  99.2413094
  30.6151177  62.4064378 100.5154953  30.6792504  63.2679209 100.1032351
  30.5518297  61.7938379  99.7827312  30.0903450  64.4787510 104.1627988
  30.7175488  64.0964587 104.7765512  29.2331369  64.2601712 104.5283680
  40.4897558  74.8850485 105.7681723  41.0337462  75.4980444 105.2736678
  39.9084403  75.4430064 106.2848736  26.8668992  66.2863939  90.0946343
  27.1622433  65.3774618  90.0413396  25.9657028  66.2651679  89.7727345
  38.7755071  78.0071203  96.8996751  38.6506211  77.2060943  96.3907696
  39.4334162  78.5017397  96.4110721  30.3963239  64.3619936  96.0773891
  29.6749825  64.9755904  95.9381364  31.1856495  64.8977701  95.9990537
  40.8389980  75.8080223  98.5276301  39.8920315  75.6885575  98.4554628
  41.1872753  74.9202721  98.6102562  33.1989553  61.6974362 102.3514543
  33.7223955  61.9436659 103.1140852  32.9801886  62.5294397 101.9317680
  28.5956834  63.9678037  90.2185668  28.2669540  63.0875416  90.0360774
  28.9496205  63.9125706  91.1062057  37.8436413  75.6032940  94.7280653
  37.6961375  74.6749647  94.9088223  38.6689906  75.6253030  94.2437728
  31.7098657  64.2551007  90.5861145  32.0494730  64.7836928  89.8639754
  32.1570778  64.5931413  91.3619712  41.4470535  76.4261498  95.8145526
  42.3717082  76.2204360  95.6769977  41.2785838  76.1777900  96.7234867
  34.4042098  62.6388057 100.0364213  34.0638918  61.8395871 100.4384893
  33.6981104  62.9389768  99.4641047  35.0558570  59.7237370  98.4891536
  35.8784639  59.2497848  98.3670427  35.2996633  60.5027854  98.9890223
  33.6966804  62.7525628  88.7854438  34.4175167  63.1306881  88.2818155
  33.0732108  63.4714505  88.8889416  37.8397927  63.4570777  89.7212770
  38.0561542  64.3395415  89.4201599  37.3591994  63.0656991  88.9918412
  32.5797149  66.4156491  96.2983515  32.4341729  66.7296794  97.1907797
  32.1022352  67.0341391  95.7454414  34.4393531  63.4059039  96.3464405
  34.4255100  62.5100132  96.0096703  35.1565960  63.4129702  96.9802691
  36.2919662  63.8396379  98.3917532  36.0337440  64.7613449  98.3901862
  35.7604703  63.4426813  99.0817996  41.2365851  76.9447166  91.1707617
  41.4102728  76.3793588  90.4181470  41.7294742  77.7448061  90.9887107
  27.0542811  68.9561835  99.2371176  26.5096279  69.7321643  99.3691451
  27.9322161  69.3032639  99.0790298  33.8430427  62.2873419  91.6151975
  33.9646339  61.3590065  91.8142862  33.5532470  62.3012105  90.7030290
  47.0905242  69.7083589  92.7897917  47.5336388  68.9590914  92.3917040
  46.2131752  69.6993725  92.4071649  42.2241023  76.2613930  88.2704516
  42.9191928  76.8820623  88.4891830  42.5664174  75.4109281  88.5456894
  27.8408833  68.0831731 102.1301333  27.0990569  68.2314367 102.7165964
  27.5201577  68.3439997 101.2668083  44.1232447  73.7113636  89.7991846
  44.6483771  74.0500909  89.0741166  44.0354799  72.7760651  89.6154981
  35.7852495  77.6247709 101.9281723  36.0939622  77.3796856 102.8004423
  36.5827977  77.8294348 101.4400593  35.8073107  79.7785619  94.1587100
  35.3678098  79.2861998  94.8519956  36.5581224  79.2358587  93.9179175
  28.2865446  75.9697160  94.1611728  29.1123466  75.6700932  93.7810371
  27.9359498  75.2004782  94.6101516  33.2546979  75.3223628  96.2309401
  32.6326989  74.6594333  95.9311629  33.9251846  75.3484760  95.5483049
  26.4874051  73.8883486  95.1200661  25.6505960  73.4605661  94.9384663
  26.4597697  74.0815930  96.0571453  33.3271507  63.8005416 105.8241907
  33.3759662  64.6767539 105.4419677  33.8694021  63.2582809 105.2513551
  43.8126353  74.3446539 105.1043044  43.0221896  74.3270678 104.5647544
  43.5759707  74.8834833 105.8592081  43.9324228  71.1939006 102.4175773
  43.9822233  71.0289013 103.3591296  43.8238151  70.3266265 102.0273654
  32.8160486  73.8727551  89.7067862  32.9648607  74.5563016  89.0534535
  33.6226930  73.8532642  90.2217318  41.2227990  67.1769934 103.7335080
  42.1237853  67.0376399 103.4419077  41.2975965  67.3424389 104.6733257
  35.5570795  64.5536789 102.5788266  34.6874105  64.8470355 102.3070855
  35.7930276  65.1377234 103.2995530  45.4342424  73.6135947 102.6617795
  45.1427233  73.9765928 103.4981255  44.8214556  72.9002956 102.4831127
  46.6338107  71.1788827  95.1820365  47.4684998  71.6178631  95.3457925
  46.7697236  70.7027480  94.3628611  43.6829613  68.7368562 101.1297852
  44.1583734  68.9296208 100.3216704  42.7595178  68.7927748 100.8841236
  30.5713119  69.8992729  90.7128931  30.3259161  68.9955059  90.9109141
  30.7409034  69.9009880  89.7708409  38.2609829  60.7716405 100.0953686
  38.7791773  61.5077432  99.7700175  37.9064962  61.0780399 100.9300446
  29.8408767  65.6321087  88.2115092  29.1478012  65.7065442  87.5555128
  29.5960519  64.8681430  88.7336609  36.3155892  76.3675682  87.1779609
  35.7429859  76.9865869  86.7250081  36.8888686  76.9175044  87.7119531
  42.3831282  65.6134322  99.3626158  43.3348705  65.7132420  99.3838382
  42.2134732  64.8212591  99.8724242  40.4045661  62.6989905  99.5485559
  39.8095593  62.9794918  98.8532048  40.1195358  63.1883806 100.3202300
  39.5353152  76.6512832  88.3088192  40.4683825  76.5858394  88.5121067
  39.4476364  77.4869099  87.8502724  42.1641168  75.9678702  85.2692139
  42.0854800  75.6338566  86.1627897  42.9850835  76.4600470  85.2683611
  44.8619359  68.8340442  98.4768458  44.8295680  67.8956442  98.6628142
  45.4719983  68.9124478  97.7434283  36.7002690  67.7036495  84.5195662
  37.6461795  67.5742703  84.5884080  36.3216935  66.9651157  84.9965090
  45.0113848  65.6251485  98.5226741  44.4952897  64.8409942  98.3356670
  45.8953796  65.2970202  98.6873260  50.6795909  69.8956449  97.6174495
  51.4099298  69.6341737  98.1782198  50.0702855  69.1585170  97.6576563
  48.7611206  68.0364311  98.2148946  48.0344370  67.9020276  97.6065437
  48.3458493  68.3441140  99.0205664  36.5841383  71.7554241 105.9796319
  37.5044392  71.9332840 106.1736365  36.5490966  70.8110286 105.8276018
  34.8845608  65.6286471  84.4550547  33.9777063  65.3319584  84.5313261
  35.1621589  65.3316289  83.5884833  25.8023548  66.9492834  94.9049593
  25.4826332  66.0958143  94.6123967  25.2556976  67.1641413  95.6607561
  29.5803455  69.6655275  98.6219100  29.7989465  70.5972383  98.6407134
  29.9929229  69.3063250  99.4073904  38.4298222  59.2501408  92.2319085
  38.9829260  59.6696861  92.8909108  38.6668308  58.3237156  92.2742041
  34.4531321  65.2388481 108.0121849  34.3528048  66.1882838 107.9433940
  34.2352863  64.9106720 107.1397919  25.6711808  70.5695746  96.8742715
  24.9775279  70.1549699  96.3612669  26.4184799  70.6116282  96.2776134
  34.3162591  68.6685620 106.8286911  33.8329673  69.4685980 107.0350800
  34.4023530  68.6793565 105.8754355  27.5848550  70.5014000  94.7508730
  27.5619239  70.6001687  93.7990613  27.8949187  71.3479151  95.0725896
  30.2435928  72.5590155  98.8655344  31.1979182  72.5274097  98.7985276
  30.0448452  72.0980778  99.6805570  30.8335310  71.1291271 101.4326142
  31.6528199  71.6235349 101.4560979  31.1072118  70.2123239 101.4043709
  43.9416443  63.5448544  94.5108437  44.7176833  64.0344997  94.7833054
  43.2164577  63.9706598  94.9680306  46.3789001  64.2576163  95.5682377
  46.9733492  64.0171899  94.8575686  46.4515585  63.5383294  96.1955914
  28.5986157  78.1009774  95.8825542  28.4640625  77.3410175  95.3163540
  28.1818219  78.8250674  95.4154331  39.7345120  73.2846698  84.8902117
  40.4380970  73.4896700  85.5059773  39.0107769  73.8523460  85.1551201
  40.5642930  69.0356559  91.0104388  40.5078132  69.4925110  90.1712020
  41.1171273  68.2747244  90.8327230  44.3747736  64.8246291  91.8354507
  44.1184671  64.4242927  92.6662715  43.7500604  65.5390085  91.7104646
  48.6860074  67.5642364  94.3425799  48.1259632  67.6335553  95.1157361
  48.0803578  67.3883349  93.6225295  31.7555283  78.9979091  96.0943985
  31.6387667  79.9424524  95.9922675  30.9347729  78.6952653  96.4829784
  41.6431817  73.7229227  86.9400578  42.4777421  73.2910425  86.7578052
  41.4816160  73.5511241  87.8677472  41.2977710  70.2261340  88.3056917
  41.2426513  70.0605612  87.3645361  40.6723765  70.9337373  88.4619107
  26.0870225  65.4629405 102.1318339  26.7329088  64.9528359 102.6205564
  25.8787376  66.1998086 102.7061764  38.6123617  72.5310252 107.6310480
  39.4814776  72.7050904 107.2697115  38.1330368  73.3504669 107.5086209
  32.7809797  79.6507353  99.3099913  33.6837044  79.6830963  99.6266408
  32.5547167  78.7207804  99.3246249  34.5363399  78.4038340  95.9709992
  33.5859030  78.4040201  95.8574364  34.8395885  77.6571074  95.4546026
  30.4267716  62.6097022 106.2293353  31.2899177  62.2533827 106.4396678
  29.8533126  62.2710917 106.9168758  50.2716093  84.2398878  97.0355754
  50.9094503  84.1205625  96.3319094  50.1536935  85.1879722  97.0943706
  47.0805799  84.1926306  96.9717279  46.7424310  84.0767371  96.0837814
  47.9495567  83.7917471  96.9518285  42.9392615  86.0461783  92.9614170
  42.3757480  85.9551720  92.1930458  42.8245010  85.2261687  93.4416662
  47.5625582  85.3461158 102.9303484  47.5514223  84.9513956 102.0583988
  47.7246221  84.6127231 103.5237256  40.4857046  87.5412974  95.7998390
  41.2778338  87.2003799  95.3844690  40.7253697  87.6507949  96.7200544
  48.5192173  89.7132750  88.2728635  47.8680153  90.2986831  87.8862649
  49.3136536  90.2438945  88.3323672  42.4447800  86.8021887  88.6715769
  43.2178676  86.2550875  88.5328645  42.7973199  87.6666137  88.8830231
  44.2832843  88.1298270 101.8782668  43.9922709  89.0343901 101.7629335
  44.9189827  88.1714797 102.5926738  45.2089050  85.5075118  98.4684028
  45.8052622  85.2831141  97.7540991  45.2664021  84.7659864  99.0709476
  44.7814078  82.9614554  86.3034219  45.0339599  82.4396075  85.5417682
  43.8438637  82.7980699  86.4060903  49.8257361  81.9650332  94.1108962
  50.6120450  81.5469755  93.7599379  50.0896065  82.8696424  94.2790611
  49.9967438  87.4023182  88.8097619  49.3613271  87.4757809  89.5218524
  49.6664845  87.9916781  88.1316698  55.2265788  81.9025565  95.0141941
  55.9590960  81.3324782  95.2479770  54.4705144  81.5147166  95.4548446
  44.5010367  84.8642660  88.5058594  44.3846625  84.1887563  89.1739678
  44.6112627  84.3775033  87.6890747  46.8441908  84.3252807  92.2105283
  46.4800115  83.7983428  92.9218205  47.7009024  83.9351276  92.0371769
  52.7491209  75.6147139  99.4736549  52.4174533  76.4842550  99.2497764
  52.1536822  75.2983423 100.1530580  46.4847395  79.3542706  87.2066632
  46.6521797  80.2222943  87.5737103  46.2944564  79.5169988  86.2827921
  49.2422728  87.8159685  98.8732462  48.9423451  88.7184724  98.7648269
  48.8973788  87.5491868  99.7253615  42.6935210  84.2673482  94.9069167
  41.7685706  84.1349696  95.1146858  42.9419623  85.0467701  95.4039109
  52.6419872  80.3342225  96.5529899  51.7336749  80.2657634  96.2588660
  52.5907468  80.8114170  97.3811725  46.4636616  81.8100364  88.1913299
  46.3436241  82.2557415  89.0298779  45.7689204  82.1585682  87.6326837
  40.0544021  83.9106756  95.7412956  40.1836402  84.1641235  96.6552367
  39.3741472  84.5034464  95.4217611  44.2243508  94.5804006  91.8403430
  44.1467538  95.5311831  91.9191910  43.6205151  94.2349878  92.4978356
  46.7160738  81.7531871 104.4964797  45.9394072  82.3125791 104.4867661
  47.3551301  82.2388654 105.0179667  54.5081518  78.5358664  98.3307773
  53.8655899  78.8291197  97.6847568  54.0036447  78.4211584  99.1360970
  52.1621682  82.2821837  89.0193633  53.0739538  82.5149224  88.8441330
  51.6531329  82.8658881  88.4568711  44.9707110  84.5617324 104.0582764
  45.7121794  85.1002368 103.7817587  44.2644095  85.1883613 104.2154316
  50.4462450  86.7046465 102.6554925  50.8545806  86.2628875 101.9109558
  49.7239711  86.1299092 102.9089118  46.7993520  81.6419072 100.0288482
  47.6454715  82.0658485 100.1723131  46.7392157  80.9852696 100.7227045
  50.7691264  87.2647655  96.4107214  50.1400127  87.4293370  95.7083282
  50.3816926  87.6789265  97.1818178  54.6480496  88.2002093  93.7651578
  53.9631534  88.5800995  93.2148611  54.7324345  88.8097420  94.4983526
  49.9492965  79.3023440 101.6869656  49.7053897  80.0565501 101.1503932
  50.2252895  79.6808788 102.5216903  51.9031428  85.8462052 100.3646921
  52.1148323  86.4893812  99.6881302  51.8561176  85.0124369  99.8968851
  49.5057657  78.4579873  97.2683494  48.6442136  78.7561127  97.5600231
  49.5320091  78.6750272  96.3364526  46.3219226  87.0022064  93.6757299
  46.7857572  87.2809767  92.8861922  46.0576024  86.1005508  93.4930390
  43.2143307  86.5493545  96.6137062  43.7844664  86.9780813  95.9754547
  43.8051419  86.2676130  97.3121248  45.2588112  83.1245216  90.4846864
  45.9612156  83.5766260  90.9520791  44.9268741  82.4829035  91.1126757
  43.7068474  81.7156973 104.8598074  43.0767134  82.3973253 105.0933471
  43.6004562  81.6040054 103.9151212  39.0013446  81.3828769  95.7863998
  38.2112500  81.6386297  95.3104109  39.4924694  82.1977106  95.8916038
  53.0177256  88.7234008  98.5369279  53.8394699  88.3214195  98.2551960
  53.0139659  88.6202242  99.4885395  40.9528192  81.7473348  92.7447475
  40.1559355  81.8592042  93.2630970  40.7253784  82.0860000  91.8788365
  46.7833859  88.2718051 100.6929989  46.8478292  88.7338458 101.5288161
  46.0744783  87.6415416 100.8212299  37.2851149  81.6359259  98.2178989
  37.5359188  82.5206269  98.4836565  37.8210698  81.4563861  97.4454081
  61.1083249  85.0672756  94.8854250  60.3546957  84.4980154  94.7298255
  61.2430790  85.0335421  95.8324885  46.4981877  89.9386159  90.5608970
  46.3627552  90.7837694  90.9893817  47.0391689  90.1405436  89.7974903
  42.9849216  76.0177738 107.2223325  42.5916162  75.4643937 107.8970969
  43.8015357  76.3288317 107.6129842  39.9511274  87.4561597  91.1336895
  40.4635795  88.2504847  91.2842459  40.6033987  86.7587887  91.0670496
  41.7606159  90.5727353  93.2159648  41.9372787  91.4945318  93.0280632
  42.5562992  90.2585772  93.6454028  45.9017177  77.4335617 104.8143581
  46.6426891  78.0342771 104.7348044  46.1335100  76.6913255 104.2561624
  41.0458515  82.6191985 103.0921811  40.9312031  81.7177242 103.3928910
  40.1903033  82.8655682 102.7406628  48.1250353  90.5609725 104.6909312
  47.6814207  89.7746104 104.3730216  48.7867567  90.7488876 104.0253202
  42.8837474  92.0905527  99.2169990  43.4344899  91.9622590  98.4446984
  42.0448950  92.3900416  98.8664883  50.2231591  90.8412525 102.7190713
  50.2050067  91.6621406 102.2270982  51.1451511  90.7166600 102.9440854
  46.6804645  88.3556654 103.5614221  47.2132982  87.5944943 103.3313529
  46.1518726  88.0630306 104.3038376  49.8474340  73.4616720  99.0907863
  49.5038610  74.3518362  99.0146974  50.2153303  73.2718378  98.2277448
  37.9160191  85.7850251  91.9096465  38.7535413  86.1947259  91.6930173
  38.0938459  84.8449693  91.8796659  49.8124623  83.4525332  87.5980298
  49.2971247  84.2229936  87.8368686  49.5401932  82.7790468  88.2213360
  47.3971734  78.2975032  92.6565537  46.5413330  77.9081883  92.4771175
  47.8098686  78.3766993  91.7965322  48.9270881  75.8321376  97.0557096
  48.4235676  75.7951511  96.2424902  49.2201488  76.7414118  97.1153753
  45.1713767  75.9160105  96.0623278  46.0366763  75.7202914  95.7029167
  45.2391276  75.6870457  96.9892635  54.7858897  86.2057686  89.5333472
  54.0088340  85.8668846  89.0888634  55.4650378  86.2110309  88.8588437
  49.6010926  81.3252424  89.4240079  49.2961062  81.6398573  90.2750223
  50.5541368  81.4033844  89.4667412  48.0457358  87.4842647  91.0733033
  47.5178720  86.7495407  90.7606271  47.5444861  88.2617323  90.8273002
  53.0250204  85.6791667  96.1900080  52.3673879  86.3690929  96.2780208
  53.8290603  86.0688099  96.5334066  42.7776086  78.1462313  93.4339645
  43.3519838  77.9237495  92.7012838  43.3647068  78.2151008  94.1868246
  51.8355663  84.0336040  94.2404021  52.3487545  84.6666032  94.7425731
  52.4856887  83.4337236  93.8747381  43.1045673  80.1766774  87.4535530
  42.2682985  80.5141461  87.7744805  42.9650442  80.0415754  86.5162667
  45.0798753  75.0203562  92.1614714  44.4263166  74.7052579  91.5371329
  45.0379228  74.3979303  92.8874537  46.1909958  85.3022857  84.0768006
  45.2837020  85.0712111  84.2759155  46.6880990  84.5060476  84.2641988
  49.0978037  94.0120364  86.9964693  48.4239736  94.3152061  87.6049650
  49.4843859  94.8149445  86.6470150  48.3136494  81.5085496  96.4862362
  47.3959055  81.7300443  96.3284050  48.7296637  81.5831806  95.6274069
  49.0971542  82.9076911  91.6165042  49.8443360  83.4198309  91.3072164
  49.3663131  82.5860964  92.4769436  47.3698192  85.4035452  88.5991996
  46.4609411  85.1194485  88.6964466  47.3993276  85.8234531  87.7395303
  52.6017459  89.0142042  92.3683164  52.1479786  88.1732951  92.4248354
  51.9711426  89.6503440  92.7057944  51.5450379  79.9434028  93.5983831
  50.8073135  79.4311414  93.9294074  51.7977152  79.5034409  92.7867108
  51.0450398  90.8518538  93.3032982  51.3373373  91.4123595  92.5845348
  51.5549019  91.1447099  94.0586141  51.6462006  72.7210280  94.1925601
  51.9520883  71.8607643  93.9051516  52.3714611  73.3127900  93.9924595
  37.9386362  83.1240966  92.5807199  37.7410762  82.5310327  91.8558265
  37.3833026  82.8193176  93.2983137  45.9183086  83.0164073  94.7001792
  45.9731696  82.0637909  94.6244268  45.1074288  83.1723512  95.1843090
  47.0674280  86.9444196  85.9380075  46.6293709  86.2280055  85.4785712
  47.8084720  87.1720311  85.3765166  43.8575446  81.6341132  92.4592171
  43.0443311  81.9335303  92.8657363  44.3534440  81.2396821  93.1766653
  46.0084024  91.6298889  94.3926435  45.9660202  91.8559736  93.4634967
  46.9246722  91.3962264  94.5412236  49.4549657  82.0982957 101.2907065
  49.8099045  82.3254430 102.1501530  50.1021789  82.4301334 100.6684320
  55.1847394  85.2201393  91.9956394  55.0465293  85.4102989  91.0677583
  54.8283613  85.9820776  92.4524445  43.3489520  79.2059488  98.0753406
  43.9888900  79.0648247  97.3776369  42.5167051  78.9194001  97.6992008
  55.2116774  87.2877920  97.0067665  55.6453281  87.1953209  97.8550719
  55.9248355  87.2635420  96.3687681  44.1249824  88.5061918  94.1888398
  44.9190423  88.0112239  93.9870973  43.4141517  87.9779782  93.8256104
  48.9444669  90.8880014  98.5400766  48.9981691  91.4570950  99.3078482
  48.0759450  91.0581899  98.1754803  40.4332588  82.6505000  90.2648151
  39.5030176  82.5889456  90.4818113  40.5290060  82.1280953  89.4684792
  40.3518137  79.1759813  92.8526392  40.6124954  80.0905146  92.7435553
  41.1735309  78.7084256  93.0023005  41.8243062  80.5897570 100.0225217
  42.4966116  80.3814932  99.3737866  40.9972849  80.3919656  99.5830449
  56.0732323  87.3301620  99.5400550  56.2668214  88.2347431  99.7859825
  55.9732942  86.8709040 100.3739136  47.7268634  77.2159511 102.0390878
  47.0796549  77.9149461 101.9455354  48.4969650  77.6495655 102.4067126
  51.1347432  87.4808363 105.1141431  50.9832939  87.2518915 104.1971515
  51.1252112  88.4378965 105.1272776  47.9032769  85.0540276 100.0987698
  48.8324829  85.2051436  99.9256665  47.4823799  85.1424297  99.2436344
  46.7021100  89.0790940  97.8686235  46.5632186  88.7109725  98.7412173
  45.9135697  89.5938580  97.6970193  47.2969252  94.1800037  89.2111772
  47.4721008  93.7088080  90.0257394  46.6102040  94.8065803  89.4393032
  48.2526315  88.4572543  95.2575073  47.9176148  88.4173313  96.1532723
  47.7530261  87.7917259  94.7845483  42.2270559  83.8640173 100.7827654
  42.0890357  83.1320412 101.3839193  43.1375483  83.7749073 100.5011842
  51.1885507  85.8028577  85.5312133  50.5714678  85.0775406  85.4345185
  50.7201996  86.5637938  85.1879207  44.8552860  83.5760132 100.2711334
  45.5652479  82.9353325 100.2297952  44.8122168  83.8273027 101.1937515
  52.8439639  90.5127486 103.1917913  52.7852185  89.8286706 102.5248496
  53.2459157  91.2546476 102.7398539  43.5681794  80.5625350 102.0906973
  43.0319151  80.1116089 102.7428570  42.9798503  80.6971259 101.3477438
  41.8630338  97.3289400  95.9851632  42.1026936  97.9607924  96.6630650
  41.0199534  96.9777440  96.2716991  42.9784053  80.0214002  84.6533437
  42.1013519  79.9002802  84.2895684  43.4541806  79.2300080  84.4012326
  52.8457046  88.4767070 101.4231893  51.9583825  88.1392991 101.5458292
  53.4155597  87.7450101 101.6600658  34.4986193  84.8091161  94.7474944
  35.1857233  84.4952891  94.1595959  34.3434322  85.7132526  94.4742195
  39.3020915  79.6981358  99.1759968  39.2179104  79.0907028  98.4410378
  38.4803622  80.1890376  99.1769464  46.3758199  93.1368522  98.3893136
  46.3028371  93.9423494  98.9012440  45.9335593  93.3360488  97.5641157
  46.1647979  92.3740292  91.8995957  45.3815501  92.9161972  91.9934182
  46.8640724  92.8914272  92.2990199  49.4744629  78.1834922  94.5430163
  49.9713329  77.4304884  94.2231233  48.7031611  78.2199238  93.9773372
  57.3274387  83.8875287  96.1848454  57.3164263  84.7700002  95.8142387
  56.4591766  83.5346838  95.9902991  48.8356883  93.0355356 100.5451294
  49.5484855  93.6702821 100.4727196  48.3446912  93.1319222  99.7291296
  50.5574410  86.9406609  92.1168586  49.6230689  87.0608071  91.9473290
  50.7351078  86.0379076  91.8528596  46.0579598  80.3252305  94.2701847
  45.6877385  79.7723345  94.9582753  46.5538690  79.7210438  93.7176847
  53.9446961  82.7823928  92.6518620  54.4107413  83.6151920  92.5778923
  54.3954462  82.3168910  93.3563879  43.8868797  90.7849800 101.3656865
  44.5878256  91.4186283 101.5186260  43.4163912  91.1264531 100.6052505
  52.0123192  89.1267749  89.6504772  52.2883036  89.0124344  90.5598646
  51.1427691  88.7285234  89.6116945  51.9163624  75.1504515  96.6909522
  51.0026704  75.3808742  96.8591729  52.3456725  75.2342959  97.5423554
  51.6870082  83.3394407  99.1909416  51.0341533  83.5870314  98.5361868
  52.0650462  82.5258545  98.8571893  48.6477256  93.3754100  93.2937586
  48.8299651  92.5575756  93.7565338  49.4710242  93.5921792  92.8562476
  48.9819422  92.3022285  90.5552634  49.5107188  91.7914740  89.9422797
  49.2447641  91.9864816  91.4198167  47.7357656  84.0814218 105.6775453
  47.0598293  83.9808347 106.3477828  48.5585289  83.9253432 106.1411450
  39.4836515  90.3186155  98.2987968  40.0689951  89.5729842  98.4315872
  39.2861353  90.6290111  99.1824632  42.3375170  93.3537402  93.3150410
  41.6685545  93.8383530  92.8314450  42.1988039  93.6006622  94.2293789
  34.0754169  82.8891755  97.0192411  34.1138269  82.3555345  97.8129529
  33.5694462  82.3626960  96.4003388  46.4780438  95.3881145  99.9133069
  47.0298746  95.5512767 100.6782154  46.8186632  95.9785583  99.2413094
  41.4544932  77.7356295 100.5154953  41.5186258  78.5971126 100.1032351
  41.3912052  77.1230297  99.7827312  40.9297204  79.8079428 104.1627988
  41.5569243  79.4256505 104.7765512  40.0725123  79.5893630 104.5283680
  51.3291313  90.2142403 105.7681723  51.8731217  90.8272361 105.2736678
  50.7478158  90.7721981 106.2848736  37.7062747  81.6155857  90.0946343
  38.0016188  80.7066535  90.0413396  36.8050783  81.5943596  89.7727345
  49.6148826  93.3363121  96.8996751  49.4899965  92.5352861  96.3907696
  50.2727917  93.8309314  96.4110721  41.2356994  79.6911854  96.0773891
  40.5143580  80.3047821  95.9381364  42.0250250  80.2269618  95.9990537
  51.6783734  91.1372141  98.5276301  50.7314070  91.0177492  98.4554628
  52.0266507  90.2494639  98.6102562  44.0383307  77.0266280 102.3514543
  44.5617709  77.2728577 103.1140852  43.8195641  77.8586315 101.9317680
  39.4350588  79.2969955  90.2185668  39.1063295  78.4167334  90.0360774
  39.7889959  79.2417623  91.1062057  48.6830167  90.9324857  94.7280653
  48.5355130  90.0041565  94.9088223  49.5083661  90.9544948  94.2437728
  42.5492412  79.5842924  90.5861145  42.8888484  80.1128846  89.8639754
  42.9964532  79.9223331  91.3619712  52.2864289  91.7553416  95.8145526
  53.2110837  91.5496277  95.6769977  52.1179593  91.5069817  96.7234867
  45.2435852  77.9679975 100.0364213  44.9032673  77.1687788 100.4384893
  44.5374859  78.2681686  99.4641047  45.8952324  75.0529288  98.4891536
  46.7178394  74.5789766  98.3670427  46.1390388  75.8319771  98.9890223
  44.5360559  78.0817546  88.7854438  45.2568921  78.4598799  88.2818155
  43.9125863  78.8006423  88.8889416  48.6791682  78.7862695  89.7212770
  48.8955296  79.6687333  89.4201599  48.1985749  78.3948908  88.9918412
  43.4190903  81.7448408  96.2983515  43.2735484  82.0588711  97.1907797
  42.9416107  82.3633309  95.7454414  45.2787286  78.7350956  96.3464405
  45.2648855  77.8392049  96.0096703  45.9959714  78.7421620  96.9802691
  47.1313417  79.1688296  98.3917532  46.8731194  80.0905367  98.3901862
  46.5998457  78.7718731  99.0817996  52.0759605  92.2739083  91.1707617
  52.2496483  91.7085506  90.4181470  52.5688497  93.0739978  90.9887107
  37.8936565  84.2853753  99.2371176  37.3490033  85.0613561  99.3691451
  38.7715915  84.6324557  99.0790298  44.6824182  77.6165336  91.6151975
  44.8040093  76.6881983  91.8142862  44.3926224  77.6304022  90.7030290
  47.5515372  75.3020247  94.7518695  47.5737069  75.3659580  93.7970674
  47.9683431  74.4624756  94.9459201  57.9298997  85.0375506  92.7897917
  58.3730143  84.2882832  92.3917040  57.0525507  85.0285643  92.4071649
  53.0634778  91.5905848  88.2704516  53.7585683  92.2112541  88.4891830
  53.4057928  90.7401199  88.5456894  38.6802587  83.4123649 102.1301333
  37.9384323  83.5606284 102.7165964  38.3595331  83.6731914 101.2668083
  54.9626201  89.0405553  89.7991846  55.4877525  89.3792826  89.0741166
  54.8748554  88.1052569  89.6154981  46.6246250  92.9539627 101.9281723
  46.9333376  92.7088774 102.8004423  47.4221732  93.1586266 101.4400593
  46.6466862  95.1077537  94.1587100  46.2071852  94.6153915  94.8519956
  47.3974979  94.5650504  93.9179175  39.1259201  91.2989078  94.1611728
  39.9517221  90.9992849  93.7810371  38.7753253  90.5296700  94.6101516
  44.0940734  90.6515546  96.2309401  43.4720743  89.9886251  95.9311629
  44.7645601  90.6776678  95.5483049  37.3267806  89.2175404  95.1200661
  36.4899714  88.7897578  94.9384663  37.2991451  89.4107847  96.0571453
  44.1665261  79.1297334 105.8241907  44.2153417  80.0059457 105.4419677
  44.7087776  78.5874727 105.2513551  54.6520107  89.6738457 105.1043044
  53.8615651  89.6562596 104.5647544  54.4153462  90.2126751 105.8592081
  54.7717982  86.5230923 102.4175773  54.8215987  86.3580931 103.3591296
  54.6631905  85.6558182 102.0273654  43.6554241  89.2019469  89.7067862
  43.8042361  89.8854934  89.0534535  44.4620684  89.1824559  90.2217318
  52.0621745  82.5061851 103.7335080  52.9631607  82.3668316 103.4419077
  52.1369719  82.6716306 104.6733257  46.3964550  79.8828706 102.5788266
  45.5267859  80.1762272 102.3070855  46.6324030  80.4669151 103.2995530
  56.2736179  88.9427865 102.6617795  55.9820987  89.3057846 103.4981255
  55.6608310  88.2294873 102.4831127  57.4731861  86.5080745  95.1820365
  58.3078753  86.9470549  95.3457925  57.6090990  86.0319398  94.3628611
  54.5223367  84.0660480 101.1297852  54.9977489  84.2588126 100.3216704
  53.5988933  84.1219665 100.8841236  41.4106874  85.2284647  90.7128931
  41.1652916  84.3246977  90.9109141  41.5802788  85.2301797  89.7708409
  49.1003584  76.1008323 100.0953686  49.6185528  76.8369350  99.7700175
  48.7458716  76.4072316 100.9300446  40.6802521  80.9613004  88.2115092
  39.9871766  81.0357359  87.5555128  40.4354273  80.1973348  88.7336609
  49.3516178  72.5208606  95.6154583  49.6317932  71.8531795  96.2415010
  50.1366785  72.7137701  95.1029247  47.1549646  91.6967600  87.1779609
  46.5823613  92.3157787  86.7250081  47.7282440  92.2466961  87.7119531
  53.2225036  80.9426240  99.3626158  54.1742459  81.0424337  99.3838382
  53.0528487  80.1504508  99.8724242  51.2439416  78.0281823  99.5485559
  50.6489348  78.3086836  98.8532048  50.9589112  78.5175724 100.3202300
  50.3746906  91.9804750  88.3088192  51.3077579  91.9150311  88.5121067
  50.2870119  92.8161017  87.8502724  53.0034923  91.2970620  85.2692139
  52.9248554  90.9630484  86.1627897  53.8244590  91.7892388  85.2683611
  55.7013114  84.1632359  98.4768458  55.6689434  83.2248360  98.6628142
  56.3113738  84.2416396  97.7434283  47.5396445  83.0328412  84.5195662
  48.4855550  82.9034620  84.5884080  47.1610690  82.2943074  84.9965090
  55.8507602  80.9543403  98.5226741  55.3346651  80.1701859  98.3356670
  56.7347551  80.6262119  98.6873260  53.5118329  74.6984418  94.4822554
  53.3143151  74.3899507  95.3665886  54.1218035  75.4246057  94.6120483
  61.5189664  85.2248366  97.6174495  62.2493052  84.9633654  98.1782198
  60.9096609  84.4877088  97.6576563  59.6004961  83.3656229  98.2148946
  58.8738125  83.2312194  97.6065437  59.1852248  83.6733057  99.0205664
  47.4235137  87.0846158 105.9796319  48.3438147  87.2624757 106.1736365
  47.3884720  86.1402204 105.8276018  45.7239362  80.9578389  84.4550547
  44.8170817  80.6611501  84.5313261  46.0015343  80.6608207  83.5884833
  36.6417302  82.2784752  94.9049593  36.3220087  81.4250060  94.6123967
  36.0950731  82.4933330  95.6607561  40.4197210  84.9947193  98.6219100
  40.6383220  85.9264301  98.6407134  40.8322984  84.6355168  99.4073904
  47.3401428  75.5015278  90.6094788  46.5302156  75.1562363  90.9850034
  48.0285845  75.1922822  91.1982400  49.2691976  74.5793325  92.2319085
  49.8223015  74.9988779  92.8909108  49.5062062  73.6529073  92.2742041
  45.2925075  80.5680399 108.0121849  45.1921802  81.5174756 107.9433940
  45.0746617  80.2398638 107.1397919  44.4938147  77.8165324  84.5962526
  45.3557311  78.1420222  84.8558344  44.6788491  77.0296820  84.0835592
  36.5105562  85.8987664  96.8742715  35.8169034  85.4841616  96.3612669
  37.2578553  85.9408200  96.2776134  52.6470783  76.6893850  91.7397749
  52.0669452  77.3478654  91.3575802  52.3806716  75.8671195  91.3285167
  51.0974349  76.0898908  93.9419070  51.5974128  76.2015443  93.1333388
  51.7409957  75.7859961  94.5819878  45.1556345  83.9977538 106.8286911
  44.6723427  84.7977898 107.0350800  45.2417284  84.0085483 105.8754355
  38.4242305  85.8305917  94.7508730  38.4012993  85.9293605  93.7990613
  38.7342941  86.6771068  95.0725896  41.0829683  87.8882072  98.8655344
  42.0372936  87.8566015  98.7985276  40.8842206  87.4272696  99.6805570
  41.6729065  86.4583188 101.4326142  42.4921954  86.9527267 101.4560979
  41.9465873  85.5415157 101.4043709  51.4295661  78.8493941  90.7954097
  50.5421516  79.1343591  90.5774292  51.8449650  78.6887704  89.9481374
  54.7810197  78.8740462  94.5108437  55.5570587  79.3636914  94.7833054
  54.0558331  79.2998516  94.9680306  57.2182756  79.5868081  95.5682377
  57.8127247  79.3463817  94.8575686  57.2909340  78.8675212  96.1955914
  39.4379912  93.4301692  95.8825542  39.3034379  92.6702093  95.3163540
  39.0211974  94.1542592  95.4154331  50.5738875  88.6138615  84.8902117
  51.2774725  88.8188618  85.5059773  49.8501523  89.1815377  85.1551201
  51.4036685  84.3648477  91.0104388  51.3471886  84.8217028  90.1712020
  51.9565027  83.6039161  90.8327230  55.2141491  80.1538209  91.8354507
  54.9578425  79.7534844  92.6662715  54.5894359  80.8682003  91.7104646
  59.5253829  82.8934282  94.3425799  58.9653387  82.9627471  95.1157361
  58.9197332  82.7175266  93.6225295  42.5949037  94.3271009  96.0943985
  42.4781422  95.2716441  95.9922675  41.7741484  94.0244571  96.4829784
  52.4825572  89.0521145  86.9400578  53.3171176  88.6202343  86.7578052
  52.3209915  88.8803158  87.8677472  52.1371464  85.5553258  88.3056917
  52.0820268  85.3897529  87.3645361  51.5117519  86.2629291  88.4619107
  36.9263979  80.7921322 102.1318339  37.5722843  80.2820276 102.6205564
  36.7181130  81.5290004 102.7061764  49.4517371  87.8602170 107.6310480
  50.3208531  88.0342822 107.2697115  48.9724123  88.6796587 107.5086209
  45.4467590  75.0561367  87.8842235  45.4346259  76.0003207  88.0410506
  46.3391011  74.8731512  87.5901696  43.6203552  94.9799271  99.3099913
  44.5230798  95.0122881  99.6266408  43.3940922  94.0499722  99.3246249
  45.3757154  93.7330257  95.9709992  44.4252785  93.7332119  95.8574364
  45.6789640  92.9862992  95.4546026  49.2619709  71.6504144  92.1388172
  48.4952105  71.0962630  92.2844854  49.6730414  71.7226012  93.0002324
  41.2661470  77.9388939 106.2293353  42.1292932  77.5825744 106.4396678
  40.6926881  77.6002834 106.9168758  61.1109847  99.5690796  97.0355754
  61.7488257  99.4497543  96.3319094  60.9930690 100.5171640  97.0943706
  57.9199553  99.5218224  96.9717279  57.5818065  99.4059289  96.0837814
  58.7889322  99.1209389  96.9518285  53.7786369 101.3753700  92.9614170
  53.2151234 101.2843637  92.1930458  53.6638764 100.5553605  93.4416662
  58.4019336 100.6753076 102.9303484  58.3907977 100.2805874 102.0583988
  58.5639976  99.9419148 103.5237256  51.3250801 102.8704892  95.7998390
  52.1172093 102.5295717  95.3844690  51.5647451 102.9799867  96.7200544
  59.3585928 105.0424668  88.2728635  58.7073908 105.6278748  87.8862649
  60.1530291 105.5730863  88.3323672  53.2841555 102.1313805  88.6715769
  54.0572431 101.5842792  88.5328645  53.6366954 102.9958054  88.8830231
  55.1226597 103.4590187 101.8782668  54.8316463 104.3635818 101.7629335
  55.7583582 103.5006715 102.5926738  56.0482804 100.8367036  98.4684028
  56.6446377 100.6123058  97.7540991  56.1057776 100.0951781  99.0709476
  55.6207833  98.2906471  86.3034219  55.8733353  97.7687993  85.5417682
  54.6832392  98.1272617  86.4060903  60.6651116  97.2942250  94.1108962
  61.4514205  96.8761673  93.7599379  60.9289820  98.1988342  94.2790611
  60.8361193 102.7315100  88.8097619  60.2007026 102.8049726  89.5218524
  60.5058599 103.3208699  88.1316698  55.3404121 100.1934577  88.5058594
  55.2240380  99.5179481  89.1739678  55.4506381  99.7066951  87.6890747
  57.6835662  99.6544724  92.2105283  57.3193870  99.1275345  92.9218205
  58.5402778  99.2643193  92.0371769  57.3241149  94.6834624  87.2066632
  57.4915552  95.5514860  87.5737103  57.1338318  94.8461906  86.2827921
  60.0816483 103.1451603  98.8732462  59.7817206 104.0476642  98.7648269
  59.7367542 102.8783786  99.7253615  53.5328964  99.5965400  94.9069167
  52.6079461  99.4641614  95.1146858  53.7813377 100.3759619  95.4039109
  57.3030370  97.1392282  88.1913299  57.1829995  97.5849332  89.0298779
  56.6082959  97.4877599  87.6326837  50.8937775  99.2398673  95.7412956
  51.0230156  99.4933152  96.6552367  50.2135226  99.8326381  95.4217611
  55.0637262 109.9095923  91.8403430  54.9861292 110.8603748  91.9191910
  54.4598906 109.5641796  92.4978356  57.5554492  97.0823789 104.4964797
  56.7787826  97.6417709 104.4867661  58.1945055  97.5680572 105.0179667
  55.8100864  99.8909242 104.0582764  56.5515549 100.4294286 103.7817587
  55.1037850 100.5175531 104.2154316  61.2856204 102.0338383 102.6554925
  61.6939560 101.5920793 101.9109558  60.5633466 101.4591010 102.9089118
  57.6387274  96.9710989 100.0288482  58.4848469  97.3950403 100.1723131
  57.5785912  96.3144614 100.7227045  61.6085019 102.5939573  96.4107214
  60.9793881 102.7585287  95.7083282  61.2210681 103.0081183  97.1818178
  65.4874251 103.5294011  93.7651578  64.8025289 103.9092912  93.2148611
  65.5718100 104.1389338  94.4983526  60.7886719  94.6315358 101.6869656
  60.5447651  95.3857418 101.1503932  61.0646650  95.0100705 102.5216903
  62.7425182 101.1753970 100.3646921  62.9542077 101.8185730  99.6881302
  62.6954930 100.3416287  99.8968851  60.3451411  93.7871791  97.2683494
  59.4835890  94.0853044  97.5600231  60.3713846  94.0042190  96.3364526
  57.1612981 102.3313981  93.6757299  57.6251326 102.6101684  92.8861922
  56.8969779 101.4297426  93.4930390  54.0537062 101.8785463  96.6137062
  54.6238419 102.3072731  95.9754547  54.6445174 101.5968047  97.3121248
  56.0981867  98.4537134  90.4846864  56.8005910  98.9058177  90.9520791
  55.7662495  97.8120952  91.1126757  54.5462228  97.0448890 104.8598074
  53.9160889  97.7265171 105.0933471  54.4398316  96.9331972 103.9151212
  49.8407201  96.7120686  95.7863998  49.0506255  96.9678215  95.3104109
  50.3318448  97.5269024  95.8916038  63.8571010 104.0525925  98.5369279
  64.6788454 103.6506113  98.2551960  63.8533413 103.9494160  99.4885395
  51.7921946  97.0765266  92.7447475  50.9953109  97.1883960  93.2630970
  51.5647538  97.4151918  91.8788365  57.6227614 103.6009969 100.6929989
  57.6872046 104.0630376 101.5288161  56.9138538 102.9707334 100.8212299
  48.1244904  96.9651177  98.2178989  48.3752942  97.8498187  98.4836565
  48.6604452  96.7855778  97.4454081  57.3375631 105.2678076  90.5608970
  57.2021306 106.1129612  90.9893817  57.8785444 105.4697354  89.7974903
  53.8242971  91.3469656 107.2223325  53.4309916  90.7935855 107.8970969
  54.6409111  91.6580235 107.6129842  50.7905029 102.7853514  91.1336895
  51.3029549 103.5796765  91.2842459  51.4427742 102.0879805  91.0670496
  52.5999913 105.9019271  93.2159648  52.7766542 106.8237235  93.0280632
  53.3956747 105.5877690  93.6454028  56.7410932  92.7627535 104.8143581
  57.4820645  93.3634688 104.7348044  56.9728855  92.0205173 104.2561624
  51.8852270  97.9483902 103.0921811  51.7705785  97.0469160 103.3928910
  51.0296788  98.1947599 102.7406628  58.9644108 105.8901643 104.6909312
  58.5207962 105.1038021 104.3730216  59.6261321 106.0780793 104.0253202
  53.7231229 107.4197444  99.2169990  54.2738654 107.2914508  98.4446984
  52.8842705 107.7192333  98.8664883  61.0625346 106.1704443 102.7190713
  61.0443821 106.9913324 102.2270982  61.9845266 106.0458518 102.9440854
  57.5198400 103.6848572 103.5614221  58.0526737 102.9236860 103.3313529
  56.9912481 103.3922224 104.3038376  60.6868095  88.7908638  99.0907863
  60.3432364  89.6810280  99.0146974  61.0547057  88.6010296  98.2277448
  48.7553945 101.1142169  91.9096465  49.5929167 101.5239177  91.6930173
  48.9332213 100.1741611  91.8796659  58.2365489  93.6266950  92.6565537
  57.3807085  93.2373800  92.4771175  58.6492440  93.7058911  91.7965322
  59.7664635  91.1613293  97.0557096  59.2629431  91.1243428  96.2424902
  60.0595242  92.0706036  97.1153753  56.0107521  91.2452023  96.0623278
  56.8760518  91.0494832  95.7029167  56.0785030  91.0162375  96.9892635
  60.4404681  96.6544341  89.4240079  60.1354816  96.9690490  90.2750223
  61.3935123  96.7325761  89.4667412  58.8851113 102.8134565  91.0733033
  58.3572474 102.0787324  90.7606271  58.3838615 103.5909241  90.8273002
  63.8643959 101.0083585  96.1900080  63.2067633 101.6982847  96.2780208
  64.6684358 101.3980017  96.5334066  53.6169840  93.4754231  93.4339645
  54.1913592  93.2529412  92.7012838  54.2040823  93.5442925  94.1868246
  62.6749417  99.3627958  94.2404021  63.1881299  99.9957950  94.7425731
  63.3250641  98.7629153  93.8747381  53.9439427  95.5058692  87.4535530
  53.1076740  95.8433378  87.7744805  53.8044197  95.3707672  86.5162667
  55.9192508  90.3495480  92.1614714  55.2656920  90.0344497  91.5371329
  55.8772982  89.7271220  92.8874537  57.0303713 100.6314775  84.0768006
  56.1230775 100.4004028  84.2759155  57.5274745  99.8352394  84.2641988
  59.9371792 109.3412282  86.9964693  59.2633490 109.6443979  87.6049650
  60.3237614 110.1441362  86.6470150  59.1530248  96.8377413  96.4862362
  58.2352810  97.0592360  96.3284050  59.5690392  96.9123724  95.6274069
  59.9365296  98.2368829  91.6165042  60.6837115  98.7490226  91.3072164
  60.2056886  97.9152882  92.4769436  58.2091946 100.7327370  88.5991996
  57.3003165 100.4486403  88.6964466  58.2387030 101.1526448  87.7395303
  63.4411214 104.3433959  92.3683164  62.9873541 103.5024869  92.4248354
  62.8105180 104.9795358  92.7057944  62.3844133  95.2725945  93.5983831
  61.6466890  94.7603331  93.9294074  62.6370907  94.8326327  92.7867108
  61.8844153 106.1810456  93.3032982  62.1767127 106.7415513  92.5845348
  62.3942773 106.4739017  94.0586141  62.4855761  88.0502197  94.1925601
  62.7914637  87.1899561  93.9051516  63.2108365  88.6419817  93.9924595
  48.7780117  98.4532884  92.5807199  48.5804516  97.8602245  91.8558265
  48.2226781  98.1485094  93.2983137  56.7576840  98.3455990  94.7001792
  56.8125450  97.3929827  94.6244268  55.9468042  98.5015429  95.1843090
  57.9068034 102.2736113  85.9380075  57.4687464 101.5571972  85.4785712
  58.6478475 102.5012228  85.3765166  54.6969200  96.9633050  92.4592171
  53.8837066  97.2627221  92.8657363  55.1928194  96.5688739  93.1766653
  56.8477778 106.9590807  94.3926435  56.8053957 107.1851653  93.4634967
  57.7640477 106.7254182  94.5412236  60.2943412  97.4274875 101.2907065
  60.6492800  97.6546348 102.1501530  60.9415543  97.7593251 100.6684320
  54.1883275  94.5351406  98.0753406  54.8282654  94.3940165  97.3776369
  53.3560805  94.2485919  97.6992008  54.9643579 103.8353836  94.1888398
  55.7584177 103.3404156  93.9870973  54.2535271 103.3071699  93.8256104
  59.7838423 106.2171932  98.5400766  59.8375446 106.7862868  99.3078482
  58.9153205 106.3873817  98.1754803  51.2726342  97.9796918  90.2648151
  50.3423930  97.9181373  90.4818113  51.3683814  97.4572871  89.4684792
  51.1911891  94.5051731  92.8526392  51.4518709  95.4197064  92.7435553
  52.0129064  94.0376173  93.0023005  52.6636817  95.9189488 100.0225217
  53.3359870  95.7106850  99.3737866  51.8366603  95.7211574  99.5830449
  58.5662389  92.5451429 102.0390878  57.9190304  93.2441378 101.9455354
  59.3363404  92.9787573 102.4067126  61.9741187 102.8100281 105.1141431
  61.8226693 102.5810833 104.1971515  61.9645866 103.7670882 105.1272776
  58.7426523 100.3832194 100.0987698  59.6718583 100.5343353  99.9256665
  58.3217553 100.4716214  99.2436344  57.5414855 104.4082858  97.8686235
  57.4025941 104.0401642  98.7412173  56.7529451 104.9230497  97.6970193
  58.1363007 109.5091955  89.2111772  58.3114762 109.0379998  90.0257394
  57.4495795 110.1357721  89.4393032  59.0920070 103.7864461  95.2575073
  58.7569903 103.7465231  96.1532723  58.5924016 103.1209177  94.7845483
  53.0664314  99.1932091 100.7827654  52.9284112  98.4612330 101.3839193
  53.9769237  99.1040991 100.5011842  55.6946615  98.9052050 100.2711334
  56.4046233  98.2645242 100.2297952  55.6515923  99.1564945 101.1937515
  63.6833393 105.8419403 103.1917913  63.6245939 105.1578624 102.5248496
  64.0852912 106.5838393 102.7398539  54.4075549  95.8917268 102.0906973
  53.8712906  95.4408006 102.7428570  53.8192257  96.0263177 101.3477438
  52.7024092 112.6581317  95.9851632  52.9420690 113.2899841  96.6630650
  51.8593289 112.3069357  96.2716991  53.8177808  95.3505919  84.6533437
  52.9407274  95.2294720  84.2895684  54.2935561  94.5591998  84.4012326
  63.6850801 103.8058987 101.4231893  62.7977579 103.4684909 101.5458292
  64.2549352 103.0742019 101.6600658  45.3379948 100.1383079  94.7474944
  46.0250988  99.8244809  94.1595959  45.1828076 101.0424444  94.4742195
  50.1414670  95.0273276  99.1759968  50.0572859  94.4198945  98.4410378
  49.3197376  95.5182294  99.1769464  57.2151954 108.4660440  98.3893136
  57.1422125 109.2715411  98.9012440  56.7729347 108.6652406  97.5641157
  57.0041734 107.7032210  91.8995957  56.2209255 108.2453890  91.9934182
  57.7034479 108.2206189  92.2990199  60.3138384  93.5126839  94.5430163
  60.8107083  92.7596802  94.2231233  59.5425365  93.5491156  93.9773372
  59.6750637 108.3647274 100.5451294  60.3878610 108.9994739 100.4727196
  59.1840666 108.4611140  99.7291296  61.3968164 102.2698526  92.1168586
  60.4624443 102.3899989  91.9473290  61.5744833 101.3670993  91.8528596
  56.8973352  95.6544222  94.2701847  56.5271140  95.1015263  94.9582753
  57.3932445  95.0502356  93.7176847  54.7262551 106.1141717 101.3656865
  55.4272010 106.7478200 101.5186260  54.2557666 106.4556449 100.6052505
  62.8516947 104.4559667  89.6504772  63.1276791 104.3416262  90.5598646
  61.9821446 104.0577152  89.6116945  62.5263837  98.6686325  99.1909416
  61.8735287  98.9162232  98.5361868  62.9044217  97.8550463  98.8571893
  59.4871011 108.7046018  93.2937586  59.6693405 107.8867674  93.7565338
  60.3103997 108.9213710  92.8562476  59.8213176 107.6314203  90.5552634
  60.3500943 107.1206658  89.9422797  60.0841396 107.3156733  91.4198167
  58.5751410  99.4106136 105.6775453  57.8992047  99.3100265 106.3477828
  59.3979044  99.2545349 106.1411450  50.3230269 105.6478072  98.2987968
  50.9083706 104.9021760  98.4315872  50.1255108 105.9582029  99.1824632
  53.1768924 108.6829320  93.3150410  52.5079300 109.1675447  92.8314450
  53.0381794 108.9298540  94.2293789  44.9147924  98.2183672  97.0192411
  44.9532023  97.6847263  97.8129529  44.4088217  97.6918878  96.4003388
  57.3174193 110.7173063  99.9133069  57.8692501 110.8804685 100.6782154
  57.6580386 111.3077501  99.2413094  52.2938686  93.0648213 100.5154953
  52.3580013  93.9263044 100.1032351  52.2305806  92.4522215  99.7827312
  51.7690959  95.1371346 104.1627988  52.3962997  94.7548423 104.7765512
  50.9118877  94.9185547 104.5283680  62.1685067 105.5434321 105.7681723
  62.7124971 106.1564279 105.2736678  61.5871912 106.1013899 106.2848736
  48.5456501  96.9447775  90.0946343  48.8409942  96.0358453  90.0413396
  47.6444537  96.9235514  89.7727345  60.4542580 108.6655039  96.8996751
  60.3293720 107.8644779  96.3907696  61.1121671 109.1601232  96.4110721
  52.0750748  95.0203771  96.0773891  51.3537334  95.6339739  95.9381364
  52.8644004  95.5561536  95.9990537  62.5177489 106.4664059  98.5276301
  61.5707824 106.3469410  98.4554628  62.8660262 105.5786557  98.6102562
  54.8777062  92.3558198 102.3514543  55.4011464  92.6020494 103.1140852
  54.6589395  93.1878233 101.9317680  50.2744343  94.6261872  90.2185668
  49.9457049  93.7459251  90.0360774  50.6283714  94.5709541  91.1062057
  59.5223922 106.2616775  94.7280653  59.3748884 105.3333482  94.9088223
  60.3477415 106.2836866  94.2437728  53.3886166  94.9134842  90.5861145
  53.7282239  95.4420763  89.8639754  53.8358287  95.2515248  91.3619712
  63.1258044 107.0845334  95.8145526  64.0504591 106.8788195  95.6769977
  62.9573347 106.8361735  96.7234867  56.0829607  93.2971893 100.0364213
  55.7426427  92.4979706 100.4384893  55.3768613  93.5973604  99.4641047
  56.7346079  90.3821205  98.4891536  57.5572148  89.9081683  98.3670427
  56.9784142  91.1611689  98.9890223  55.3754313  93.4109464  88.7854438
  56.0962676  93.7890716  88.2818155  54.7519617  94.1298340  88.8889416
  59.5185436  94.1154613  89.7212770  59.7349051  94.9979251  89.4201599
  59.0379503  93.7240826  88.9918412  54.2584658  97.0740326  96.2983515
  54.1129238  97.3880629  97.1907797  53.7809861  97.6925226  95.7454414
  56.1181040  94.0642874  96.3464405  56.1042609  93.1683967  96.0096703
  56.8353469  94.0713538  96.9802691  57.9707171  94.4980214  98.3917532
  57.7124949  95.4197285  98.3901862  57.4392212  94.1010649  99.0817996
  62.9153360 107.6031001  91.1707617  63.0890237 107.0377424  90.4181470
  63.4082251 108.4031896  90.9887107  48.7330320  99.6145670  99.2371176
  48.1883788 100.3905478  99.3691451  49.6109670  99.9616475  99.0790298
  55.5217936  92.9457254  91.6151975  55.6433848  92.0173900  91.8142862
  55.2319979  92.9595940  90.7030290  58.3909127  90.6312165  94.7518695
  58.4130824  90.6951498  93.7970674  58.8077186  89.7916673  94.9459201
  49.5196342  98.7415567 102.1301333  48.7778078  98.8898202 102.7165964
  49.1989086  99.0023832 101.2668083  57.4640004 108.2831545 101.9281723
  57.7727131 108.0380692 102.8004423  58.2615486 108.4878183 101.4400593
  57.4860616 110.4369454  94.1587100  57.0465607 109.9445833  94.8519956
  58.2368733 109.8942422  93.9179175  49.9652955 106.6280995  94.1611728
  50.7910975 106.3284767  93.7810371  49.6147007 105.8588618  94.6101516
  54.9334488 105.9807463  96.2309401  54.3114498 105.3178168  95.9311629
  55.6039355 106.0068595  95.5483049  48.1661560 104.5467322  95.1200661
  47.3293469 104.1189496  94.9384663  48.1385206 104.7399765  96.0571453
  55.0059016  94.4589251 105.8241907  55.0547171  95.3351374 105.4419677
  55.5481530  93.9166645 105.2513551  65.4913862 105.0030375 105.1043044
  64.7009405 104.9854514 104.5647544  65.2547216 105.5418668 105.8592081
  65.6111737 101.8522841 102.4175773  65.6609742 101.6872849 103.3591296
  65.5025660 100.9850100 102.0273654  54.4947995 104.5311387  89.7067862
  54.6436116 105.2146851  89.0534535  55.3014439 104.5116477  90.2217318
  62.9015499  97.8353769 103.7335080  63.8025362  97.6960234 103.4419077
  62.9763474  98.0008224 104.6733257  57.2358304  95.2120624 102.5788266
  56.3661614  95.5054190 102.3070855  57.4717785  95.7961069 103.2995530
  67.1129933 104.2719783 102.6617795  66.8214742 104.6349763 103.4981255
  66.5002065 103.5586791 102.4831127  65.3617122  99.3952397 101.1297852
  65.8371243  99.5880044 100.3216704  64.4382687  99.4511583 100.8841236
  52.2500628 100.5576564  90.7128931  52.0046670  99.6538894  90.9109141
  52.4196543 100.5593715  89.7708409  59.9397338  91.4300241 100.0953686
  60.4579282  92.1661268  99.7700175  59.5852471  91.7364234 100.9300446
  51.5196276  96.2904922  88.2115092  50.8265521  96.3649277  87.5555128
  51.2748028  95.5265266  88.7336609  60.1909932  87.8500523  95.6154583
  60.4711686  87.1823712  96.2415010  60.9760539  88.0429619  95.1029247
  57.9943401 107.0259517  87.1779609  57.4217368 107.6449704  86.7250081
  58.5676195 107.5758879  87.7119531  58.3790199  98.3620330  84.5195662
  59.3249304  98.2326538  84.5884080  58.0004444  97.6234992  84.9965090
  58.2628892 102.4138076 105.9796319  59.1831901 102.5916675 106.1736365
  58.2278475 101.4694122 105.8276018  56.5633116  96.2870306  84.4550547
  55.6564572  95.9903419  84.5313261  56.8409097  95.9900124  83.5884833
  47.4811057  97.6076670  94.9049593  47.1613841  96.7541978  94.6123967
  46.9344485  97.8225248  95.6607561  51.2590964 100.3239111  98.6219100
  51.4776974 101.2556219  98.6407134  51.6716738  99.9647085  99.4073904
  58.1795182  90.8307196  90.6094788  57.3695911  90.4854281  90.9850034
  58.8679599  90.5214740  91.1982400  60.1085730  89.9085243  92.2319085
  60.6616769  90.3280696  92.8909108  60.3455817  88.9820991  92.2742041
  56.1318830  95.8972317 108.0121849  56.0315557  96.8466674 107.9433940
  55.9140372  95.5690555 107.1397919  55.3331901  93.1457242  84.5962526
  56.1951065  93.4712140  84.8558344  55.5182245  92.3588738  84.0835592
  47.3499317 101.2279581  96.8742715  46.6562788 100.8133534  96.3612669
  48.0972308 101.2700118  96.2776134  61.9368104  91.4190826  93.9419070
  62.4367882  91.5307360  93.1333388  62.5803712  91.1151879  94.5819878
  55.9950100  99.3269455 106.8286911  55.5117181 100.1269816 107.0350800
  56.0811039  99.3377400 105.8754355  49.2636059 101.1597835  94.7508730
  49.2406748 101.2585522  93.7990613  49.5736696 102.0062986  95.0725896
  51.9223437 103.2173990  98.8655344  52.8766691 103.1857932  98.7985276
  51.7235961 102.7564614  99.6805570  52.5122819 101.7875106 101.4326142
  53.3315708 102.2819185 101.4560979  52.7859627 100.8707074 101.4043709
  50.2773666 108.7593610  95.8825542  50.1428134 107.9994010  95.3163540
  49.8605728 109.4834509  95.4154331  62.2430439  99.6940394  91.0104388
  62.1865641 100.1508946  90.1712020  62.7958782  98.9331079  90.8327230
  53.4342792 109.6562927  96.0943985  53.3175176 110.6008359  95.9922675
  52.6135238 109.3536488  96.4829784  47.7657734  96.1213240 102.1318339
  48.4116597  95.6112194 102.6205564  47.5574885  96.8581922 102.7061764
  60.2911126 103.1894088 107.6310480  61.1602285 103.3634740 107.2697115
  59.8117877 104.0088504 107.5086209  56.2861344  90.3853285  87.8842235
  56.2740014  91.3295125  88.0410506  57.1784766  90.2023430  87.5901696
  54.4597306 110.3091189  99.3099913  55.3624553 110.3414799  99.6266408
  54.2334676 109.3791639  99.3246249  56.2150908 109.0622175  95.9709992
  55.2646539 109.0624037  95.8574364  56.5183394 108.3154910  95.4546026
  60.1013464  86.9796061  92.1388172  59.3345859  86.4254548  92.2844854
  60.5124169  87.0517930  93.0002324  52.1055225  93.2680857 106.2293353
  52.9686686  92.9117662 106.4396678  51.5320635  92.9294752 106.9168758
  64.6180124 116.7045618  92.9614170  64.0544989 116.6135555  92.1930458
  64.5032519 115.8845522  93.4416662  69.2413091 116.0044993 102.9303484
  69.2301732 115.6097792 102.0583988  69.4033730 115.2711066 103.5237256
  62.1644555 118.1996810  95.7998390  62.9565847 117.8587634  95.3844690
  62.4041206 118.3091785  96.7200544  64.1235309 117.4605723  88.6715769
  64.8966185 116.9134710  88.5328645  64.4760708 118.3249972  88.8830231
  65.9620352 118.7882105 101.8782668  65.6710218 119.6927736 101.7629335
  66.5977336 118.8298633 102.5926738  66.8876559 116.1658954  98.4684028
  67.4840131 115.9414976  97.7540991  66.9451530 115.4243699  99.0709476
  66.1797876 115.5226495  88.5058594  66.0634134 114.8471398  89.1739678
  66.2900136 115.0358869  87.6890747  64.3722719 114.9257317  94.9069167
  63.4473215 114.7933532  95.1146858  64.6207132 115.7051537  95.4039109
  61.7331530 114.5690591  95.7412956  61.8623911 114.8225070  96.6552367
  61.0528981 115.1618299  95.4217611  65.9031017 125.2387841  91.8403430
  65.8255047 126.1895666  91.9191910  65.2992660 124.8933713  92.4978356
  68.3948247 112.4115706 104.4964797  67.6181581 112.9709627 104.4867661
  69.0338810 112.8972489 105.0179667  66.6494619 115.2201160 104.0582764
  67.3909303 115.7586204 103.7817587  65.9431604 115.8467448 104.2154316
  72.1249959 117.3630300 102.6554925  72.5333315 116.9212711 101.9109558
  71.4027220 116.7882928 102.9089118  68.4781029 112.3002907 100.0288482
  69.3242224 112.7242321 100.1723131  68.4179666 111.6436531 100.7227045
  64.8930816 117.2077380  96.6137062  65.4632173 117.6364649  95.9754547
  65.4838928 116.9259965  97.3121248  65.3855983 112.3740808 104.8598074
  64.7554643 113.0557089 105.0933471  65.2792071 112.2623890 103.9151212
  60.6800955 112.0412604  95.7863998  59.8900009 112.2970132  95.3104109
  61.1712202 112.8560942  95.8916038  62.6315700 112.4057183  92.7447475
  61.8346864 112.5175877  93.2630970  62.4041293 112.7443835  91.8788365
  68.4621368 118.9301886 100.6929989  68.5265801 119.3922294 101.5288161
  67.7532292 118.2999251 100.8212299  58.9638658 112.2943094  98.2178989
  59.2146697 113.1790104  98.4836565  59.4998206 112.1147696  97.4454081
  64.6636725 106.6761574 107.2223325  64.2703671 106.1227772 107.8970969
  65.4802866 106.9872152 107.6129842  61.6298783 118.1145432  91.1336895
  62.1423304 118.9088682  91.2842459  62.2821496 117.4171722  91.0670496
  63.4393668 121.2311188  93.2159648  63.6160296 122.1529153  93.0280632
  64.2350501 120.9169607  93.6454028  67.5804686 108.0919453 104.8143581
  68.3214400 108.6926606 104.7348044  67.8122609 107.3497091 104.2561624
  62.7246024 113.2775820 103.0921811  62.6099540 112.3761077 103.3928910
  61.8690542 113.5239517 102.7406628  69.8037862 121.2193560 104.6909312
  69.3601716 120.4329939 104.3730216  70.4655076 121.4072711 104.0253202
  64.5624983 122.7489362  99.2169990  65.1132408 122.6206425  98.4446984
  63.7236459 123.0484251  98.8664883  71.9019100 121.4996360 102.7190713
  71.8837576 122.3205241 102.2270982  72.8239020 121.3750436 102.9440854
  68.3592154 119.0140490 103.5614221  68.8920491 118.2528778 103.3313529
  67.8306235 118.7214142 104.3038376  59.5947700 116.4434086  91.9096465
  60.4322922 116.8531095  91.6930173  59.7725968 115.5033528  91.8796659
  67.8697467 115.9606693  84.0768006  66.9624529 115.7295946  84.2759155
  68.3668499 115.1644312  84.2641988  70.7765546 124.6704200  86.9964693
  70.1027245 124.9735897  87.6049650  71.1631368 125.4733280  86.6470150
  59.6173871 113.7824802  92.5807199  59.4198271 113.1894162  91.8558265
  59.0620535 113.4777012  93.2983137  67.5970595 113.6747908  94.7001792
  67.6519205 112.7221744  94.6244268  66.7861797 113.8307347  95.1843090
  67.6871533 122.2882725  94.3926435  67.6447711 122.5143571  93.4634967
  68.6034231 122.0546099  94.5412236  71.1337166 112.7566792 101.2907065
  71.4886554 112.9838265 102.1501530  71.7809298 113.0885169 100.6684320
  65.0277029 109.8643323  98.0753406  65.6676409 109.7232082  97.3776369
  64.1954560 109.5777837  97.6992008  65.8037333 119.1645754  94.1888398
  66.5977932 118.6696074  93.9870973  65.0929026 118.6363617  93.8256104
  62.1120097 113.3088835  90.2648151  61.1817685 113.2473291  90.4818113
  62.2077569 112.7864788  89.4684792  62.0305646 109.8343648  92.8526392
  62.2912463 110.7488982  92.7435553  62.8522818 109.3668091  93.0023005
  63.5030571 111.2481405 100.0225217  64.1753625 111.0398768  99.3737866
  62.6760358 111.0503491  99.5830449  72.8134941 118.1392199 105.1141431
  72.6620448 117.9102750 104.1971515  72.8039621 119.0962800 105.1272776
  69.5820278 115.7124111 100.0987698  70.5112338 115.8635271  99.9256665
  69.1611308 115.8008132  99.2436344  68.3808609 119.7374776  97.8686235
  68.2419695 119.3693560  98.7412173  67.5923206 120.2522415  97.6970193
  68.9756761 124.8383872  89.2111772  69.1508517 124.3671915  90.0257394
  68.2889549 125.4649638  89.4393032  63.9058068 114.5224008 100.7827654
  63.7677866 113.7904247 101.3839193  64.8162992 114.4332909 100.5011842
  66.5340369 114.2343968 100.2711334  67.2439988 113.5937160 100.2297952
  66.4909677 114.4856863 101.1937515  65.2469303 111.2209186 102.0906973
  64.7106660 110.7699924 102.7428570  64.6586012 111.3555094 101.3477438
  63.5417847 127.9873235  95.9851632  63.7814445 128.6191759  96.6630650
  62.6987043 127.6361275  96.2716991  56.1773702 115.4674997  94.7474944
  56.8644742 115.1536727  94.1595959  56.0221831 116.3716361  94.4742195
  60.9808424 110.3565193  99.1759968  60.8966613 109.7490863  98.4410378
  60.1591131 110.8474212  99.1769464  68.0545708 123.7952357  98.3893136
  67.9815880 124.6007329  98.9012440  67.6123102 123.9944323  97.5641157
  67.8435488 123.0324127  91.8995957  67.0603010 123.5745808  91.9934182
  68.5428233 123.5498107  92.2990199  70.5144392 123.6939191 100.5451294
  71.2272364 124.3286656 100.4727196  70.0234421 123.7903057  99.7291296
  65.5656305 121.4433635 101.3656865  66.2665765 122.0770118 101.5186260
  65.0951420 121.7848366 100.6052505  70.6606931 122.9606121  90.5552634
  71.1894697 122.4498575  89.9422797  70.9235150 122.6448651  91.4198167
  69.4145164 114.7398053 105.6775453  68.7385802 114.6392183 106.3477828
  70.2372798 114.5837267 106.1411450  61.1624024 120.9769990  98.2987968
  61.7477460 120.2313678  98.4315872  60.9648862 121.2873947  99.1824632
  64.0162679 124.0121237  93.3150410  63.3473054 124.4967365  92.8314450
  63.8775548 124.2590458  94.2293789  55.7541678 113.5475590  97.0192411
  55.7925778 113.0139181  97.8129529  55.2481971 113.0210796  96.4003388
  68.1567947 126.0464981  99.9133069  68.7086255 126.2096602 100.6782154
  68.4974141 126.6369419  99.2413094  63.1332441 108.3940131 100.5154953
  63.1973767 109.2554962 100.1032351  63.0699561 107.7814132  99.7827312
  62.6084713 110.4663263 104.1627988  63.2356752 110.0840341 104.7765512
  61.7512632 110.2477465 104.5283680  73.0078822 120.8726238 105.7681723
  73.5518726 121.4856197 105.2736678  72.4265667 121.4305817 106.2848736
  59.3850256 112.2739692  90.0946343  59.6803697 111.3650371  90.0413396
  58.4838292 112.2527432  89.7727345  62.9144503 110.3495689  96.0773891
  62.1931089 110.9631657  95.9381364  63.7037759 110.8853454  95.9990537
  65.7170816 107.6850115 102.3514543  66.2405218 107.9312412 103.1140852
  65.4983150 108.5170150 101.9317680  61.1138097 109.9553790  90.2185668
  60.7850804 109.0751169  90.0360774  61.4677468 109.9001459  91.1062057
  65.0978412 112.4032244  96.2983515  64.9522993 112.7172547  97.1907797
  64.6203616 113.0217144  95.7454414  59.5724074 114.9437588  99.2371176
  59.0277542 115.7197396  99.3691451  60.4503424 115.2908392  99.0790298
  60.3590096 114.0707484 102.1301333  59.6171832 114.2190120 102.7165964
  60.0382840 114.3315750 101.2668083  68.3033759 123.6123462 101.9281723
  68.6120885 123.3672609 102.8004423  69.1009241 123.8170101 101.4400593
  68.3254371 125.7661372  94.1587100  67.8859361 125.2737751  94.8519956
  69.0762488 125.2234340  93.9179175  60.8046710 121.9572913  94.1611728
  61.6304730 121.6576685  93.7810371  60.4540762 121.1880535  94.6101516
  65.7728243 121.3099381  96.2309401  65.1508252 120.6470086  95.9311629
  66.4433110 121.3360513  95.5483049  59.0055315 119.8759239  95.1200661
  58.1687223 119.4481414  94.9384663  58.9778960 120.0691683  96.0571453
  65.8452770 109.7881169 105.8241907  65.8940926 110.6643292 105.4419677
  66.3875285 109.2458562 105.2513551  65.3341750 119.8603305  89.7067862
  65.4829870 120.5438769  89.0534535  66.1408193 119.8408395  90.2217318
  68.0752059 110.5412542 102.5788266  67.2055368 110.8346108 102.3070855
  68.3111539 111.1252987 103.2995530  63.0894383 115.8868482  90.7128931
  62.8440425 114.9830812  90.9109141  63.2590297 115.8885633  89.7708409
  62.3590030 111.6196840  88.2115092  61.6659275 111.6941195  87.5555128
  62.1141782 110.8557183  88.7336609  68.8337155 122.3551435  87.1779609
  68.2611122 122.9741622  86.7250081  69.4069949 122.9050797  87.7119531
  69.1022646 117.7429994 105.9796319  70.0225656 117.9208593 106.1736365
  69.0672229 116.7986039 105.8276018  58.3204811 112.9368587  94.9049593
  58.0007596 112.0833896  94.6123967  57.7738240 113.1517166  95.6607561
  62.0984719 115.6531028  98.6219100  62.3170729 116.5848136  98.6407134
  62.5110493 115.2939003  99.4073904  66.9712584 111.2264234 108.0121849
  66.8709311 112.1758591 107.9433940  66.7534126 110.8982473 107.1397919
  58.1893071 116.5571499  96.8742715  57.4956543 116.1425452  96.3612669
  58.9366062 116.5992035  96.2776134  66.8343854 114.6561373 106.8286911
  66.3510936 115.4561733 107.0350800  66.9204793 114.6669318 105.8754355
  60.1029814 116.4889753  94.7508730  60.0800502 116.5877440  93.7990613
  60.4130450 117.3354904  95.0725896  62.7617192 118.5465908  98.8655344
  63.7160445 118.5149850  98.7985276  62.5629715 118.0856532  99.6805570
  63.3516574 117.1167024 101.4326142  64.1709463 117.6111103 101.4560979
  63.6253382 116.1998992 101.4043709  61.1167421 124.0885527  95.8825542
  60.9821888 123.3285928  95.3163540  60.6999483 124.8126427  95.4154331
  64.2736546 124.9854844  96.0943985  64.1568931 125.9300277  95.9922675
  63.4528993 124.6828406  96.4829784  58.6051488 111.4505158 102.1318339
  59.2510352 110.9404112 102.6205564  58.3968639 112.1873839 102.7061764
  71.1304880 118.5186005 107.6310480  71.9996040 118.6926657 107.2697115
  70.6511632 119.3380422 107.5086209  65.2991061 125.6383106  99.3099913
  66.2018307 125.6706716  99.6266408  65.0728431 124.7083557  99.3246249
  67.0544663 124.3914093  95.9709992  66.1040294 124.3915954  95.8574364
  67.3577149 123.6446827  95.4546026  62.9448979 108.5972775 106.2293353
  63.8080441 108.2409580 106.4396678  62.3714390 108.2586670 106.9168758
  82.7897356 130.2274631  97.0355754  83.4275766 130.1081378  96.3319094
  82.6718199 131.1755475  97.0943706  79.5987062 130.1802059  96.9717279
  79.2605574 130.0643124  96.0837814  80.4676831 129.7793224  96.9518285
  75.4573878 132.0337536  92.9614170  74.8938743 131.9427473  92.1930458
  75.3426273 131.2137440  93.4416662  73.0038310 133.5288727  95.7998390
  73.7959602 133.1879552  95.3844690  73.2434960 133.6383702  96.7200544
  81.0373437 135.7008503  88.2728635  80.3861417 136.2862584  87.8862649
  81.8317800 136.2314698  88.3323672  74.9629064 132.7897640  88.6715769
  75.7359940 132.2426628  88.5328645  75.3154463 133.6541890  88.8830231
  76.8014106 134.1174023 101.8782668  76.5103972 135.0219654 101.7629335
  77.4371091 134.1590550 102.5926738  77.7270313 131.4950871  98.4684028
  78.3233886 131.2706894  97.7540991  77.7845285 130.7535617  99.0709476
  77.2995342 128.9490307  86.3034219  77.5520862 128.4271828  85.5417682
  76.3619901 128.7856452  86.4060903  82.3438625 127.9526085  94.1108962
  83.1301714 127.5345508  93.7599379  82.6077329 128.8572177  94.2790611
  82.5148702 133.3898935  88.8097619  81.8794535 133.4633562  89.5218524
  82.1846108 133.9792534  88.1316698  87.7447052 127.8901318  95.0141941
  88.4772224 127.3200535  95.2479770  86.9886407 127.5022919  95.4548446
  77.0191630 130.8518413  88.5058594  76.9027889 130.1763316  89.1739678
  77.1293890 130.3650787  87.6890747  79.3623171 130.3128560  92.2105283
  78.9981379 129.7859181  92.9218205  80.2190287 129.9227029  92.0371769
  79.0028658 125.3418459  87.2066632  79.1703061 126.2098696  87.5737103
  78.8125827 125.5045741  86.2827921  81.7603992 133.8035438  98.8732462
  81.4604715 134.7060477  98.7648269  81.4155051 133.5367621  99.7253615
  75.2116473 130.2549235  94.9069167  74.2866970 130.1225449  95.1146858
  75.4600886 131.0343454  95.4039109  78.9817879 127.7976117  88.1913299
  78.8617504 128.2433168  89.0298779  78.2870468 128.1461435  87.6326837
  72.5725284 129.8982509  95.7412956  72.7017665 130.1516988  96.6552367
  71.8922735 130.4910217  95.4217611  76.7424771 140.5679759  91.8403430
  76.6648801 141.5187584  91.9191910  76.1386415 140.2225631  92.4978356
  84.6802945 128.2697590  89.0193633  85.5920802 128.5024977  88.8441330
  84.1712592 128.8534634  88.4568711  77.4888373 130.5493077 104.0582764
  78.2303058 131.0878121 103.7817587  76.7825359 131.1759366 104.2154316
  82.9643713 132.6922218 102.6554925  83.3727069 132.2504628 101.9109558
  82.2420975 132.1174845 102.9089118  83.2872528 133.2523409  96.4107214
  82.6581390 133.4169123  95.7083282  82.8998190 133.6665018  97.1818178
  87.1661760 134.1877846  93.7651578  86.4812798 134.5676748  93.2148611
  87.2505609 134.7973173  94.4983526  84.4212691 131.8337805 100.3646921
  84.6329586 132.4769565  99.6881302  84.3742439 131.0000122  99.8968851
  78.8400490 132.9897817  93.6757299  79.3038835 133.2685520  92.8861922
  78.5757288 132.0881261  93.4930390  75.7324571 132.5369298  96.6137062
  76.3025928 132.9656567  95.9754547  76.3232682 132.2551883  97.3121248
  77.7769376 129.1120969  90.4846864  78.4793419 129.5642013  90.9520791
  77.4450004 128.4704788  91.1126757  71.5194710 127.3704522  95.7863998
  70.7293764 127.6262050  95.3104109  72.0105957 128.1852859  95.8916038
  85.5358519 134.7109761  98.5369279  86.3575963 134.3089948  98.2551960
  85.5320922 134.6077995  99.4885395  73.4709455 127.7349101  92.7447475
  72.6740618 127.8467795  93.2630970  73.2435047 128.0735753  91.8788365
  79.3015123 134.2593804 100.6929989  79.3659555 134.7214211 101.5288161
  78.5926046 133.6291169 100.8212299  69.8032413 127.6235012  98.2178989
  70.0540451 128.5082022  98.4836565  70.3391961 127.4439614  97.4454081
  93.6264512 131.0548509  94.8854250  92.8728221 130.4855907  94.7298255
  93.7612053 131.0211174  95.8324885  79.0163140 135.9261912  90.5608970
  78.8808815 136.7713447  90.9893817  79.5572953 136.1281189  89.7974903
  72.4692538 133.4437350  91.1336895  72.9817058 134.2380600  91.2842459
  73.1215250 132.7463640  91.0670496  74.2787422 136.5603106  93.2159648
  74.4554051 137.4821071  93.0280632  75.0744256 136.2461525  93.6454028
  73.5639779 128.6067738 103.0921811  73.4493294 127.7052995 103.3928910
  72.7084297 128.8531435 102.7406628  80.6431617 136.5485478 104.6909312
  80.1995471 135.7621857 104.3730216  81.3048830 136.7364629 104.0253202
  75.4018738 138.0781280  99.2169990  75.9526163 137.9498343  98.4446984
  74.5630214 138.3776169  98.8664883  82.7412855 136.8288278 102.7190713
  82.7231330 137.6497159 102.2270982  83.6632775 136.7042353 102.9440854
  79.1985909 134.3432408 103.5614221  79.7314246 133.5820696 103.3313529
  78.6699990 134.0506059 104.3038376  70.4341454 131.7726004  91.9096465
  71.2716676 132.1823012  91.6930173  70.6119722 130.8325446  91.8796659
  82.3305887 129.4401085  87.5980298  81.8152510 130.2105689  87.8368686
  82.0583195 128.7666221  88.2213360  79.9152998 124.2850785  92.6565537
  79.0594594 123.8957636  92.4771175  80.3279949 124.3642746  91.7965322
  87.3040161 132.1933439  89.5333472  86.5269603 131.8544599  89.0888634
  87.9831642 132.1986062  88.8588437  82.1192190 127.3128177  89.4240079
  81.8142325 127.6274326  90.2750223  83.0722632 127.3909597  89.4667412
  80.5638622 133.4718400  91.0733033  80.0359983 132.7371160  90.7606271
  80.0626124 134.2493076  90.8273002  85.5431468 131.6667420  96.1900080
  84.8855142 132.3566682  96.2780208  86.3471867 132.0563852  96.5334066
  84.3536926 130.0211793  94.2404021  84.8668808 130.6541785  94.7425731
  85.0038150 129.4212989  93.8747381  75.6226936 126.1642527  87.4535530
  74.7864249 126.5017214  87.7744805  75.4831706 126.0291507  86.5162667
  78.7091222 131.2898610  84.0768006  77.8018283 131.0587864  84.2759155
  79.2062254 130.4936229  84.2641988  81.6159301 139.9996117  86.9964693
  80.9420999 140.3027814  87.6049650  82.0025123 140.8025198  86.6470150
  80.8317757 127.4961249  96.4862362  79.9140319 127.7176196  96.3284050
  81.2477901 127.5707559  95.6274069  81.6152805 128.8952664  91.6165042
  82.3624624 129.4074062  91.3072164  81.8844395 128.5736717  92.4769436
  79.8879455 131.3911205  88.5991996  78.9790674 131.1070238  88.6964466
  79.9174539 131.8110284  87.7395303  85.1198723 135.0017795  92.3683164
  84.6661050 134.1608704  92.4248354  84.4892689 135.6379193  92.7057944
  83.5631662 136.8394291  93.3032982  83.8554636 137.3999348  92.5845348
  84.0730282 137.1322852  94.0586141  70.4567626 129.1116719  92.5807199
  70.2592025 128.5186080  91.8558265  69.9014290 128.8068929  93.2983137
  78.4364349 129.0039826  94.7001792  78.4912959 128.0513662  94.6244268
  77.6255551 129.1599265  95.1843090  79.5855543 132.9319949  85.9380075
  79.1474973 132.2155808  85.4785712  80.3265984 133.1596064  85.3765166
  76.3756709 127.6216885  92.4592171  75.5624575 127.9211056  92.8657363
  76.8715703 127.2272574  93.1766653  78.5265287 137.6174642  94.3926435
  78.4841466 137.8435489  93.4634967  79.4427986 137.3838017  94.5412236
  87.7028658 131.2077146  91.9956394  87.5646556 131.3978742  91.0677583
  87.3464877 131.9696529  92.4524445  87.7298037 133.2753673  97.0067665
  88.1634544 133.1828962  97.8550719  88.4429618 133.2511173  96.3687681
  76.6431088 134.4937671  94.1888398  77.4371686 133.9987992  93.9870973
  75.9322780 133.9655535  93.8256104  81.4625932 136.8755767  98.5400766
  81.5162955 137.4446703  99.3078482  80.5940714 137.0457652  98.1754803
  72.9513851 128.6380753  90.2648151  72.0211439 128.5765209  90.4818113
  73.0471323 128.1156706  89.4684792  88.5913587 133.3177373  99.5400550
  88.7849477 134.2223184  99.7859825  88.4914205 132.8584793 100.3739136
  83.6528696 133.4684116 105.1141431  83.5014202 133.2394668 104.1971515
  83.6433375 134.4254718 105.1272776  80.4214032 131.0416029 100.0987698
  81.3506092 131.1927189  99.9256665  80.0005062 131.1300050  99.2436344
  79.2202364 135.0666693  97.8686235  79.0813450 134.6985478  98.7412173
  78.4316960 135.5814333  97.6970193  79.8150516 140.1675790  89.2111772
  79.9902271 139.6963833  90.0257394  79.1283304 140.7941556  89.4393032
  80.7707579 134.4448296  95.2575073  80.4357412 134.4049066  96.1532723
  80.2711525 133.7793012  94.7845483  74.7451823 129.8515926 100.7827654
  74.6071621 129.1196165 101.3839193  75.6556746 129.7624826 100.5011842
  83.7066771 131.7904330  85.5312133  83.0895941 131.0651159  85.4345185
  83.2383259 132.5513691  85.1879207  77.3734124 129.5635885 100.2711334
  78.0833742 128.9229078 100.2297952  77.3303432 129.8148780 101.1937515
  85.3620902 136.5003239 103.1917913  85.3033448 135.8162459 102.5248496
  85.7640421 137.2422229 102.7398539  75.4965317 126.0089755  84.6533437
  74.6194783 125.8878556  84.2895684  75.9723070 125.2175833  84.4012326
  85.3638310 134.4642823 101.4231893  84.4765088 134.1268745 101.5458292
  85.9336861 133.7325854 101.6600658  67.0167457 130.7966914  94.7474944
  67.7038496 130.4828644  94.1595959  66.8615585 131.7008279  94.4742195
  78.8939463 139.1244275  98.3893136  78.8209634 139.9299247  98.9012440
  78.4516856 139.3236241  97.5641157  78.6829243 138.3616045  91.8995957
  77.8996764 138.9037725  91.9934182  79.3821988 138.8790025  92.2990199
  89.8455650 129.8751040  96.1848454  89.8345526 130.7575756  95.8142387
  88.9773030 129.5222591  95.9902991  81.3538146 139.0231109 100.5451294
  82.0666119 139.6578574 100.4727196  80.8628175 139.1194975  99.7291296
  83.0755673 132.9282362  92.1168586  82.1411952 133.0483824  91.9473290
  83.2532342 132.0254829  91.8528596  78.5760861 126.3128058  94.2701847
  78.2058649 125.7599098  94.9582753  79.0719954 125.7086191  93.7176847
  86.4628225 128.7699681  92.6518620  86.9288677 129.6027673  92.5778923
  86.9135725 128.3044663  93.3563879  76.4050060 136.7725553 101.3656865
  77.1059519 137.4062036 101.5186260  75.9345175 137.1140284 100.6052505
  84.5304456 135.1143502  89.6504772  84.8064300 135.0000097  90.5598646
  83.6608955 134.7160987  89.6116945  81.1658520 139.3629853  93.2937586
  81.3480914 138.5451509  93.7565338  81.9891506 139.5797545  92.8562476
  81.5000685 138.2898038  90.5552634  82.0288452 137.7790493  89.9422797
  81.7628905 137.9740569  91.4198167  80.2538919 130.0689971 105.6775453
  79.5779556 129.9684100 106.3477828  81.0766553 129.9129185 106.1411450
  72.0017778 136.3061908  98.2987968  72.5871215 135.5605596  98.4315872
  71.8042617 136.6165864  99.1824632  74.8556433 139.3413155  93.3150410
  74.1866809 139.8259283  92.8314450  74.7169303 139.5882375  94.2293789
  66.5935433 128.8767508  97.0192411  66.6319532 128.3431099  97.8129529
  66.0875726 128.3502713  96.4003388  78.9961702 141.3756899  99.9133069
  79.5480010 141.5388520 100.6782154  79.3367895 141.9661336  99.2413094
  73.4478468 125.7955181 104.1627988  74.0750506 125.4132258 104.7765512
  72.5906386 125.5769383 104.5283680  83.8472576 136.2018156 105.7681723
  84.3912480 136.8148114 105.2736678  83.2659421 136.7597734 106.2848736
  70.2244010 127.6031610  90.0946343  70.5197451 126.6942288  90.0413396
  69.3232046 127.5819349  89.7727345  82.1330089 139.3238874  96.8996751
  82.0081229 138.5228614  96.3907696  82.7909180 139.8185067  96.4110721
  84.1964998 137.1247894  98.5276301  83.2495333 137.0053245  98.4554628
  84.5447771 136.2370392  98.6102562  71.9531852 125.2845708  90.2185668
  71.6244558 124.4043087  90.0360774  72.3071223 125.2293376  91.1062057
  81.2011431 136.9200610  94.7280653  81.0536393 135.9917318  94.9088223
  82.0264924 136.9420701  94.2437728  84.8045553 137.7429169  95.8145526
  85.7292100 137.5372030  95.6769977  84.6360856 137.4945570  96.7234867
  81.1972945 124.7738448  89.7212770  81.4136560 125.6563086  89.4201599
  80.7167012 124.3824661  88.9918412  75.9372167 127.7324161  96.2983515
  75.7916747 128.0464464  97.1907797  75.4597370 128.3509062  95.7454414
  84.5940869 138.2614837  91.1707617  84.7677746 137.6961259  90.4181470
  85.0869760 139.0615731  90.9887107  70.4117829 130.2729506  99.2371176
  69.8671297 131.0489314  99.3691451  71.2897179 130.6200310  99.0790298
  90.4480260 131.0251259  92.7897917  90.8911406 130.2758585  92.3917040
  89.5706770 131.0161396  92.4071649  85.5816041 137.5781601  88.2704516
  86.2766946 138.1988294  88.4891830  85.9239191 136.7276952  88.5456894
  71.1983851 129.3999402 102.1301333  70.4565587 129.5482037 102.7165964
  70.8776595 129.6607667 101.2668083  87.4807464 135.0281306  89.7991846
  88.0058789 135.3668579  89.0741166  87.3929817 134.0928322  89.6154981
  79.1427513 138.9415380 101.9281723  79.4514640 138.6964527 102.8004423
  79.9402995 139.1462019 101.4400593  79.1648125 141.0953290  94.1587100
  78.7253116 140.6029668  94.8519956  79.9156242 140.5526257  93.9179175
  71.6440464 137.2864831  94.1611728  72.4698484 136.9868602  93.7810371
  71.2934516 136.5172453  94.6101516  76.6121997 136.6391299  96.2309401
  75.9902007 135.9762004  95.9311629  77.2826864 136.6652431  95.5483049
  69.8449069 135.2051157  95.1200661  69.0080978 134.7773331  94.9384663
  69.8172715 135.3983600  96.0571453  87.1701371 135.6614210 105.1043044
  86.3796914 135.6438349 104.5647544  86.9334725 136.2002504 105.8592081
  87.2899246 132.5106676 102.4175773  87.3397251 132.3456684 103.3591296
  87.1813169 131.6433936 102.0273654  76.1735504 135.1895222  89.7067862
  76.3223625 135.8730687  89.0534535  76.9801948 135.1700312  90.2217318
  84.5803008 128.4937605 103.7335080  85.4812871 128.3544069 103.4419077
  84.6550982 128.6592059 104.6733257  88.7917442 134.9303618 102.6617795
  88.5002251 135.2933599 103.4981255  88.1789574 134.2170626 102.4831127
  89.9913125 132.4956498  95.1820365  90.8260016 132.9346302  95.3457925
  90.1272254 132.0195151  94.3628611  87.0404631 130.0536233 101.1297852
  87.5158752 130.2463879 100.3216704  86.1170196 130.1095418 100.8841236
  73.9288137 131.2160400  90.7128931  73.6834179 130.3122730  90.9109141
  74.0984052 131.2177550  89.7708409  73.1983785 126.9488757  88.2115092
  72.5053030 127.0233112  87.5555128  72.9535537 126.1849101  88.7336609
  79.6730910 137.6843353  87.1779609  79.1004877 138.3033540  86.7250081
  80.2463703 138.2342714  87.7119531  82.8928170 137.9680503  88.3088192
  83.8258843 137.9026064  88.5121067  82.8051382 138.8036770  87.8502724
  85.5216186 137.2846373  85.2692139  85.4429818 136.9506237  86.1627897
  86.3425853 137.7768141  85.2683611  88.2194377 130.1508112  98.4768458
  88.1870698 129.2124113  98.6628142  88.8295001 130.2292149  97.7434283
  80.0577708 129.0204165  84.5195662  81.0036813 128.8910373  84.5884080
  79.6791953 128.2818827  84.9965090  88.3688866 126.9419156  98.5226741
  87.8527915 126.1577612  98.3356670  89.2528814 126.6137872  98.6873260
  94.0370927 131.2124119  97.6174495  94.7674316 130.9509407  98.1782198
  93.4277873 130.4752841  97.6576563  92.1186224 129.3531982  98.2148946
  91.3919388 129.2187947  97.6065437  91.7033511 129.6608810  99.0205664
  79.9416401 133.0721911 105.9796319  80.8619410 133.2500511 106.1736365
  79.9065984 132.1277957 105.8276018  78.2420625 126.9454142  84.4550547
  77.3352081 126.6487254  84.5313261  78.5196606 126.6483960  83.5884833
  69.1598566 128.2660505  94.9049593  68.8401350 127.4125813  94.6123967
  68.6131994 128.4809083  95.6607561  72.9378473 130.9822946  98.6219100
  73.1564483 131.9140054  98.6407134  73.3504247 130.6230921  99.4073904
  77.0119410 123.8041077  84.5962526  77.8738574 124.1295975  84.8558344
  77.1969754 123.0172573  84.0835592  69.0286826 131.8863417  96.8742715
  68.3350297 131.4717369  96.3612669  69.7759817 131.9283953  96.2776134
  70.9423568 131.8181670  94.7508730  70.9194256 131.9169358  93.7990613
  71.2524205 132.6646821  95.0725896  73.6010946 133.8757825  98.8655344
  74.5554200 133.8441768  98.7985276  73.4023470 133.4148449  99.6805570
  74.1910328 132.4458942 101.4326142  75.0103217 132.9403020 101.4560979
  74.4647136 131.5290910 101.4043709  83.9476925 124.8369694  90.7954097
  83.0602780 125.1219344  90.5774292  84.3630914 124.6763457  89.9481374
  87.2991461 124.8616215  94.5108437  88.0751851 125.3512667  94.7833054
  86.5739595 125.2874269  94.9680306  89.7364019 125.5743834  95.5682377
  90.3308510 125.3339570  94.8575686  89.8090603 124.8550965  96.1955914
  71.9561175 139.4177445  95.8825542  71.8215643 138.6577846  95.3163540
  71.5393237 140.1418345  95.4154331  83.0920138 134.6014368  84.8902117
  83.7955988 134.8064371  85.5059773  82.3682787 135.1691130  85.1551201
  83.9217948 130.3524230  91.0104388  83.8653150 130.8092781  90.1712020
  84.4746291 129.5914914  90.8327230  87.7322754 126.1413962  91.8354507
  87.4759688 125.7410597  92.6662715  87.1075622 126.8557756  91.7104646
  92.0435092 128.8810035  94.3425799  91.4834650 128.9503224  95.1157361
  91.4378595 128.7051019  93.6225295  75.1130301 140.3146762  96.0943985
  74.9962685 141.2592194  95.9922675  74.2922747 140.0120324  96.4829784
  85.0006835 135.0396898  86.9400578  85.8352439 134.6078096  86.7578052
  84.8391178 134.8678911  87.8677472  84.6552728 131.5429011  88.3056917
  84.6001531 131.3773282  87.3645361  84.0298783 132.2505044  88.4619107
  69.4445243 126.7797075 102.1318339  70.0904106 126.2696029 102.6205564
  69.2362394 127.5165757 102.7061764  81.9698635 133.8477923 107.6310480
  82.8389794 134.0218575 107.2697115  81.4905386 134.6672340 107.5086209
  76.1384815 140.9675024  99.3099913  77.0412062 140.9998634  99.6266408
  75.9122185 140.0375475  99.3246249  77.8938417 139.7206010  95.9709992
  76.9434048 139.7207872  95.8574364  78.1970903 138.9738745  95.4546026
  73.7842734 123.9264692 106.2293353  74.6474195 123.5701497 106.4396678
  73.2108144 123.5878587 106.9168758  93.6291111 145.5566549  97.0355754
  94.2669520 145.4373296  96.3319094  93.5111953 146.5047393  97.0943706
  90.4380817 145.5093977  96.9717279  90.0999328 145.3935042  96.0837814
  91.3070585 145.1085142  96.9518285  86.2967633 147.3629453  92.9614170
  85.7332498 147.2719390  92.1930458  86.1820028 146.5429358  93.4416662
  88.5664068 146.8242789  98.4684028  89.1627640 146.5998811  97.7540991
  88.6239039 146.0827534  99.0709476  88.1389096 144.2782224  86.3034219
  88.3914617 143.7563746  85.5417682  87.2013655 144.1148370  86.4060903
  93.1832379 143.2818003  94.1108962  93.9695468 142.8637426  93.7599379
  93.4471083 144.1864095  94.2790611  98.5840806 143.2193236  95.0141941
  99.3165978 142.6492453  95.2479770  97.8280162 142.8314836  95.4548446
  87.8585385 146.1810330  88.5058594  87.7421643 145.5055234  89.1739678
  87.9687645 145.6942704  87.6890747  90.2016926 145.6420477  92.2105283
  89.8375133 145.1151098  92.9218205  91.0584042 145.2518946  92.0371769
  96.1066226 136.9314810  99.4736549  95.7749551 137.8010221  99.2497764
  95.5111840 136.6151094 100.1530580  89.8422413 140.6710377  87.2066632
  90.0096815 141.5390613  87.5737103  89.6519582 140.8337659  86.2827921
  86.0510228 145.5841153  94.9069167  85.1260724 145.4517367  95.1146858
  86.2994641 146.3635372  95.4039109  95.9994890 141.6509896  96.5529899
  95.0911767 141.5825305  96.2588660  95.9482486 142.1281841  97.3811725
  89.8211634 143.1268035  88.1913299  89.7011259 143.5725085  89.0298779
  89.1264222 143.4753352  87.6326837  83.4119039 145.2274426  95.7412956
  83.5411420 145.4808905  96.6552367  82.7316490 145.8202134  95.4217611
  97.8656536 139.8526335  98.3307773  97.2230916 140.1458868  97.6847568
  97.3611465 139.7379255  99.1360970  95.5196700 143.5989508  89.0193633
  96.4314556 143.8316894  88.8441330  95.0106347 144.1826552  88.4568711
  90.1568538 142.9586742 100.0288482  91.0029733 143.3826156 100.1723131
  90.0967175 142.3020367 100.7227045  92.8632675 139.7747544  97.2683494
  92.0017154 140.0728797  97.5600231  92.8895109 139.9917943  96.3364526
  89.6794244 148.3189734  93.6757299  90.1432590 148.5977437  92.8861922
  89.4151042 147.4173179  93.4930390  88.6163130 144.4412887  90.4846864
  89.3187173 144.8933930  90.9520791  88.2843759 143.7996705  91.1126757
  82.3588464 142.6996439  95.7863998  81.5687518 142.9553968  95.3104109
  82.8499711 143.5144777  95.8916038  84.3103209 143.0641019  92.7447475
  83.5134373 143.1759713  93.2630970  84.0828802 143.4027671  91.8788365
  80.6426167 142.9526930  98.2178989  80.8934205 143.8373940  98.4836565
  81.1785715 142.7731531  97.4454081  84.4033533 143.9359655 103.0921811
  84.2887049 143.0344913 103.3928910  83.5478051 144.1823352 102.7406628
  93.2049358 134.7784391  99.0907863  92.8613628 135.6686033  99.0146974
  93.5728321 134.5886049  98.2277448  93.1699641 144.7693002  87.5980298
  92.6546264 145.5397607  87.8368686  92.8976949 144.0958138  88.2213360
  90.7546752 139.6142703  92.6565537  89.8988348 139.2249553  92.4771175
  91.1673704 139.6934664  91.7965322  92.2845899 137.1489046  97.0557096
  91.7810694 137.1119181  96.2424902  92.5776506 138.0581789  97.1153753
  88.5288785 137.2327776  96.0623278  89.3941781 137.0370585  95.7029167
  88.5966294 137.0038128  96.9892635  92.9585944 142.6420094  89.4240079
  92.6536080 142.9566244  90.2750223  93.9116386 142.7201514  89.4667412
  86.1351104 139.4629984  93.4339645  86.7094856 139.2405165  92.7012838
  86.7222086 139.5318678  94.1868246  95.1930681 145.3503711  94.2404021
  95.7062563 145.9833703  94.7425731  95.8431905 144.7504906  93.8747381
  86.4620691 141.4934445  87.4535530  85.6258003 141.8309132  87.7744805
  86.3225460 141.3583425  86.5162667  88.4373771 136.3371233  92.1614714
  87.7838184 136.0220250  91.5371329  88.3954246 135.7146973  92.8874537
  89.5484976 146.6190528  84.0768006  88.6412038 146.3879781  84.2759155
  90.0456008 145.8228147  84.2641988  91.6711512 142.8253166  96.4862362
  90.7534073 143.0468113  96.3284050  92.0871655 142.8999477  95.6274069
  92.4546560 144.2244582  91.6165042  93.2018378 144.7365979  91.3072164
  92.7238149 143.9028635  92.4769436  90.7273210 146.7203123  88.5991996
  89.8184429 146.4362156  88.6964466  90.7568293 147.1402201  87.7395303
  94.9025397 141.2601698  93.5983831  94.1648153 140.7479085  93.9294074
  95.1552170 140.8202080  92.7867108  95.0037024 134.0377950  94.1925601
  95.3095901 133.1775314  93.9051516  95.7289629 134.6295571  93.9924595
  81.2961380 144.4408637  92.5807199  81.0985780 143.8477998  91.8558265
  80.7408044 144.1360847  93.2983137  89.2758104 144.3331743  94.7001792
  89.3306714 143.3805580  94.6244268  88.4649306 144.4891182  95.1843090
  90.4249297 148.2611866  85.9380075  89.9868727 147.5447725  85.4785712
  91.1659738 148.4887981  85.3765166  87.2150464 142.9508803  92.4592171
  86.4018329 143.2502974  92.8657363  87.7109458 142.5564492  93.1766653
  86.7064538 140.5227159  98.0753406  87.3463918 140.3815918  97.3776369
  85.8742069 140.2361672  97.6992008  83.7907606 143.9672671  90.2648151
  82.8605194 143.9057126  90.4818113  83.8865078 143.4448624  89.4684792
  83.7093155 140.4927484  92.8526392  83.9699972 141.4072817  92.7435553
  84.5310327 140.0251926  93.0023005  85.1818080 141.9065241 100.0225217
  85.8541134 141.6982603  99.3737866  84.3547867 141.7087327  99.5830449
  91.0843652 138.5327182 102.0390878  90.4371567 139.2317131 101.9455354
  91.8544668 138.9663326 102.4067126  85.5845577 145.1807844 100.7827654
  85.4465375 144.4488083 101.3839193  86.4950501 145.0916744 100.5011842
  94.5460525 147.1196248  85.5312133  93.9289696 146.3943076  85.4345185
  94.0777014 147.8805608  85.1879207  88.2127878 144.8927803 100.2711334
  88.9227497 144.2520995 100.2297952  88.1697186 145.1440698 101.1937515
  86.9256812 141.8793021 102.0906973  86.3894169 141.4283759 102.7428570
  86.3373521 142.0138930 101.3477438  86.3359071 141.3381672  84.6533437
  85.4588537 141.2170473  84.2895684  86.8116824 140.5467751  84.4012326
  82.6595933 141.0149029  99.1759968  82.5754122 140.4074698  98.4410378
  81.8378640 141.5058047  99.1769464  92.8319647 139.5002592  94.5430163
  93.3288347 138.7472555  94.2231233  92.0606629 139.5366909  93.9773372
  93.9149428 148.2574279  92.1168586  92.9805707 148.3775742  91.9473290
  94.0926096 147.3546746  91.8528596  89.4154616 141.6419975  94.2701847
  89.0452403 141.0891016  94.9582753  89.9113708 141.0378109  93.7176847
  97.3021979 144.0991599  92.6518620  97.7682431 144.9319590  92.5778923
  97.7529480 143.6336580  93.3563879  95.2738642 136.4672186  96.6909522
  94.3601722 136.6976413  96.8591729  95.7031743 136.5510630  97.5423554
  77.4329187 144.2059425  97.0192411  77.4713287 143.6723016  97.8129529
  76.9269480 143.6794631  96.4003388  84.8119950 139.0523966 100.5154953
  84.8761276 139.9138797 100.1032351  84.7487070 138.4397968  99.7827312
  84.2872222 141.1247099 104.1627988  84.9144261 140.7424176 104.7765512
  83.4300141 140.9061300 104.5283680  81.0637765 142.9323528  90.0946343
  81.3591206 142.0234206  90.0413396  80.1625801 142.9111267  89.7727345
  84.5932012 141.0079524  96.0773891  83.8718598 141.6215492  95.9381364
  85.3825268 141.5437289  95.9990537  87.3958325 138.3433951 102.3514543
  87.9192727 138.5896247 103.1140852  87.1770659 139.1753986 101.9317680
  82.7925606 140.6137625  90.2185668  82.4638313 139.7335004  90.0360774
  83.1464977 140.5585294  91.1062057  85.9067430 140.9010595  90.5861145
  86.2463502 141.4296516  89.8639754  86.3539550 141.2391001  91.3619712
  88.6010870 139.2847646 100.0364213  88.2607691 138.4855459 100.4384893
  87.8949877 139.5849357  99.4641047  89.2527342 136.3696958  98.4891536
  90.0753412 135.8957436  98.3670427  89.4965406 137.1487442  98.9890223
  87.8935577 139.3985217  88.7854438  88.6143939 139.7766469  88.2818155
  87.2700881 140.1174094  88.8889416  92.0366700 140.1030366  89.7212770
  92.2530314 140.9855004  89.4201599  91.5560767 139.7116579  88.9918412
  86.7765921 143.0616079  96.2983515  86.6310502 143.3756382  97.1907797
  86.2991125 143.6800979  95.7454414  88.6362304 140.0518627  96.3464405
  88.6223873 139.1559720  96.0096703  89.3534732 140.0589291  96.9802691
  90.4888435 140.4855967  98.3917532  90.2306212 141.4073038  98.3901862
  89.9573475 140.0886402  99.0817996  88.0399200 138.9333007  91.6151975
  88.1615111 138.0049653  91.8142862  87.7501242 138.9471693  90.7030290
  90.9090390 136.6187918  94.7518695  90.9312087 136.6827251  93.7970674
  91.3258449 135.7792426  94.9459201  82.0377605 144.7291320 102.1301333
  81.2959341 144.8773955 102.7165964  81.7170349 144.9899585 101.2668083
  84.7681892 146.5452317  90.7128931  84.5227934 145.6414647  90.9109141
  84.9377806 146.5469468  89.7708409  92.4578602 137.4175994 100.0953686
  92.9760546 138.1537021  99.7700175  92.1033734 137.7239987 100.9300446
  84.0377539 142.2780675  88.2115092  83.3446784 142.3525030  87.5555128
  83.7929291 141.5141019  88.7336609  92.7091196 133.8376276  95.6154583
  92.9892950 133.1699465  96.2415010  93.4941803 134.0305372  95.1029247
  94.6014434 139.3449494  99.5485559  94.0064366 139.6254506  98.8532048
  94.3164130 139.8343395 100.3202300  90.8971463 144.3496083  84.5195662
  91.8430568 144.2202291  84.5884080  90.5185708 143.6110745  84.9965090
  96.8693347 136.0152089  94.4822554  96.6718168 135.7067177  95.3665886
  97.4793053 136.7413728  94.6120483  89.0814380 142.2746059  84.4550547
  88.1745835 141.9779172  84.5313261  89.3590361 141.9775878  83.5884833
  79.9992320 143.5952423  94.9049593  79.6795105 142.7417731  94.6123967
  79.4525749 143.8101001  95.6607561  90.6976446 136.8182949  90.6094788
  89.8877174 136.4730034  90.9850034  91.3860863 136.5090493  91.1982400
  92.6266994 135.8960996  92.2319085  93.1798033 136.3156449  92.8909108
  92.8637080 134.9696744  92.2742041  87.8513165 139.1332995  84.5962526
  88.7132329 139.4587893  84.8558344  88.0363509 138.3464491  84.0835592
  96.0045801 138.0061521  91.7397749  95.4244470 138.6646325  91.3575802
  95.7381734 137.1838866  91.3285167  94.4549367 137.4066579  93.9419070
  94.9549146 137.5183113  93.1333388  95.0984975 137.1027632  94.5819878
  94.7870679 140.1661611  90.7954097  93.8996534 140.4511262  90.5774292
  95.2024668 140.0055375  89.9481374  98.1385215 140.1908132  94.5108437
  98.9145605 140.6804585  94.7833054  97.4133349 140.6166187  94.9680306
 100.5757774 140.9035752  95.5682377 101.1702265 140.6631488  94.8575686
 100.6484358 140.1842882  96.1955914  94.7611703 145.6816147  91.0104388
  94.7046904 146.1384699  90.1712020  95.3140045 144.9206832  90.8327230
  98.5716509 141.4705879  91.8354507  98.3153443 141.0702515  92.6662715
  97.9469377 142.1849673  91.7104646  95.4946482 146.8720929  88.3056917
  95.4395286 146.7065200  87.3645361  94.8692537 147.5796962  88.4619107
  80.2838997 142.1088993 102.1318339  80.9297861 141.5987947 102.6205564
  80.0756148 142.8457675 102.7061764  88.8042608 136.3729038  87.8842235
  88.7921277 137.3170878  88.0410506  89.6966029 136.1899183  87.5901696
  92.6194727 132.9671814  92.1388172  91.8527123 132.4130301  92.2844854
  93.0305432 133.0393683  93.0002324  17.7534830  15.2585248  83.7601061
  18.3913240  15.1391995  83.0564401  17.6355673  16.2066092  83.8189013
  14.5624537  15.2112676  83.6962586  14.2243048  15.0953740  82.8083120
  15.4314305  14.8103841  83.6763592  10.4211352  17.0648152  79.6859477
   9.8576217  16.9738089  78.9175764  10.3063747  16.2448057  80.1661969
  15.0444320  16.3647527  89.6548791  15.0332960  15.9700326  88.7829295
  15.2064959  15.6313600  90.2482563   7.9675784  18.5599344  82.5243697
   8.7597076  18.2190168  82.1089996   8.2072434  18.6694319  83.4445850
  16.0010911  20.7319120  74.9973941  15.3498891  21.3173200  74.6107955
  16.7955274  21.2625315  75.0568979   9.9266538  17.8208257  75.3961076
  10.6997414  17.2737244  75.2573952  10.2791937  18.6852506  75.6075537
  11.7651581  19.1484639  88.6027975  11.4741447  20.0530270  88.4874641
  12.4008565  19.1901167  89.3172045  12.6907788  16.5261488  85.1929335
  13.2871360  16.3017510  84.4786298  12.7482759  15.7846233  85.7954783
  12.2632816  13.9800923  73.0279526  12.5158337  13.4582444  72.2662989
  11.3257375  13.8167069  73.1306209  17.3076099  12.9836702  80.8354269
  18.0939188  12.5656125  80.4844686  17.5714803  13.8882794  81.0035917
  17.4786176  18.4209552  75.5342926  16.8432009  18.4944178  76.2463830
  17.1483583  19.0103151  74.8562005  22.7084526  12.9211935  81.7387247
  23.4409698  12.3511152  81.9725077  21.9523882  12.5333535  82.1793753
  11.9829105  15.8829029  75.2303901  11.8665363  15.2073932  75.8984985
  12.0931365  15.3961403  74.4136054  14.3260646  15.3439176  78.9350590
  13.9618853  14.8169797  79.6463511  15.1827762  14.9537645  78.7617075
  16.7241466  18.8346055  85.5977769  16.4242189  19.7371094  85.4893576
  16.3792525  18.5678238  86.4498922  10.1753947  15.2859852  81.6314473
   9.2504444  15.1536066  81.8392165  10.4238361  16.0654071  82.1284416
  20.1238610  11.3528595  83.2775206  19.2155487  11.2844003  82.9833967
  20.0726205  11.8300540  84.1057032  13.9455354  12.8286733  74.9158605
  13.8254979  13.2743784  75.7544086  13.2507942  13.1772051  74.3572143
  11.7062246  25.5990375  78.5648736  11.6286275  26.5498200  78.6437217
  11.1023889  25.2536248  79.2223663  14.1979475  12.7718241  91.2210103
  13.4212810  13.3312161  91.2112968  14.8370038  13.2575024  91.7424974
  21.9900256   9.5545033  85.0553080  21.3474636   9.8477567  84.4092875
  21.4855185   9.4397954  85.8606277  19.6440420  13.3008207  75.7438939
  20.5558276  13.5335593  75.5686637  19.1350067  13.8845251  75.1814018
  12.4525848  15.5803694  90.7828070  13.1940532  16.1188738  90.5062894
  11.7462833  16.2069983  90.9399622  17.9281187  17.7232834  89.3800232
  18.3364543  17.2815245  88.6354864  17.2058449  17.1485462  89.6334425
  14.2812257  12.6605441  86.7533789  15.1273453  13.0844855  86.8968438
  14.2210895  12.0039065  87.4472352  18.2510002  18.2834025  83.1352521
  17.6218864  18.4479739  82.4328589  17.8635664  18.6975635  83.9063485
  22.1299234  19.2188463  80.4896885  21.4450272  19.5987364  79.9393918
  22.2143083  19.8283790  81.2228832  17.4311703  10.3209810  88.4114962
  17.1872635  11.0751870  87.8749238  17.7071633  10.6995157  89.2462210
  19.3850166  16.8648422  87.0892228  19.5967061  17.5080182  86.4126609
  19.3379914  16.0310738  86.6214158  16.9876394   9.4766243  83.9928800
  16.1260874   9.7747496  84.2845538  17.0138829   9.6936641  83.0609833
  13.8037964  18.0208433  80.4002606  14.2676309  18.2996136  79.6107228
  13.5394762  17.1191878  80.2175697  10.6962045  17.5679915  83.3382369
  11.2663402  17.9967183  82.6999854  11.2870157  17.2862499  84.0366555
  12.7406850  14.1431586  77.2092171  13.4430893  14.5952629  77.6766097
  12.4087478  13.5015404  77.8372064  20.4995993  19.7420377  85.2614585
  21.3213437  19.3400565  84.9797267  20.4958396  19.6388611  86.2130701
  14.2652597  19.2904421  87.4175296  14.3297029  19.7524828  88.2533468
  13.5563521  18.6601786  87.5457606  28.5901987  16.0859126  81.6099557
  27.8365695  15.5166524  81.4543561  28.7249528  16.0521790  82.5570192
  13.9800615  20.9572528  77.2854276  13.8446289  21.8024064  77.7139124
  14.5210427  21.1591806  76.5220210   7.4330012  18.4747966  77.8582201
   7.9454533  19.2691216  78.0087766   8.0852725  17.7774257  77.7915803
   9.2424897  21.5913722  79.9404954   9.4191525  22.5131687  79.7525938
  10.0381730  21.2772142  80.3699334  15.6069091  21.5796095  91.4154618
  15.1632945  20.7932473  91.0975523  16.2686305  21.7675245  90.7498509
  10.3656212  23.1091896  85.9415297  10.9163637  22.9808960  85.1692291
   9.5267688  23.4086785  85.5910190  17.7050329  21.8598895  89.4436020
  17.6868804  22.6807776  88.9516289  18.6270249  21.7352970  89.6686161
  14.1623383  19.3743024  90.2859528  14.6951720  18.6131312  90.0558836
  13.6337464  19.0816676  91.0283682  17.2943361  14.4711701  74.3225605
  16.7789984  15.2416306  74.5613992  17.0220669  13.7976837  74.9458666
  22.2677635  17.2244056  76.2578778  21.4907078  16.8855215  75.8133940
  22.9469116  17.2296679  75.5833743  17.0829664  12.3438793  76.1485386
  16.7779800  12.6584942  76.9995529  18.0360106  12.4220213  76.1912719
  15.5276096  18.5029017  77.7978340  14.9997457  17.7681776  77.4851577
  15.0263599  19.2803693  77.5518308  20.5068942  16.6978037  82.9145386
  19.8492616  17.3877298  83.0025515  21.3109341  17.0874469  83.2579373
  19.3174401  15.0522410  80.9649328  19.8306282  15.6852402  81.4671038
  19.9675625  14.4523605  80.5992688  13.6728696  16.3209227  70.8013313
  12.7655758  16.0898480  71.0004462  14.1699728  15.5246846  70.9887295
  16.5796775  25.0306734  73.7209999  15.9058474  25.3338431  74.3294957
  16.9662597  25.8335814  73.3715456  15.7955232  12.5271865  83.2107669
  14.8777793  12.7486812  83.0529357  16.2115375  12.6018176  82.3519376
  16.5790279  13.9263281  78.3410349  17.3262098  14.4384678  78.0317471
  16.8481869  13.6047334  79.2014742  14.8516930  16.4221822  75.3237303
  13.9428149  16.1380854  75.4209773  14.8812013  16.8420900  74.4640610
  20.0836197  20.0328411  79.0928471  19.6298524  19.1919321  79.1493661
  19.4530164  20.6689810  79.4303251  19.0269116  10.9620397  80.3229138
  18.2891873  10.4497783  80.6539381  19.2795890  10.5220779  79.5112415
  18.5269136  21.8704908  80.0278289  18.8192111  22.4309965  79.3090654
  19.0367757  22.1633469  80.7831448  13.4001824  14.0350442  81.4247098
  13.4550433  13.0824279  81.3489575  12.5893026  14.1909881  81.9088397
  14.5493017  17.9630565  72.6625382  14.1112447  17.2466424  72.2031019
  15.2903458  18.1906680  72.1010473  13.4902761  22.6485259  81.1171742
  13.4478940  22.8746105  80.1880274  14.4065460  22.4148634  81.2657543
  16.9368395  13.1169326  88.0152371  17.2917783  13.3440800  88.8746837
  17.5840526  13.4487703  87.3929626  22.6666132  16.2387762  78.7201700
  22.5284031  16.4289358  77.7922889  22.3102351  17.0007145  79.1769751
  22.6935512  18.3064289  83.7312972  23.1272018  18.2139578  84.5796026
  23.4067092  18.2821790  83.0932988  11.6068562  19.5248288  80.9133705
  12.4009161  19.0298608  80.7116280  10.8960255  18.9966151  80.5501410
  16.4263407  21.9066383  85.2646072  16.4800429  22.4757320  86.0323788
  15.5578188  22.0768269  84.9000109  23.5551061  18.3487990  86.2645857
  23.7486951  19.2533801  86.5105132  23.4551679  17.8895409  87.0984442
  18.6166170  18.4994733  91.8386738  18.4651676  18.2705284  90.9216821
  18.6070849  19.4565334  91.8518083  15.3851506  16.0726646  86.8233004
  16.3143566  16.2237805  86.6501971  14.9642536  16.1610666  85.9681651
  14.1839838  20.0977310  84.5931542  14.0450924  19.7296094  85.4657480
  13.3954434  20.6124949  84.4215500  14.7787990  25.1986406  75.9357078
  14.9539746  24.7274450  76.7502701  14.0920778  25.8252173  76.1638339
  15.7345053  19.4758913  81.9820380  15.3994886  19.4359683  82.8778029
  15.2348999  18.8103629  81.5090790   9.7089297  14.8826543  87.5072961
   9.5709095  14.1506781  88.1084500  10.6194221  14.7935443  87.2257148
  18.6704245  16.8214947  72.2557439  18.0533416  16.0961775  72.1590492
  18.2020733  17.5824307  71.9124514  12.3371598  14.5946502  86.9956640
  13.0471216  13.9539694  86.9543259  12.2940906  14.8459397  87.9182821
  20.3258377  21.5313855  89.9163220  20.2670923  20.8473075  89.2493803
  20.7277895  22.2732845  89.4643846   9.3449075  28.3475769  82.7096938
   9.5845674  28.9794293  83.3875957   8.5018272  27.9963809  82.9962298
  20.3275784  19.4953439  88.1477199  19.4402563  19.1579361  88.2703598
  20.8974335  18.7636470  88.3845965  13.8576937  24.1554892  85.1138442
  13.7847109  24.9609863  85.6257747  13.4154330  24.3546857  84.2886464
  13.6466717  23.3926662  78.6241264  12.8634239  23.9348342  78.7179489
  14.3459462  23.9100641  79.0235505  24.8093124  14.9061657  82.9093761
  24.7983001  15.7886372  82.5387694  23.9410504  14.5533207  82.7148298
  16.3175621  24.0541726  87.2696601  17.0303593  24.6889190  87.1972503
  15.8265649  24.1505592  86.4536603  18.0393148  17.9592978  78.8413893
  17.1049426  18.0794441  78.6718597  18.2169816  17.0565445  78.5773903
  21.4265699  13.8010298  79.3763927  21.8926151  14.6338289  79.3024230
  21.8773200  13.3355279  80.0809185  11.3687534  21.8036169  88.0902172
  12.0696994  22.4372652  88.2431566  10.8982649  22.1450901  87.3297811
  19.4941930  20.1454119  76.3750079  19.7701774  20.0310713  77.2843953
  18.6246429  19.7471604  76.3362252  19.1688820  14.3580777  85.9154722
  18.5160271  14.6056684  85.2607175  19.5469200  13.5444915  85.5817200
  16.1295994  24.3940470  80.0182893  16.3118389  23.5762126  80.4810645
  16.9528980  24.6108162  79.5807783  16.4638160  23.3208655  77.2797941
  16.9925926  22.8101109  76.6668103  16.7266379  23.0051185  78.1443474
  15.2176393  15.1000588  92.4020759  14.5417030  14.9994717  93.0723135
  16.0404027  14.9439801  92.8656757   6.9655252  21.3372524  85.0233275
   7.5508689  20.5916212  85.1561179   6.7680091  21.6476481  85.9069939
   9.8193908  24.3723772  80.0395717   9.1504283  24.8569899  79.5559757
   9.6806777  24.6192992  80.9539096  13.9599176  26.4067515  86.6378375
  14.5117484  26.5699137  87.4027461  14.3005370  26.9971953  85.9658400
  18.8110050  21.2328773  92.4927030  19.3549954  21.8458731  91.9981985
  18.2296895  21.7908351  93.0094043  17.0967563  24.3549491  83.6242058
  16.9718703  23.5539230  83.1153003  17.7546655  24.8495684  83.1356028
  19.1602472  22.1558511  85.2521608  18.2132807  22.0363862  85.1799934
  19.5085245  21.2681009  85.3347869  16.1648905  21.9511227  81.4525960
  16.0173868  21.0227934  81.6333530  16.9902399  21.9731318  80.9683035
  19.7683027  22.7739786  82.5390833  20.6929574  22.5682647  82.4015284
  19.5998330  22.5256187  83.4480174  19.5578343  23.2925453  77.8952924
  19.7315221  22.7271876  77.1426777  20.0507234  24.0926348  77.7132414
  25.4117734  16.0561876  79.5143224  25.8548880  15.3069201  79.1162347
  24.5344245  16.0472012  79.1316956  20.5453516  22.6092217  74.9949822
  21.2404420  23.2298910  75.2137137  20.8876666  21.7587569  75.2702200
  22.4444939  20.0591923  76.5237153  22.9696263  20.3979196  75.7986473
  22.3567291  19.1238938  76.3400288  14.1064987  23.9725997  88.6527030
  14.4152114  23.7275143  89.5249729  14.9040470  24.1772635  88.1645900
  14.1285600  26.1263906  80.8832406  13.6890590  25.6340285  81.5765263
  14.8793716  25.5836874  80.6424482   6.6077939  22.3175447  80.8857034
   7.4335958  22.0179219  80.5055678   6.2571991  21.5483070  81.3346823
  11.5759472  21.6701915  82.9554708  10.9539481  21.0072620  82.6556936
  12.2464339  21.6963047  82.2728356   4.8086544  20.2361774  81.8445968
   3.9718452  19.8083948  81.6629969   4.7810189  20.4294217  82.7816759
  22.1338845  20.6924827  91.8288351  21.3434389  20.6748965  91.2892850
  21.8972199  21.2313120  92.5837388  22.2536720  17.5417293  89.1421080
  22.3034725  17.3767300  90.0836602  22.1450643  16.6744552  88.7518960
  11.1372979  20.2205839  76.4313169  11.2861099  20.9041303  75.7779841
  11.9439422  20.2010929  76.9462624  19.5440482  13.5248221  90.4580386
  20.4450345  13.3854686  90.1664384  19.6188457  13.6902676  91.3978564
  23.7554917  19.9614235  89.3863101  23.4639725  20.3244215  90.2226562
  23.1427048  19.2481243  89.2076433  24.9550599  17.5267114  81.9065671
  25.7897490  17.9656918  82.0703232  25.0909728  17.0505768  81.0873917
  22.0042105  15.0846849  87.8543159  22.4796227  15.2774495  87.0462011
  21.0807670  15.1406035  87.6086543   8.8925612  16.2471016  77.4374237
   8.6471654  15.3433346  77.6354448   9.0621526  16.2488167  76.4953715
  14.6368384  22.7153969  73.9024916  14.0642351  23.3344156  73.4495388
  15.2101178  23.2653331  74.4364838  20.7043774  11.9612609  86.0871465
  21.6561197  12.0610707  86.1083689  20.5347224  11.1690878  86.5969549
  18.7258153   9.0468192  86.2730866  18.1308086   9.3273205  85.5777354
  18.4407850   9.5362093  87.0447607  17.8565644  22.9991119  75.0333498
  18.7896317  22.9336681  75.2366374  17.7688857  23.8347386  74.5748031
  20.4853661  22.3156990  71.9937446  20.4067292  21.9816853  72.8873204
  21.3063327  22.8078758  71.9928918  23.1831852  15.1818729  85.2013764
  23.1508172  14.2434730  85.3873448  23.7932475  15.2602766  84.4679589
  15.0215183  14.0514782  71.2440968  15.9674287  13.9220990  71.3129386
  14.6429428  13.3129444  71.7210397  23.3326340  11.9729772  85.2472048
  22.8165389  11.1888229  85.0601976  24.2166289  11.6448489  85.4118567
  29.0008402  16.2434736  84.3419801  29.7311790  15.9820024  84.9027505
  28.3915347  15.5063458  84.3821869  27.0823699  14.3842598  84.9394252
  26.3556862  14.2498563  84.3310744  26.6670986  14.6919427  85.7450970
  14.9053875  18.1032528  92.7041625  15.8256885  18.2811127  92.8981672
  14.8703458  17.1588573  92.5521325   7.9015948  16.0133563  85.3464407
   8.1201957  16.9450671  85.3652440   8.3141722  15.6541537  86.1319210
  20.1289521   7.7080220  78.4643056  19.5488190   8.3665024  78.0821108
  19.8625454   6.8857565  78.0530473  12.6375083  15.0163907  93.5532217
  12.1542165  15.8164267  93.7596106  12.7236022  15.0271852  92.5999661
   5.9061043  16.8492287  81.4754037   5.8831731  16.9479974  80.5235920
   6.2161679  17.6957438  81.7971203   8.5648421  18.9068442  85.5900651
   9.5191674  18.8752384  85.5230583   8.3660944  18.4459066  86.4050877
   9.1547803  17.4769558  88.1571449   9.9740692  17.9713637  88.1806286
   9.4284610  16.5601526  88.1289016  18.9114399   9.8680310  77.5199404
  18.0240254  10.1529961  77.3019599  19.3268388   9.7074074  76.6726681
  22.2628935   9.8926831  81.2353743  23.0389325  10.3823284  81.5078360
  21.5377069  10.3184886  81.6925613  24.7001494  10.6054451  82.2927684
  25.2945984  10.3650187  81.5820992  24.7728077   9.8861581  82.9201220
   6.9198649  24.4488061  82.6070849   6.7853117  23.6888462  82.0408847
   6.5030712  25.1728961  82.1399638  18.0557612  19.6324985  71.6147424
  18.7593462  19.8374988  72.2305080  17.3320261  20.2001747  71.8796508
  18.8855423  15.3834846  77.7349694  18.8290624  15.8403398  76.8957327
  19.4383765  14.6225531  77.5572537  22.6960229  11.1724578  78.5599814
  22.4397163  10.7721214  79.3908021  22.0713097  11.8868372  78.4349953
  27.0072566  13.9120651  81.0671105  26.4472124  13.9813841  81.8402667
  26.4016070  13.7361636  80.3470601  10.0767775  25.3457379  82.8189291
   9.9600159  26.2902811  82.7167982   9.2560222  25.0430940  83.2075091
  19.9644310  20.0707514  73.6645884  20.7989914  19.6388713  73.4823359
  19.8028653  19.8989528  74.5922779  19.6190202  16.5739628  75.0302223
  19.5639006  16.4083899  74.0890668  18.9936257  17.2815660  75.1864413
  16.9336109  18.8788539  94.3555786  17.8027269  19.0529192  93.9942421
  16.4542861  19.6982956  94.2331516  11.1022289  25.9985640  86.0345220
  12.0049536  26.0309251  86.3511715  10.8759659  25.0686091  86.0491556
  12.8575891  24.7516627  82.6955299  11.9071522  24.7518489  82.5819671
  13.1608378  24.0049362  82.1791333  28.5928585  30.5877165  83.7601061
  29.2306995  30.4683913  83.0564401  28.4749428  31.5358009  83.8189013
  25.4018291  30.5404593  83.6962586  25.0636803  30.4245658  82.8083120
  26.2708059  30.1395759  83.6763592  21.2605107  32.3940070  79.6859477
  20.6969972  32.3030007  78.9175764  21.1457502  31.5739974  80.1661969
  25.8838074  31.6939445  89.6548791  25.8726715  31.2992243  88.7829295
  26.0458714  30.9605518  90.2482563  18.8069539  33.8891261  82.5243697
  19.5990831  33.5482086  82.1089996  19.0466189  33.9986237  83.4445850
  26.8404666  36.0611038  74.9973941  26.1892645  36.6465118  74.6107955
  27.6349028  36.5917232  75.0568979  20.7660293  33.1500175  75.3961076
  21.5391169  32.6029162  75.2573952  21.1185692  34.0144424  75.6075537
  22.6045335  34.4776557  88.6027975  22.3135201  35.3822188  88.4874641
  23.2402320  34.5193085  89.3172045  23.5301542  31.8553405  85.1929335
  24.1265114  31.6309428  84.4786298  23.5876514  31.1138151  85.7954783
  23.1026571  29.3092841  73.0279526  23.3552091  28.7874362  72.2662989
  22.1651130  29.1458986  73.1306209  28.1469853  28.3128619  80.8354269
  28.9332943  27.8948042  80.4844686  28.4108558  29.2174711  81.0035917
  28.3179931  33.7501469  75.5342926  27.6825764  33.8236096  76.2463830
  27.9877337  34.3395068  74.8562005  22.8222859  31.2120947  75.2303901
  22.7059117  30.5365850  75.8984985  22.9325119  30.7253321  74.4136054
  25.1654400  30.6731094  78.9350590  24.8012607  30.1461715  79.6463511
  26.0221516  30.2829563  78.7617075  31.0703701  21.9625426  86.1981856
  30.7387026  22.8320837  85.9743071  30.4749314  21.6461710  86.8775886
  24.8059887  25.7020994  73.9311938  24.9734290  26.5701230  74.2982409
  24.6157056  25.8648275  73.0073228  27.5635220  34.1637972  85.5977769
  27.2635943  35.0663011  85.4893576  27.2186280  33.8970156  86.4498922
  21.0147702  30.6151769  81.6314473  20.0898198  30.4827983  81.8392165
  21.2632115  31.3945989  82.1284416  30.9632364  26.6820513  83.2775206
  30.0549241  26.6135921  82.9833967  30.9119960  27.1592458  84.1057032
  24.7849108  28.1578651  74.9158605  24.6648733  28.6035702  75.7544086
  24.0901696  28.5063969  74.3572143  18.3756513  30.2585043  82.4658262
  18.5048894  30.5119522  83.3797674  17.6953964  30.8512751  82.1462917
  22.5456000  40.9282293  78.5648736  22.4680030  41.8790118  78.6437217
  21.9417644  40.5828165  79.2223663  25.0373230  28.1010158  91.2210103
  24.2606564  28.6604078  91.2112968  25.6763793  28.5866941  91.7424974
  32.8294011  24.8836951  85.0553080  32.1868391  25.1769484  84.4092875
  32.3248939  24.7689871  85.8606277  30.4834174  28.6300124  75.7438939
  31.3952030  28.8627511  75.5686637  29.9743821  29.2137168  75.1814018
  23.2919602  30.9095612  90.7828070  24.0334287  31.4480656  90.5062894
  22.5856588  31.5361900  90.9399622  28.7674942  33.0524752  89.3800232
  29.1758298  32.6107163  88.6354864  28.0452203  32.4777380  89.6334425
  25.1206012  27.9897359  86.7533789  25.9667207  28.4136772  86.8968438
  25.0604650  27.3330983  87.4472352  29.0903757  33.6125943  83.1352521
  28.4612619  33.7771657  82.4328589  28.7029419  34.0267552  83.9063485
  32.9692988  34.5480381  80.4896885  32.2844027  34.9279282  79.9393918
  33.0536838  35.1575707  81.2228832  28.2705457  25.6501727  88.4114962
  28.0266389  26.4043788  87.8749238  28.5465388  26.0287075  89.2462210
  30.2243920  32.1940340  87.0892228  30.4360815  32.8372099  86.4126609
  30.1773668  31.3602656  86.6214158  27.8270149  24.8058160  83.9928800
  26.9654628  25.1039414  84.2845538  27.8532584  25.0228559  83.0609833
  24.6431718  33.3500351  80.4002606  25.1070064  33.6288054  79.6107228
  24.3788517  32.4483795  80.2175697  21.5355799  32.8971832  83.3382369
  22.1057157  33.3259101  82.6999854  22.1263911  32.6154417  84.0366555
  23.5800604  29.4723503  77.2092171  24.2824648  29.9244547  77.6766097
  23.2481233  28.8307322  77.8372064  22.0280966  28.0635260  91.5843380
  21.3979627  28.7451541  91.8178777  21.9217054  27.9518341  90.6396519
  17.3225938  27.7307056  82.5109305  16.5324992  27.9864584  82.0349415
  17.8137186  28.5455394  82.6161345  31.3389748  35.0712295  85.2614585
  32.1607192  34.6692482  84.9797267  31.3352151  34.9680529  86.2130701
  19.2740684  28.0951635  79.4692781  18.4771847  28.2070329  79.9876277
  19.0466276  28.4338287  78.6033672  25.1046351  34.6196338  87.4175296
  25.1690784  35.0816746  88.2533468  24.3957275  33.9893703  87.5457606
  15.6063641  27.9837546  84.9424295  15.8571680  28.8684556  85.2081871
  16.1423190  27.8042148  84.1699387  24.8194369  36.2864446  77.2854276
  24.6840044  37.1315982  77.7139124  25.3604182  36.4883723  76.5220210
  21.3061709  22.3656026  93.9468631  20.9128654  21.8122224  94.6216276
  22.1227849  22.6766604  94.3375149  18.2723766  33.8039884  77.8582201
  18.7848287  34.5983134  78.0087766  18.9246479  33.1066174  77.7915803
  20.0818651  36.9205640  79.9404954  20.2585280  37.8423605  79.7525938
  20.8775485  36.6064059  80.3699334  24.2229670  23.7813905  91.5388888
  24.9639383  24.3821058  91.4593350  24.4547593  23.0391543  90.9806931
  19.3671008  28.9670272  89.8167118  19.2524523  28.0655529  90.1174217
  18.5115525  29.2133969  89.4651934  26.4462845  36.9088012  91.4154618
  26.0026700  36.1224391  91.0975523  27.1080059  37.0967163  90.7498509
  21.2049967  38.4383814  85.9415297  21.7557392  38.3100877  85.1692291
  20.3661443  38.7378703  85.5910190  28.5444084  37.1890812  89.4436020
  28.5262559  38.0099693  88.9516289  29.4664004  37.0644887  89.6686161
  25.0017138  34.7034942  90.2859528  25.5345474  33.9423230  90.0558836
  24.4731219  34.4108594  91.0283682  28.1686833  19.8095008  85.8153170
  27.8251102  20.6996649  85.7392280  28.5365795  19.6196665  84.9522755
  16.2372683  32.1328538  78.6341772  17.0747905  32.5425546  78.4175480
  16.4150951  31.1927980  78.6041966  28.1337115  29.8003619  74.3225605
  27.6183739  30.5708223  74.5613992  27.8614424  29.1268755  74.9458666
  25.7184226  24.6453320  79.3810843  24.8625823  24.2560170  79.2016482
  26.1311178  24.7245280  78.5210629  27.2483373  22.1799663  83.7802403
  26.7448169  22.1429798  82.9670208  27.5413980  23.0892406  83.8399060
  23.4926259  22.2638393  82.7868585  24.3579256  22.0681201  82.4274474
  23.5603768  22.0348744  83.7137941  33.1071389  32.5535973  76.2578778
  32.3300832  32.2147133  75.8133940  33.7862870  32.5588597  75.5833743
  27.9223419  27.6730711  76.1485386  27.6173554  27.9876860  76.9995529
  28.8753861  27.7512131  76.1912719  26.3669850  33.8320934  77.7978340
  25.8391212  33.0973694  77.4851577  25.8657353  34.6095611  77.5518308
  31.3462696  32.0269955  82.9145386  30.6886371  32.7169216  83.0025515
  32.1503096  32.4166387  83.2579373  21.0988578  24.4940600  80.1584951
  21.6732330  24.2715782  79.4258144  21.6859560  24.5629295  80.9113553
  30.1568155  30.3814327  80.9649328  30.6700037  31.0144319  81.4671038
  30.8069379  29.7815523  80.5992688  21.4258165  26.5245062  74.1780837
  20.5895477  26.8619748  74.4990111  21.2862935  26.3894041  73.2407974
  23.4011246  21.3681849  78.8860021  22.7475658  21.0530867  78.2616636
  23.3591720  20.7457590  79.6119844  24.5122451  31.6501144  70.8013313
  23.6049512  31.4190398  71.0004462  25.0093483  30.8538764  70.9887295
  26.6348986  27.8563783  83.2107669  25.7171547  28.0778730  83.0529357
  27.0509130  27.9310093  82.3519376  27.4184034  29.2555199  78.3410349
  28.1655853  29.7676596  78.0317471  27.6875623  28.9339251  79.2014742
  25.6910684  31.7513739  75.3237303  24.7821903  31.4672772  75.4209773
  25.7205768  32.1712818  74.4640610  30.9229951  35.3620329  79.0928471
  30.4692279  34.5211239  79.1493661  30.2923918  35.9981727  79.4303251
  29.8662871  26.2912315  80.3229138  29.1285628  25.7789701  80.6539381
  30.1189645  25.8512696  79.5112415  29.3662891  37.1996826  80.0278289
  29.6585865  37.7601883  79.3090654  29.8761511  37.4925387  80.7831448
  29.9674498  19.0688567  80.9170907  30.2733375  18.2085930  80.6296822
  30.6927103  19.6606187  80.7169901  16.2598854  29.4719253  79.3052505
  16.0623254  28.8788614  78.5803572  15.7045518  29.1671464  80.0228444
  24.2395578  29.3642360  81.4247098  24.2944188  28.4116196  81.3489575
  23.4286780  29.5201799  81.9088397  25.3886772  33.2922483  72.6625382
  24.9506202  32.5758342  72.2031019  26.1297213  33.5198598  72.1010473
  22.1787938  27.9819420  79.1837477  21.3655803  28.2813590  79.5902669
  22.6746932  27.5875108  79.9011960  24.3296516  37.9777177  81.1171742
  24.2872695  38.2038023  80.1880274  25.2459215  37.7440551  81.2657543
  27.7762150  28.4461244  88.0152371  28.1311537  28.6732717  88.8746837
  28.4234281  28.7779621  87.3929626  33.5059887  31.5679680  78.7201700
  33.3677785  31.7581276  77.7922889  33.1496105  32.3299063  79.1769751
  21.6702013  25.5537775  84.7998712  22.3101392  25.4126534  84.1021676
  20.8379543  25.2672289  84.4237314  33.5329266  33.6356207  83.7312972
  33.9665773  33.5431496  84.5796026  34.2460847  33.6113708  83.0932988
  22.4462317  34.8540206  80.9133705  23.2402915  34.3590526  80.7116280
  21.7354009  34.3258069  80.5501410  27.2657161  37.2358301  85.2646072
  27.3194183  37.8049237  86.0323788  26.3971942  37.4060186  84.9000109
  18.7545080  28.9983287  76.9893457  17.8242668  28.9367743  77.2063420
  18.8502552  28.4759240  76.1930099  18.6730629  25.5238100  79.5771699
  18.9337446  26.4383433  79.4680860  19.4947801  25.0562543  79.7268312
  20.1455554  26.9375857  86.7470524  20.8178608  26.7293219  86.0983172
  19.3185341  26.7397943  86.3075756  34.3944816  33.6779908  86.2645857
  34.5880706  34.5825718  86.5105132  34.2945434  33.2187327  87.0984442
  26.0481126  23.5637798  88.7636184  25.4009042  24.2627748  88.6700661
  26.8182142  23.9973942  89.1312433  29.4559924  33.8286650  91.8386738
  29.3045431  33.5997202  90.9216821  29.4464604  34.7857252  91.8518083
  26.2245261  31.4018563  86.8233004  27.1537321  31.5529723  86.6501971
  25.8036291  31.4902584  85.9681651  25.0233593  35.4269228  84.5931542
  24.8844678  35.0588012  85.4657480  24.2348189  35.9416867  84.4215500
  26.5738808  34.8050830  81.9820380  26.2388640  34.7651600  82.8778029
  26.0742753  34.1395546  81.5090790  20.5483052  30.2118460  87.5072961
  20.4102850  29.4798699  88.1084500  21.4587975  30.1227360  87.2257148
  29.5097999  32.1506865  72.2557439  28.8927170  31.4253693  72.1590492
  29.0414488  32.9116225  71.9124514  23.1765352  29.9238420  86.9956640
  23.8864971  29.2831612  86.9543259  23.1334661  30.1751315  87.9182821
  31.1652131  36.8605773  89.9163220  31.1064677  36.1764993  89.2493803
  31.5671649  37.6024763  89.4643846  21.8894286  26.9103638  88.8152280
  21.3531643  26.4594376  89.4673876  21.3010995  27.0449546  88.0722744
  20.1842830  43.6767687  82.7096938  20.4239428  44.3086211  83.3875957
  19.3412026  43.3255727  82.9962298  21.2996545  26.3692289  71.3778744
  20.4226012  26.2481090  71.0140990  21.7754298  25.5778367  71.1257632
  31.1669538  34.8245357  88.1477199  30.2796317  34.4871279  88.2703598
  31.7368089  34.0928388  88.3845965  12.8198685  31.1569449  81.4720251
  13.5069725  30.8431179  80.8841266  12.6646814  32.0610813  81.1987502
  17.6233408  26.0459645  85.9005274  17.5391596  25.4385315  85.1655684
  16.8016114  26.5368664  85.9014771  24.6970692  39.4846809  85.1138442
  24.6240863  40.2901781  85.6257747  24.2548085  39.6838775  84.2886464
  24.4860471  38.7218579  78.6241264  23.7027993  39.2640259  78.7179489
  25.1853217  39.2392559  79.0235505  27.7957121  24.5313209  81.2675469
  28.2925821  23.7783171  80.9476540  27.0244103  24.5677525  80.7018679
  35.6486879  30.2353574  82.9093761  35.6376755  31.1178290  82.5387694
  34.7804258  29.8825125  82.7148298  27.1569375  39.3833643  87.2696601
  27.8697347  40.0181108  87.1972503  26.6659404  39.4797509  86.4536603
  28.8786902  33.2884896  78.8413893  27.9443181  33.4086358  78.6718597
  29.0563571  32.3857363  78.5773903  24.3792090  26.6730592  80.9947154
  24.0089878  26.1201632  81.6828060  24.8751183  26.0688725  80.4422154
  22.2081289  37.1328087  88.0902172  22.9090748  37.7664570  88.2431566
  21.7376404  37.4742818  87.3297811  30.3335685  35.4746037  76.3750079
  30.6095529  35.3602631  77.2843953  29.4640183  35.0763521  76.3362252
  30.2376116  21.4982802  83.4154828  29.3239196  21.7287029  83.5837035
  30.6669218  21.5821246  84.2668861  30.0082575  29.6872694  85.9154722
  29.3554025  29.9348602  85.2607175  30.3862955  28.8736832  85.5817200
  27.3031914  38.6500573  77.2797941  27.8319681  38.1393027  76.6668103
  27.5660134  38.3343103  78.1443474  26.0570148  30.4292505  92.4020759
  25.3810785  30.3286635  93.0723135  26.8797782  30.2731719  92.8656757
  17.8049007  36.6664442  85.0233275  18.3902444  35.9208130  85.1561179
  17.6073845  36.9768399  85.9069939  20.6587662  39.7015689  80.0395717
  19.9898037  40.1861817  79.5559757  20.5200532  39.9484910  80.9539096
  12.3966662  29.2370042  83.7437718  12.4350761  28.7033633  84.5374836
  11.8906954  28.7105248  83.1248695  24.7992931  41.7359433  86.6378375
  25.3511239  41.8991054  87.4027461  25.1399124  42.3263871  85.9658400
  19.7757424  24.0834583  87.2400260  19.8398750  24.9449413  86.8277658
  19.7124544  23.4708584  86.5072619  19.2509696  26.1557715  90.8873294
  19.8781735  25.7734792  91.5010819  18.3937615  25.9371917  91.2528987
  29.6503805  36.5620690  92.4927030  30.1943709  37.1750649  91.9981985
  29.0690650  37.1200269  93.0094043  16.0275239  27.9634144  76.8191649
  16.3228680  27.0544823  76.7658703  15.1263275  27.9421884  76.4972652
  27.9361318  39.6841408  83.6242058  27.8112457  38.8831148  83.1153003
  28.5940409  40.1787602  83.1356028  19.5569486  26.0390141  82.8019198
  18.8356072  26.6526108  82.6626671  20.3462742  26.5747906  82.7235844
  29.9996226  37.4850428  85.2521608  29.0526562  37.3655780  85.1799934
  30.3478999  36.5972926  85.3347869  22.3595800  23.3744567  89.0759850
  22.8830202  23.6206864  89.8386159  22.1408133  24.2064602  88.6562987
  17.7563081  25.6448242  76.9430974  17.4275787  24.7645621  76.7606080
  18.1102451  25.5895911  77.8307364  27.0042660  37.2803145  81.4525960
  26.8567622  36.3519852  81.6333530  27.8296153  37.3023235  80.9683035
  20.8704904  25.9321212  77.3106452  21.2100976  26.4607133  76.5885060
  21.3177024  26.2701618  78.0865019  30.6076781  38.1031703  82.5390833
  31.5323329  37.8974565  82.4015284  30.4392085  37.8548104  83.4480174
  23.5648345  24.3158262  86.7609520  23.2245165  23.5166075  87.1630200
  22.8587351  24.6159973  86.1886353  24.2164817  21.4007575  85.2136843
  25.0390886  20.9268053  85.0915733  24.4602880  22.1798059  85.7135529
  22.8573051  24.4295833  75.5099745  23.5781414  24.8077086  75.0063462
  22.2338355  25.1484710  75.6134723  27.0004174  25.1340982  76.4458077
  27.2167788  26.0165620  76.1446905  26.5198241  24.7427196  75.7163719
  21.7403395  28.0926695  83.0228822  21.5947976  28.4066999  83.9153103
  21.2628599  28.7111596  82.4699720  23.5999778  25.0829243  83.0709711
  23.5861347  24.1870337  82.7342009  24.3172206  25.0899907  83.7047997
  25.4525909  25.5166584  85.1162839  25.1943687  26.4383654  85.1147169
  24.9210949  25.1197018  85.8063303  30.3972098  38.6217371  77.8952924
  30.5708975  38.0563793  77.1426777  30.8900989  39.4218266  77.7132414
  16.2149057  30.6332040  85.9616483  15.6702526  31.4091848  86.0936757
  17.0928407  30.9802844  85.8035604  23.0036674  23.9643624  78.3397281
  23.1252585  23.0360270  78.5388169  22.7138717  23.9782310  77.4275597
  25.8727865  21.6498534  81.4764001  25.8949561  21.7137867  80.5215981
  26.2895924  20.8103043  81.6704507  31.3847270  37.9384135  74.9949822
  32.0798175  38.5590828  75.2137137  31.7270420  37.0879486  75.2702200
  17.0015079  29.7601936  88.8546640  16.2596815  29.9084571  89.4411270
  16.6807824  30.0210202  87.9913389  33.2838693  35.3883841  76.5237153
  33.8090017  35.7271113  75.7986473  33.1961046  34.4530856  76.3400288
  24.9458742  39.3017914  88.6527030  25.2545868  39.0567061  89.5249729
  25.7434224  39.5064553  88.1645900  17.4471693  37.6467365  80.8857034
  18.2729713  37.3471137  80.5055678  17.0965745  36.8774987  81.3346823
  22.4153226  36.9993833  82.9554708  21.7933235  36.3364538  82.6556936
  23.0858093  37.0254965  82.2728356  15.6480298  35.5653691  81.8445968
  14.8112206  35.1375866  81.6629969  15.6203943  35.7586135  82.7816759
  22.4877754  25.4775621  92.5487214  22.5365909  26.3537744  92.1664984
  23.0300268  24.9353014  91.9758857  32.9732599  36.0216744  91.8288351
  32.1828143  36.0040883  91.2892850  32.7365954  36.5605038  92.5837388
  33.0930474  32.8709211  89.1421080  33.1428479  32.7059218  90.0836602
  32.9844398  32.0036470  88.7518960  21.9766733  35.5497756  76.4313169
  22.1254853  36.2333221  75.7779841  22.7833177  35.5302846  76.9462624
  30.3834237  28.8540139  90.4580386  31.2844100  28.7146604  90.1664384
  30.4582211  29.0194594  91.3978564  24.7177042  26.2306993  89.3033573
  23.8480352  26.5240560  89.0316161  24.9536522  26.8147438  90.0240836
  34.5948671  35.2906152  89.3863101  34.3033480  35.6536133  90.2226562
  33.9820803  34.5773160  89.2076433  35.7944354  32.8559032  81.9065671
  36.6291245  33.2948836  82.0703232  35.9303482  32.3797685  81.0873917
  32.8435859  30.4138767  87.8543159  33.3189981  30.6066413  87.0462011
  31.9201425  30.4697953  87.6086543  19.7319366  31.5762934  77.4374237
  19.4865408  30.6725264  77.6354448  19.9015281  31.5780084  76.4953715
  27.4216076  22.4486610  86.8198993  27.9398020  23.1847637  86.4945482
  27.0671209  22.7550604  87.6545752  19.0015014  27.3091292  74.9360399
  18.3084259  27.3835647  74.2800435  18.7566766  26.5451635  75.4581916
  27.6728670  18.8686893  82.3399890  27.9530424  18.2010082  82.9660316
  28.4579277  19.0615989  81.8274553  25.4762139  38.0445887  73.9024916
  24.9036106  38.6636074  73.4495388  26.0494932  38.5945249  74.4364838
  31.5437528  27.2904527  86.0871465  32.4954951  27.3902625  86.1083689
  31.3740979  26.4982795  86.5969549  29.5651908  24.3760110  86.2730866
  28.9701840  24.6565123  85.5777354  29.2801605  24.8654011  87.0447607
  28.6959398  38.3283037  75.0333498  29.6290072  38.2628599  75.2366374
  28.6082611  39.1639304  74.5748031  31.3247415  37.6448907  71.9937446
  31.2461047  37.3108771  72.8873204  32.1457082  38.1370675  71.9928918
  34.0225606  30.5110647  85.2013764  33.9901926  29.5726647  85.3873448
  34.6326230  30.5894683  84.4679589  25.8608937  29.3806700  71.2440968
  26.8068042  29.2512908  71.3129386  25.4823182  28.6421361  71.7210397
  34.1720095  27.3021690  85.2472048  33.6559143  26.5180147  85.0601976
  35.0560043  26.9740407  85.4118567  31.8330822  21.0462706  81.2067860
  31.6355643  20.7377794  82.0911192  32.4430527  21.7724345  81.3365790
  37.9217453  29.7134516  84.9394252  37.1950617  29.5790481  84.3310744
  37.5064740  30.0211345  85.7450970  25.7447630  33.4324446  92.7041625
  26.6650639  33.6103045  92.8981672  25.7097213  32.4880491  92.5521325
  24.0451854  27.3056676  71.1795854  23.1383310  27.0089789  71.2558567
  24.3227835  27.0086494  70.3130140  14.9629795  28.6263039  81.6294900
  14.6432579  27.7728348  81.3369274  14.4163223  28.8411618  82.3852867
  18.7409702  31.3425480  85.3464407  18.9595712  32.2742588  85.3652440
  19.1535476  30.9833455  86.1319210  25.6613920  21.8493566  77.3340095
  24.8514648  21.5040651  77.7095341  26.3498337  21.5401109  77.9227707
  27.5904468  20.9271613  78.9564392  28.1435507  21.3467066  79.6154415
  27.8274555  20.0007361  78.9987348  23.6137568  26.9158686  94.7367156
  23.5134294  27.8653043  94.6679247  23.3959110  26.5876925  93.8643226
  22.8150639  24.1643611  71.3207833  23.6769803  24.4898510  71.5803650
  23.0000983  23.3775107  70.8080899  14.8318055  32.2465951  83.5988022
  14.1381526  31.8319904  83.0857976  15.5791046  32.2886487  83.0021441
  30.9683275  23.0372138  78.4643056  30.3881944  23.6956942  78.0821108
  30.7019208  22.2149482  78.0530473  29.4186842  22.4377195  80.6664376
  29.9186620  22.5493730  79.8578695  30.0622450  22.1338248  81.3065185
  23.4768838  30.3455825  93.5532217  22.9935919  31.1456185  93.7596106
  23.5629777  30.3563770  92.5999661  16.7454797  32.1784205  81.4754037
  16.7225485  32.2771892  80.5235920  17.0555434  33.0249355  81.7971203
  19.4042175  34.2360360  85.5900651  20.3585429  34.2044302  85.5230583
  19.2054699  33.7750983  86.4050877  19.9941557  32.8061476  88.1571449
  20.8134446  33.3005554  88.1806286  20.2678365  31.8893444  88.1289016
  29.7508153  25.1972228  77.5199404  28.8634008  25.4821879  77.3019599
  30.1662142  25.0365991  76.6726681  33.1022690  25.2218749  81.2353743
  33.8783080  25.7115201  81.5078360  32.3770824  25.6476803  81.6925613
  35.5395248  25.9346368  82.2927684  36.1339739  25.6942104  81.5820992
  35.6121832  25.2153499  82.9201220  17.7592404  39.7779979  82.6070849
  17.6246872  39.0180380  82.0408847  17.3424466  40.5020879  82.1399638
  28.8951367  34.9616903  71.6147424  29.5987217  35.1666905  72.2305080
  28.1714016  35.5293665  71.8796508  29.7249177  30.7126764  77.7349694
  29.6684379  31.1695315  76.8957327  30.2777520  29.9517449  77.5572537
  20.9161530  40.6749296  82.8189291  20.7993914  41.6194729  82.7167982
  20.0953976  40.3722858  83.2075091  30.8038064  35.3999432  73.6645884
  31.6383668  34.9680630  73.4823359  30.6422407  35.2281446  74.5922779
  30.4583956  31.9031545  75.0302223  30.4032760  31.7375817  74.0890668
  29.8330012  32.6107578  75.1864413  15.2476471  27.1399610  88.8563646
  15.8935335  26.6298564  89.3450871  15.0393623  27.8768291  89.4307071
  27.7729864  34.2080457  94.3555786  28.6421023  34.3821109  93.9942421
  27.2936615  35.0274874  94.2331516  23.7680082  21.4039654  74.6087542
  23.7558752  22.3481494  74.7655813  24.6603504  21.2209800  74.3147003
  21.9416044  41.3277558  86.0345220  22.8443291  41.3601168  86.3511715
  21.7153414  40.3978009  86.0491556  23.6969646  40.0808545  82.6955299
  22.7465277  40.0810406  82.5819671  24.0002132  39.3341279  82.1791333
  27.5832201  17.9982431  78.8633479  26.8164597  17.4440918  79.0090161
  27.9942906  18.0704300  79.7247630  19.5873962  24.2867227  92.9538660
  20.4505424  23.9304032  93.1641984  19.0139373  23.9481121  93.6414064
  41.9097455  37.2917344  86.1981856  41.5780780  38.1612755  85.9743071
  41.3143069  36.9753628  86.8775886  35.8766984  43.4302076  91.2210103
  35.1000318  43.9895996  91.2112968  36.5157547  43.9158859  91.7424974
  34.1313357  46.2387529  90.7828070  34.8728041  46.7772573  90.5062894
  33.4250342  46.8653818  90.9399622  32.8674720  43.3927177  91.5843380
  32.2373381  44.0743458  91.8178777  32.7610808  43.2810259  90.6396519
  26.4457396  43.3129464  84.9424295  26.6965434  44.1976474  85.2081871
  26.9816944  43.1334065  84.1699387  32.1455463  37.6947943  93.9468631
  31.7522409  37.1414142  94.6216276  32.9621604  38.0058522  94.3375149
  35.0623424  39.1105822  91.5388888  35.8033138  39.7112976  91.4593350
  35.2941347  38.3683460  90.9806931  30.2064762  44.2962190  89.8167118
  30.0918277  43.3947447  90.1174217  29.3509280  44.5425886  89.4651934
  39.0080587  35.1386925  85.8153170  38.6644857  36.0288567  85.7392280
  39.3759550  34.9488583  84.9522755  36.5577981  39.9745237  79.3810843
  35.7019577  39.5852088  79.2016482  36.9704933  40.0537198  78.5210629
  38.0877128  37.5091581  83.7802403  37.5841923  37.4721716  82.9670208
  38.3807734  38.4184323  83.8399060  34.3320013  37.5930310  82.7868585
  35.1973010  37.3973119  82.4274474  34.3997522  37.3640662  83.7137941
  34.2405000  36.6973767  78.8860021  33.5869413  36.3822784  78.2616636
  34.1985474  36.0749508  79.6119844  36.8874881  38.8929716  88.7636184
  36.2402796  39.5919666  88.6700661  37.6575896  39.3265860  89.1312433
  31.3876806  45.5410378  87.5072961  31.2496604  44.8090617  88.1084500
  32.2981730  45.4519278  87.2257148  32.7288041  42.2395555  88.8152280
  32.1925398  41.7886294  89.4673876  32.1404749  42.3741464  88.0722744
  28.4627162  41.3751563  85.9005274  28.3785351  40.7677232  85.1655684
  27.6409869  41.8660581  85.9014771  36.8963902  45.7584423  92.4020759
  36.2204539  45.6578552  93.0723135  37.7191536  45.6023637  92.8656757
  23.2360416  44.5661960  83.7437718  23.2744516  44.0325550  84.5374836
  22.7300709  44.0397165  83.1248695  30.6151178  39.4126500  87.2400260
  30.6792505  40.2741331  86.8277658  30.5518299  38.8000502  86.5072619
  30.0903451  41.4849633  90.8873294  30.7175490  41.1026710  91.5010819
  29.2331370  41.2663835  91.2528987  33.1989554  38.7036485  89.0759850
  33.7223956  38.9498781  89.8386159  32.9801887  39.5356520  88.6562987
  34.4042099  39.6450180  86.7609520  34.0638920  38.8457993  87.1630200
  33.6981105  39.9451891  86.1886353  35.0558571  36.7299492  85.2136843
  35.8784640  36.2559971  85.0915733  35.2996635  37.5089976  85.7135529
  37.8397928  40.4632900  76.4458077  38.0561543  41.3457538  76.1446905
  37.3591996  40.0719113  75.7163719  36.2919663  40.8458501  85.1162839
  36.0337441  41.7675572  85.1147169  35.7604704  40.4488936  85.8063303
  33.8430429  39.2935541  78.3397281  33.9646340  38.3652188  78.5388169
  33.5532471  39.3074227  77.4275597  36.7121619  36.9790452  81.4764001
  36.7343316  37.0429785  80.5215981  37.1289678  36.1394960  81.6704507
  27.8408834  45.0893854  88.8546640  27.0990570  45.2376489  89.4411270
  27.5201578  45.3502119  87.9913389  33.3271508  40.8067539  92.5487214
  33.3759664  41.6829662  92.1664984  33.8694022  40.2644932  91.9758857
  35.5570797  41.5598911  89.3033573  34.6874106  41.8532477  89.0316161
  35.7930277  42.1439356  90.0240836  38.2609830  37.7778528  86.8198993
  38.7791774  38.5139555  86.4945482  37.9064963  38.0842521  87.6545752
  36.5007674  37.1785483  77.3340095  35.6908403  36.8332568  77.7095341
  37.1892091  36.8693027  77.9227707  38.4298223  36.2563530  78.9564392
  38.9829261  36.6758984  79.6154415  38.6668309  35.3299278  78.9987348
  34.4531322  42.2450604  94.7367156  34.3528049  43.1944961  94.6679247
  34.2352864  41.9168843  93.8643226  33.6544393  39.4935529  71.3207833
  34.5163557  39.8190427  71.5803650  33.8394738  38.7067025  70.8080899
  41.8077030  38.3664055  78.4643056  41.2275699  39.0248859  78.0821108
  41.5412963  37.5441400  78.0530473  34.3162592  45.6747743  93.5532217
  33.8329674  46.4748103  93.7596106  34.4023531  45.6855688  92.5999661
  26.0870226  42.4691527  88.8563646  26.7329090  41.9590481  89.3450871
  25.8787377  43.2060209  89.4307071  34.6073836  36.7331572  74.6087542
  34.5952506  37.6773412  74.7655813  35.4997258  36.5501717  74.3147003
  30.4267717  39.6159144  92.9538660  31.2899178  39.2595949  93.1641984
  29.8533128  39.2773039  93.6414064  40.4857048  64.5475097  82.5243697
  41.2778340  64.2065921  82.1089996  40.7253698  64.6570072  83.4445850
  48.5192175  66.7194873  74.9973941  47.8680154  67.3048953  74.6107955
  49.3136537  67.2501068  75.0568979  44.2832844  65.1360392  88.6027975
  43.9922710  66.0406023  88.4874641  44.9189829  65.1776920  89.3172045
  44.2243509  71.5866128  78.5648736  44.1467539  72.5373953  78.6437217
  43.6205153  71.2412001  79.2223663  54.6480497  65.2064216  80.4896885
  53.9631536  65.5863117  79.9393918  54.7324347  65.8159543  81.2228832
  46.7833860  65.2780174  87.4175296  46.8478293  65.7400581  88.2533468
  46.0744784  64.6477539  87.5457606  61.1083250  62.0734879  81.6099557
  60.3546958  61.5042277  81.4543561  61.2430791  62.0397543  82.5570192
  46.4981878  66.9448281  77.2854276  46.3627553  67.7899817  77.7139124
  47.0391691  67.1467559  76.5220210  41.7606160  67.5789475  79.9404954
  41.9372788  68.5007440  79.7525938  42.5562994  67.2647895  80.3699334
  48.1250354  67.5671848  91.4154618  47.6814209  66.7808226  91.0975523
  48.7867568  67.7550998  90.7498509  42.8837476  69.0967649  85.9415297
  43.4344901  68.9684713  85.1692291  42.0448952  69.3962538  85.5910190
  50.2231593  67.8474648  89.4436020  50.2050068  68.6683529  88.9516289
  51.1451513  67.7228723  89.6686161  46.6804647  65.3618777  90.2859528
  47.2132983  64.6007065  90.0558836  46.1518728  65.0692429  91.0283682
  49.0978038  71.0182487  73.7209999  48.4239737  71.3214184  74.3294957
  49.4843860  71.8211567  73.3715456  52.6017460  66.0204164  79.0928471
  52.1479787  65.1795074  79.1493661  51.9711427  66.6565563  79.4303251
  51.0450400  67.8580661  80.0278289  51.3373374  68.4185718  79.3090654
  51.5549020  68.1509222  80.7831448  46.0084025  68.6361012  81.1171742
  45.9660204  68.8621858  80.1880274  46.9246724  68.4024387  81.2657543
  48.9444670  67.8942137  85.2646072  48.9981692  68.4633073  86.0323788
  48.0759451  68.0644022  84.9000109  51.1347433  64.4870486  91.8386738
  50.9832940  64.2581037  90.9216821  51.1252113  65.4441087  91.8518083
  46.7021102  66.0853063  84.5931542  46.5632187  65.7171847  85.4657480
  45.9135698  66.6000702  84.4215500  47.2969254  71.1862159  75.9357078
  47.4721009  70.7150203  76.7502701  46.6102042  71.8127926  76.1638339
  52.8439640  67.5189608  89.9163220  52.7852186  66.8348828  89.2493803
  53.2459158  68.2608598  89.4643846  41.8630339  74.3351522  82.7096938
  42.1026937  74.9670046  83.3875957  41.0199535  73.9839562  82.9962298
  46.3758201  70.1430645  85.1138442  46.3028372  70.9485616  85.6257747
  45.9335594  70.3422610  84.2886464  46.1647980  69.3802415  78.6241264
  45.3815502  69.9224095  78.7179489  46.8640726  69.8976394  79.0235505
  48.8356884  70.0417479  87.2696601  49.5484856  70.6764943  87.1972503
  48.3446913  70.1381345  86.4536603  43.8868798  67.7911922  88.0902172
  44.5878257  68.4248405  88.2431566  43.4163913  68.1326654  87.3297811
  52.0123194  66.1329872  76.3750079  52.2883038  66.0186466  77.2843953
  51.1427692  65.7347357  76.3362252  48.6477258  70.3816223  80.0182893
  48.8299652  69.5637879  80.4810645  49.4710244  70.5983915  79.5807783
  48.9819423  69.3084408  77.2797941  49.5107190  68.7976862  76.6668103
  49.2447643  68.9926938  78.1443474  39.4836516  67.3248277  85.0233275
  40.0689953  66.5791965  85.1561179  39.2861354  67.6352234  85.9069939
  42.3375171  70.3599525  80.0395717  41.6685546  70.8445652  79.5559757
  42.1988041  70.6068745  80.9539096  46.4780440  72.3943268  86.6378375
  47.0298748  72.5574890  87.4027461  46.8186633  72.9847706  85.9658400
  51.3291314  67.2204526  92.4927030  51.8731218  67.8334484  91.9981985
  50.7478159  67.7784104  93.0094043  49.6148827  70.3425244  83.6242058
  49.4899966  69.5414983  83.1153003  50.2727918  70.8371437  83.1356028
  51.6783735  68.1434264  85.2521608  50.7314071  68.0239615  85.1799934
  52.0266508  67.2556762  85.3347869  48.6830169  67.9386980  81.4525960
  48.5355131  67.0103687  81.6333530  49.5083662  67.9607071  80.9683035
  52.2864290  68.7615539  82.5390833  53.2110838  68.5558400  82.4015284
  52.1179594  68.5131940  83.4480174  52.0759607  69.2801206  77.8952924
  52.2496484  68.7147629  77.1426777  52.5688498  70.0802101  77.7132414
  53.0634779  68.5967971  74.9949822  53.7585684  69.2174663  75.2137137
  53.4057929  67.7463322  75.2702200  46.6246251  69.9601750  88.6527030
  46.9333377  69.7150896  89.5249729  47.4221733  70.1648388  88.1645900
  46.6466863  72.1139659  80.8832406  46.2071853  71.6216038  81.5765263
  47.3974980  71.5712627  80.6424482  39.1259202  68.3051200  80.8857034
  39.9517222  68.0054972  80.5055678  38.7753254  67.5358823  81.3346823
  44.0940735  67.6577668  82.9554708  43.4720744  66.9948373  82.6556936
  44.7645602  67.6838800  82.2728356  54.6520108  66.6800580  91.8288351
  53.8615652  66.6624719  91.2892850  54.4153463  67.2188873  92.5837388
  47.1549648  68.7029722  73.9024916  46.5823615  69.3219909  73.4495388
  47.7282441  69.2529084  74.4364838  50.3746907  68.9866872  75.0333498
  51.3077581  68.9212434  75.2366374  50.2870120  69.8223139  74.5748031
  53.0034924  68.3032743  71.9937446  52.9248556  67.9692606  72.8873204
  53.8244591  68.7954511  71.9928918  47.4235139  64.0908281  92.7041625
  48.3438148  64.2686880  92.8981672  47.3884722  63.1464326  92.5521325
  39.4379913  70.4363815  82.6070849  39.3034381  69.6764215  82.0408847
  39.0211975  71.1604714  82.1399638  42.5949039  71.3333132  82.8189291
  42.4781423  72.2778564  82.7167982  41.7741485  71.0306693  83.2075091
  49.4517373  64.8664292  94.3555786  50.3208532  65.0404945  93.9942421
  48.9724124  65.6858709  94.2331516  43.6203553  71.9861393  86.0345220
  44.5230800  72.0185004  86.3511715  43.3940923  71.0561844  86.0491556
  45.3757155  70.7392380  82.6955299  44.4252786  70.7394242  82.5819671
  45.6789641  69.9925115  82.1791333  53.7786370  78.3815823  79.6859477
  53.2151235  78.2905760  78.9175764  53.6638765  77.5615727  80.1661969
  51.3250802  79.8767014  82.5243697  52.1172094  79.5357839  82.1089996
  51.5647452  79.9861990  83.4445850  55.1226599  80.4652310  88.6027975
  54.8316465  81.3697941  88.4874641  55.7583583  80.5068838  89.3172045
  57.6835664  76.6606847  78.9350590  57.3193871  76.1337468  79.6463511
  58.5402780  76.2705316  78.7617075  53.5328965  76.6027522  81.6314473
  52.6079462  76.4703736  81.8392165  53.7813379  77.3821742  82.1284416
  50.8937776  76.2460796  82.4658262  51.0230158  76.4995275  83.3797674
  50.2135228  76.8388504  82.1462917  55.0637264  86.9158046  78.5648736
  54.9861293  87.8665871  78.6437217  54.4598907  86.5703918  79.2223663
  57.5554493  74.0885911  91.2210103  56.7787827  74.6479831  91.2112968
  58.1945056  74.5742694  91.7424974  55.8100866  76.8971365  90.7828070
  56.5515550  77.4356409  90.5062894  55.1037851  77.5237653  90.9399622
  61.2856205  79.0400505  89.3800232  61.6939561  78.5982916  88.6354864
  60.5633467  78.4653133  89.6334425  54.0537063  78.8847585  83.3382369
  54.6238420  79.3134854  82.6999854  54.6445175  78.6030170  84.0366555
  54.5462229  74.0511013  91.5843380  53.9160890  74.7327294  91.8178777
  54.4398317  73.9394094  90.6396519  49.8407202  73.7182809  82.5109305
  49.0506256  73.9740337  82.0349415  50.3318449  74.5331147  82.6161345
  51.7921947  74.0827388  79.4692781  50.9953111  74.1946082  79.9876277
  51.5647539  74.4214040  78.6033672  57.6227615  80.6072091  87.4175296
  57.6872047  81.0692499  88.2533468  56.9138539  79.9769456  87.5457606
  48.1244905  73.9713299  84.9424295  48.3752943  74.8560309  85.2081871
  48.6604453  73.7917901  84.1699387  53.8242972  68.3531779  93.9468631
  53.4309918  67.7997977  94.6216276  54.6409113  68.6642357  94.3375149
  50.7905030  79.7915637  77.8582201  51.3029551  80.5858887  78.0087766
  51.4427743  79.0941927  77.7915803  52.5999915  82.9081393  79.9404954
  52.7766543  83.8299358  79.7525938  53.3956748  82.5939812  80.3699334
  51.8852271  74.9546025  89.8167118  51.7705786  74.0531282  90.1174217
  51.0296789  75.2009722  89.4651934  58.9644109  82.8963765  91.4154618
  58.5207963  82.1100144  91.0975523  59.6261323  83.0842916  90.7498509
  53.7231230  84.4259567  85.9415297  54.2738655  84.2976630  85.1692291
  52.8842706  84.7254456  85.5910190  61.0625347  83.1766565  89.4436020
  61.0443822  83.9975446  88.9516289  61.9845267  83.0520640  89.6686161
  57.5198401  80.6910695  90.2859528  58.0526738  79.9298983  90.0558836
  56.9912482  80.3984347  91.0283682  48.7553947  78.1204291  78.6341772
  49.5929169  78.5301300  78.4175480  48.9332214  77.1803733  78.6041966
  58.2365490  70.6329073  79.3810843  57.3807086  70.2435923  79.2016482
  58.6492442  70.7121033  78.5210629  56.0107522  68.2514146  82.7868585
  56.8760519  68.0556954  82.4274474  56.0785031  68.0224497  83.7137941
  53.6169841  70.4816354  80.1584951  54.1913593  70.2591535  79.4258144
  54.2040824  70.5505048  80.9113553  55.9192509  67.3557602  78.8860021
  55.2656922  67.0406620  78.2616636  55.8772983  66.7333343  79.6119844
  48.7780118  75.4595006  79.3052505  48.5804518  74.8664367  78.5803572
  48.2226782  75.1547217  80.0228444  56.7576842  75.3518113  81.4247098
  56.8125451  74.3991949  81.3489575  55.9468044  75.5077552  81.9088397
  54.6969201  73.9695173  79.1837477  53.8837067  74.2689343  79.5902669
  55.1928196  73.5750861  79.9011960  56.8477779  83.9652930  81.1171742
  56.8053958  84.1913776  80.1880274  57.7640478  83.7316304  81.2657543
  54.1883276  71.5413528  84.7998712  54.8282656  71.4002287  84.1021676
  53.3560807  71.2548042  84.4237314  54.9643580  80.8415959  80.9133705
  55.7584179  80.3466279  80.7116280  54.2535272  80.3133822  80.5501410
  51.2726344  74.9859040  76.9893457  50.3423932  74.9243496  77.2063420
  51.3683816  74.4634993  76.1930099  51.1911893  71.5113853  79.5771699
  51.4518710  72.4259186  79.4680860  52.0129065  71.0438296  79.7268312
  52.6636818  72.9251610  86.7470524  53.3359871  72.7168973  86.0983172
  51.8366604  72.7273696  86.3075756  61.9741188  79.8162403  91.8386738
  61.8226694  79.5872955  90.9216821  61.9645867  80.7733005  91.8518083
  57.5414856  81.4144981  84.5931542  57.4025942  81.0463765  85.4657480
  56.7529452  81.9292620  84.4215500  53.0664315  76.1994213  87.5072961
  52.9284113  75.4674452  88.1084500  53.9769239  76.1103113  87.2257148
  54.4075550  72.8979391  88.8152280  53.8712907  72.4470129  89.4673876
  53.8192258  73.0325299  88.0722744  52.7024093  89.6643440  82.7096938
  52.9420692  90.2961964  83.3875957  51.8593290  89.3131480  82.9962298
  45.3379949  77.1445202  81.4720251  46.0250989  76.8306932  80.8841266
  45.1828078  78.0486566  81.1987502  50.1414671  72.0335398  85.9005274
  50.0572860  71.4261068  85.1655684  49.3197377  72.5244417  85.9014771
  60.3138385  70.5188962  81.2675469  60.8107084  69.7658924  80.9476540
  59.5425366  70.5553278  80.7018679  56.8973354  72.6606345  80.9947154
  56.5271141  72.1077385  81.6828060  57.3932446  72.0564478  80.4422154
  54.7262552  83.1203840  88.0902172  55.4272012  83.7540323  88.2431566
  54.2557667  83.4618571  87.3297811  59.4871012  85.7108140  80.0182893
  59.6693407  84.8929796  80.4810645  60.3103998  85.9275833  79.5807783
  58.5751411  76.4168258  92.4020759  57.8992048  76.3162388  93.0723135
  59.3979045  76.2607472  92.8656757  50.3230270  82.6540195  85.0233275
  50.9083707  81.9083883  85.1561179  50.1255109  82.9644152  85.9069939
  53.1768926  85.6891442  80.0395717  52.5079301  86.1737570  79.5559757
  53.0381795  85.9360663  80.9539096  44.9147925  75.2245795  83.7437718
  44.9532025  74.6909386  84.5374836  44.4088218  74.6981001  83.1248695
  52.2938687  70.0710336  87.2400260  52.3580014  70.9325166  86.8277658
  52.2305808  69.4584337  86.5072619  51.7690960  72.1433468  90.8873294
  52.3962999  71.7610545  91.5010819  50.9118879  71.9247670  91.2528987
  62.1685068  82.5496443  92.4927030  62.7124972  83.1626402  91.9981985
  61.5871913  83.1076022  93.0094043  48.5456503  73.9509897  76.8191649
  48.8409944  73.0420576  76.7658703  47.6444538  73.9297637  76.4972652
  52.0750750  72.0265894  82.8019198  51.3537335  72.6401862  82.6626671
  52.8644005  72.5623659  82.7235844  54.8777063  69.3620320  89.0759850
  55.4011465  69.6082617  89.8386159  54.6589396  70.1940355  88.6562987
  50.2744344  71.6323995  76.9430974  49.9457050  70.7521374  76.7606080
  50.6283715  71.5771664  77.8307364  53.3886167  71.9196965  77.3106452
  53.7282240  72.4482886  76.5885060  53.8358288  72.2577371  78.0865019
  55.3754315  70.4171586  75.5099745  56.0962677  70.7952839  75.0063462
  54.7519619  71.1360463  75.6134723  54.2584659  74.0802448  83.0228822
  54.1129240  74.3942752  83.9153103  53.7809862  74.6987349  82.4699720
  56.1181042  71.0704996  83.0709711  56.1042610  70.1746090  82.7342009
  56.8353470  71.0775660  83.7047997  48.7330321  76.6207793  85.9616483
  48.1883789  77.3967601  86.0936757  49.6109671  76.9678597  85.8035604
  55.5217938  69.9519377  78.3397281  55.6433849  69.0236023  78.5388169
  55.2319980  69.9658063  77.4275597  58.3909128  67.6374287  81.4764001
  58.4130825  67.7013620  80.5215981  58.8077187  66.7978796  81.6704507
  49.5196343  75.7477689  88.8546640  48.7778079  75.8960324  89.4411270
  49.1989087  76.0085955  87.9913389  57.4860618  87.4431577  80.8832406
  57.0465608  86.9507956  81.5765263  58.2368734  86.9004545  80.6424482
  49.9652956  83.6343118  80.8857034  50.7910976  83.3346890  80.5055678
  49.6147008  82.8650740  81.3346823  54.9334490  82.9869586  82.9554708
  54.3114499  82.3240291  82.6556936  55.6039357  83.0130718  82.2728356
  48.1661562  81.5529444  81.8445968  47.3293470  81.1251619  81.6629969
  48.1385207  81.7461888  82.7816759  55.0059017  71.4651374  92.5487214
  55.0547173  72.3413497  92.1664984  55.5481531  70.9228767  91.9758857
  57.2358306  72.2182747  89.3033573  56.3661615  72.5116313  89.0316161
  57.4717786  72.8023192  90.0240836  52.2500630  77.5638687  77.4374237
  52.0046671  76.6601017  77.6354448  52.4196544  77.5655837  76.4953715
  51.5196277  73.2967045  74.9360399  50.8265522  73.3711400  74.2800435
  51.2748029  72.5327388  75.4581916  58.2628893  79.4200199  92.7041625
  59.1831903  79.5978798  92.8981672  58.2278476  78.4756244  92.5521325
  47.4811058  74.6138792  81.6294900  47.1613842  73.7604101  81.3369274
  46.9344486  74.8287371  82.3852867  51.2590966  77.3301233  85.3464407
  51.4776975  78.2618341  85.3652440  51.6716739  76.9709208  86.1319210
  56.1318831  72.9034439  94.7367156  56.0315558  73.8528796  94.6679247
  55.9140373  72.5752678  93.8643226  47.3499318  78.2341704  83.5988022
  46.6562790  77.8195657  83.0857976  48.0972309  78.2762240  83.0021441
  55.9950101  76.3331578  93.5532217  55.5117183  77.1331938  93.7596106
  56.0811040  76.3439523  92.5999661  49.2636061  78.1659958  81.4754037
  49.2406749  78.2647645  80.5235920  49.5736697  79.0125108  81.7971203
  51.9223439  80.2236113  85.5900651  52.8766692  80.1920055  85.5230583
  51.7235962  79.7626736  86.4050877  52.5122821  78.7937229  88.1571449
  53.3315710  79.2881307  88.1806286  52.7859628  77.8769197  88.1289016
  50.2773667  85.7655732  82.6070849  50.1428135  85.0056133  82.0408847
  49.8605730  86.4896632  82.1399638  53.4342793  86.6625049  82.8189291
  53.3175177  87.6070482  82.7167982  52.6135239  86.3598611  83.2075091
  47.7657735  73.1275363  88.8563646  48.4116599  72.6174317  89.3450871
  47.5574886  73.8644044  89.4307071  60.2911127  80.1956210  94.3555786
  61.1602287  80.3696862  93.9942421  59.8117879  81.0150627  94.2331516
  54.4597307  87.3153311  86.0345220  55.3624554  87.3476921  86.3511715
  54.2334677  86.3853762  86.0491556  56.2150909  86.0684298  82.6955299
  55.2646540  86.0686159  82.5819671  56.5183395  85.3217032  82.1791333
  52.1055226  70.2742980  92.9538660  52.9686687  69.9179785  93.1641984
  51.5320637  69.9356875  93.6414064  62.1644557  95.2058932  82.5243697
  62.9565849  94.8649757  82.1089996  62.4041207  95.3153907  83.4445850
  68.1424126  89.4746322  74.9158605  68.0223751  89.9203373  75.7544086
  67.4476714  89.8231639  74.3572143  61.7331531  91.5752714  82.4658262
  61.8623912  91.8287193  83.3797674  61.0528982  92.1680422  82.1462917
  60.6800956  89.0474727  82.5109305  59.8900010  89.3032255  82.0349415
  61.1712204  89.8623064  82.6161345  64.6636727  83.6823696  93.9468631
  64.2703672  83.1289895  94.6216276  65.4802867  83.9934275  94.3375149
  63.4393669  98.2373311  79.9404954  63.6160297  99.1591276  79.7525938
  64.2350503  97.9231730  80.3699334  62.7246026  90.2837943  89.8167118
  62.6099541  89.3823200  90.1174217  61.8690543  90.5301639  89.4651934
  59.5947701  93.4496209  78.6341772  60.4322923  93.8593217  78.4175480
  59.7725969  92.5095651  78.6041966  59.6173872  90.7886924  79.3052505
  59.4198272  90.1956285  78.5803572  59.0620536  90.4839134  80.0228444
  56.1773703  92.4737119  81.4720251  56.8644743  92.1598849  80.8841266
  56.0221832  93.3778484  81.1987502  55.7541680  90.5537713  83.7437718
  55.7925779  90.0201303  84.5374836  55.2481972  90.0272918  83.1248695
  62.6084714  87.4725386  90.8873294  63.2356753  87.0902463  91.5010819
  61.7512633  87.2539588  91.2528987  59.5724075  91.9499711  85.9616483
  59.0277544  92.7259518  86.0936757  60.4503425  92.2970515  85.8035604
  79.6086507  92.7021464  79.5143224  80.0517653  91.9528790  79.1162347
  78.7313017  92.6931601  79.1316956  60.3590097  91.0769607  88.8546640
  59.6171833  91.2252242  89.4411270  60.0382842  91.3377872  87.9913389
  60.8046711  98.9635036  80.8857034  61.6304731  98.6638807  80.5055678
  60.4540763  98.1942658  81.3346823  59.0055316  96.8821362  81.8445968
  58.1687224  96.4543536  81.6629969  58.9778961  97.0753805  82.7816759
  74.9012546  88.6072198  86.0871465  75.8529969  88.7070295  86.1083689
  74.7315997  87.8150466  86.5969549  58.3204813  89.9430710  81.6294900
  58.0007597  89.0896018  81.3369274  57.7738241  90.1579288  82.3852867
  58.1893073  93.5633622  83.5988022  57.4956544  93.1487574  83.0857976
  58.9366064  93.6054158  83.0021441  60.1029815  93.4951875  81.4754037
  60.0800503  93.5939563  80.5235920  60.4130452  94.3417026  81.7971203
  62.9448980  85.6034897  92.9538660  63.8080442  85.2471702  93.1641984
  62.3714391  85.2648792  93.6414064  87.0262783 101.5296539  85.0553080
  86.3837163 101.8229073  84.4092875  86.5217712 101.4149460  85.8606277
  84.1643271  95.7148155  80.9170907  84.4702148  94.8545519  80.6296822
  84.8895876  96.3065775  80.7169901  84.4344889  98.1442391  83.4154828
  83.5207969  98.3746617  83.5837035  84.8637990  98.2280835  84.2668861
  81.8697443  95.5146481  82.3399890  82.1499196  94.8469670  82.9660316
  82.6548049  95.7075577  81.8274553  88.3688867 103.9481278  85.2472048
  87.8527916 103.1639735  85.0601976  89.2528816 103.6199995  85.4118567
  92.1186226 106.3594104  84.9394252  91.3919389 106.2250069  84.3310744
  91.7033513 106.6670933  85.7450970  83.6155614  99.0836784  80.6664376
  84.1155393  99.1953318  79.8578695  84.2591222  98.7797837  81.3065185
  87.2991462 101.8678337  81.2353743  88.0751852 102.3574790  81.5078360
  86.5739596 102.2936392  81.6925613  81.7800974  94.6442019  78.8633479
  81.0133370  94.0900506  79.0090161  82.1911679  94.7163888  79.7247630
  93.6291112 122.5628671  83.7601061  94.2669522 122.4435419  83.0564401
  93.5111955 123.5109515  83.8189013  90.4380818 122.5156100  83.6962586
  90.0999330 122.3997164  82.8083120  91.3070586 122.1147265  83.6763592
  86.2967634 124.3691576  79.6859477  85.7332499 124.2781513  78.9175764
  86.1820029 123.5491480  80.1661969  90.9200601 123.6690951  89.6548791
  90.9089242 123.2743750  88.7829295  91.0821241 122.9357024  90.2482563
  83.8432066 125.8642768  82.5243697  84.6353358 125.5233592  82.1089996
  84.0828716 125.9737743  83.4445850  91.8767193 128.0362544  74.9973941
  91.2255172 128.6216624  74.6107955  92.6711555 128.5668739  75.0568979
  85.8022820 125.1251681  75.3961076  86.5753696 124.5780668  75.2573952
  86.1548219 125.9895930  75.6075537  87.6407862 126.4528063  88.6027975
  87.3497728 127.3573694  88.4874641  88.2764847 126.4944591  89.3172045
  88.5664069 123.8304912  85.1929335  89.1627641 123.6060934  84.4786298
  88.6239041 123.0889657  85.7954783  93.3542458 125.7252976  75.5342926
  92.7188291 125.7987602  76.2463830  93.0239864 126.3146574  74.8562005
  98.5840807 120.2255358  81.7387247  99.3165979 119.6554575  81.9725077
  97.8280163 119.8376959  82.1793753  87.8585386 123.1872453  75.2303901
  87.7421644 122.5117356  75.8984985  87.9687646 122.7004827  74.4136054
  90.2016927 122.6482600  78.9350590  89.8375134 122.1213221  79.6463511
  91.0584043 122.2581069  78.7617075  96.1066228 113.9376933  86.1981856
  95.7749553 114.8072344  85.9743071  95.5111841 113.6213217  86.8775886
  92.5997747 126.1389479  85.5977769  92.2998470 127.0414517  85.4893576
  92.2548807 125.8721662  86.4498922  86.0510229 122.5903275  81.6314473
  85.1260725 122.4579489  81.8392165  86.2994642 123.3697495  82.1284416
  95.9994891 118.6572019  83.2775206  95.0911768 118.5887427  82.9833967
  95.9482487 119.1343964  84.1057032  87.5818527 132.9033799  78.5648736
  87.5042557 133.8541624  78.6437217  86.9780171 132.5579671  79.2223663
  97.8656537 116.8588457  85.0553080  97.2230918 117.1520990  84.4092875
  97.3611466 116.7441377  85.8606277  88.3282129 122.8847118  90.7828070
  89.0696814 123.4232162  90.5062894  87.6219115 123.5113406  90.9399622
  93.8037469 125.0276258  89.3800232  94.2120825 124.5858669  88.6354864
  93.0814730 124.4528886  89.6334425  94.1266283 125.5877449  83.1352521
  93.4975146 125.7523163  82.4328589  93.7391946 126.0019058  83.9063485
  98.0055515 126.5231887  80.4896885  97.3206554 126.9030788  79.9393918
  98.0899365 127.1327213  81.2228832  95.2606447 124.1691846  87.0892228
  95.4723342 124.8123606  86.4126609  95.2136195 123.3354162  86.6214158
  92.8632676 116.7809666  83.9928800  92.0017155 117.0790920  84.2845538
  92.8895111 116.9980065  83.0609833  89.6794245 125.3251857  80.4002606
  90.1432591 125.6039560  79.6107228  89.4151043 124.4235301  80.2175697
  86.5718326 124.8723338  83.3382369  87.1419683 125.3010607  82.6999854
  87.1626438 124.5905923  84.0366555  96.3752275 127.0463801  85.2614585
  97.1969719 126.6443988  84.9797267  96.3714678 126.9432035  86.2130701
  90.1408878 126.5947844  87.4175296  90.2053311 127.0568252  88.2533468
  89.4319802 125.9645209  87.5457606 104.4658268 123.3902550  81.6099557
 103.7121976 122.8209948  81.4543561 104.6005809 123.3565214  82.5570192
  89.8556896 128.2615952  77.2854276  89.7202571 129.1067488  77.7139124
  90.3966709 128.4635229  76.5220210  85.1181178 128.8957146  79.9404954
  85.2947806 129.8175111  79.7525938  85.9138012 128.5815565  80.3699334
  84.4033535 120.9421778  89.8167118  84.2887050 120.0407035  90.1174217
  83.5478052 121.1885475  89.4651934  91.4825372 128.8839518  91.4154618
  91.0389227 128.0975897  91.0975523  92.1442586 129.0718669  90.7498509
  86.2412494 130.4135320  85.9415297  86.7919919 130.2852383  85.1692291
  85.4023969 130.7130209  85.5910190  93.5806610 129.1642318  89.4436020
  93.5625086 129.9851199  88.9516289  94.5026531 129.0396394  89.6686161
  90.0379665 126.6786448  90.2859528  90.5708001 125.9174736  90.0558836
  89.5093746 126.3860100  91.0283682  92.2845900 114.1551169  83.7802403
  91.7810696 114.1181304  82.9670208  92.5776507 115.0643912  83.8399060
  98.1433916 124.5287479  76.2578778  97.3663359 124.1898639  75.8133940
  98.8225397 124.5340103  75.5833743  91.4032377 125.8072440  77.7978340
  90.8753739 125.0725200  77.4851577  90.9019880 126.5847117  77.5518308
  96.3825223 124.0021461  82.9145386  95.7248898 124.6920722  83.0025515
  97.1865623 124.3917893  83.2579373  95.1930682 122.3565833  80.9649328
  95.7062564 122.9895825  81.4671038  95.8431906 121.7567029  80.5992688
  89.5484977 123.6252651  70.8013313  88.6412039 123.3941904  71.0004462
  90.0456009 122.8290270  70.9887295  92.4553056 132.3350158  73.7209999
  91.7814755 132.6381854  74.3294957  92.8418878 133.1379238  73.3715456
  91.6711513 119.8315289  83.2107669  90.7534074 120.0530236  83.0529357
  92.0871657 119.9061599  82.3519376  95.9592478 127.3371835  79.0928471
  95.5054805 126.4962745  79.1493661  95.3286445 127.9733233  79.4303251
  94.4025418 129.1748332  80.0278289  94.6948392 129.7353389  79.3090654
  94.9124038 129.4676893  80.7831448  89.2758105 121.3393866  81.4247098
  89.3306715 120.3867702  81.3489575  88.4649307 121.4953305  81.9088397
  90.4249299 125.2673989  72.6625382  89.9868729 124.5509848  72.2031019
  91.1659740 125.4950104  72.1010473  89.3659043 129.9528683  81.1171742
  89.3235222 130.1789529  80.1880274  90.2821742 129.7192057  81.2657543
  92.8124677 120.4212750  88.0152371  93.1674064 120.6484223  88.8746837
  93.4596808 120.7531127  87.3929626  98.5422414 123.5431186  78.7201700
  98.4040312 123.7332782  77.7922889  98.1858632 124.3050569  79.1769751
  98.5691793 125.6107713  83.7312972  99.0028300 125.5183002  84.5796026
  99.2823374 125.5865214  83.0932988  87.4824844 126.8291712  80.9133705
  88.2765442 126.3342032  80.7116280  86.7716536 126.3009575  80.5501410
  92.3019688 129.2109807  85.2646072  92.3556710 129.7800744  86.0323788
  91.4334469 129.3811692  84.9000109  99.4307343 125.6531414  86.2645857
  99.6243233 126.5577224  86.5105132  99.3307961 125.1938833  87.0984442
  94.4922451 125.8038157  91.8386738  94.3407958 125.5748708  90.9216821
  94.4827131 126.7608758  91.8518083  91.2607788 123.3770069  86.8233004
  92.1899848 123.5281229  86.6501971  90.8398818 123.4654090  85.9681651
  90.0596120 127.4020734  84.5931542  89.9207205 127.0339518  85.4657480
  89.2710716 127.9168373  84.4215500  90.6544272 132.5029830  75.9357078
  90.8296027 132.0317873  76.7502701  89.9677060 133.1295596  76.1638339
  91.6101335 126.7802336  81.9820380  91.2751167 126.7403106  82.8778029
  91.1105280 126.1147052  81.5090790  85.5845579 122.1869966  87.5072961
  85.4465377 121.4550205  88.1084500  86.4950502 122.0978866  87.2257148
  94.5460526 124.1258371  72.2557439  93.9289697 123.4005199  72.1590492
  94.0777015 124.8867731  71.9124514  88.2127879 121.8989926  86.9956640
  88.9227498 121.2583118  86.9543259  88.1697187 122.1502821  87.9182821
  96.2014658 128.8357279  89.9163220  96.1427204 128.1516499  89.2493803
  96.6034176 129.5776269  89.4643846  85.2205357 135.6519193  82.7096938
  85.4601955 136.2837717  83.3875957  84.3774553 135.3007233  82.9962298
  96.2032065 126.7996863  88.1477199  95.3158844 126.4622785  88.2703598
  96.7730616 126.0679894  88.3845965  89.7333219 131.4598315  85.1138442
  89.6603390 132.2653287  85.6257747  89.2910612 131.6590281  84.2886464
  89.5222998 130.6970085  78.6241264  88.7390520 131.2391766  78.7179489
  90.2215743 131.2144065  79.0235505  92.1931902 131.3585149  87.2696601
  92.9059874 131.9932614  87.1972503  91.7021931 131.4549015  86.4536603
  93.9149429 125.2636402  78.8413893  92.9805708 125.3837865  78.6718597
  94.0926098 124.3608869  78.5773903  87.2443816 129.1079593  88.0902172
  87.9453275 129.7416076  88.2431566  86.7738931 129.4494324  87.3297811
  95.3698212 127.4497543  76.3750079  95.6458055 127.3354137  77.2843953
  94.5002710 127.0515027  76.3362252  95.2738643 113.4734308  83.4154828
  94.3601723 113.7038535  83.5837035  95.7031745 113.5572752  84.2668861
  95.0445102 121.6624200  85.9154722  94.3916552 121.9100108  85.2607175
  95.4225482 120.8488338  85.5817200  92.0052276 131.6983893  80.0182893
  92.1874670 130.8805549  80.4810645  92.8285262 131.9151586  79.5807783
  92.3394441 130.6252079  77.2797941  92.8682207 130.1144533  76.6668103
  92.6022661 130.3094609  78.1443474  91.0932675 122.4044011  92.4020759
  90.4173312 122.3038141  93.0723135  91.9160309 122.2483225  92.8656757
  82.8411534 128.6415948  85.0233275  83.4264971 127.8959636  85.1561179
  82.6436372 128.9519905  85.9069939  85.6950189 131.6767195  80.0395717
  85.0260564 132.1613323  79.5559757  85.5563059 131.9236416  80.9539096
  77.4329189 121.2121548  83.7437718  77.4713288 120.6785139  84.5374836
  76.9269481 120.6856754  83.1248695  89.8355458 133.7110939  86.6378375
  90.3873766 133.8742560  87.4027461  90.1761651 134.3015377  85.9658400
  94.6866332 128.5372196  92.4927030  95.2306236 129.1502155  91.9981985
  94.1053177 129.0951775  93.0094043  92.9723845 131.6592914  83.6242058
  92.8474984 130.8582654  83.1153003  93.6302936 132.1539108  83.1356028
  95.0358753 129.4601934  85.2521608  94.0889089 129.3407286  85.1799934
  95.3841526 128.5724432  85.3347869  92.0405187 129.2554651  81.4525960
  91.8930149 128.3271358  81.6333530  92.8658680 129.2774741  80.9683035
  95.6439308 130.0783209  82.5390833  96.5685856 129.8726071  82.4015284
  95.4754612 129.8299611  83.4480174  95.4334625 130.5968877  77.8952924
  95.6071502 130.0315299  77.1426777  95.9263516 131.3969772  77.7132414
  81.2511584 122.6083546  85.9616483  80.7065052 123.3843354  86.0936757
  82.1290934 122.9554350  85.8035604 101.2874016 123.3605300  79.5143224
 101.7305162 122.6112625  79.1162347 100.4100526 123.3515436  79.1316956
  96.4209797 129.9135641  74.9949822  97.1160702 130.5342334  75.2137137
  96.7632947 129.0630992  75.2702200  82.0377606 121.7353442  88.8546640
  81.2959342 121.8836078  89.4411270  81.7170351 121.9961708  87.9913389
  98.3201220 127.3635347  76.5237153  98.8452544 127.7022619  75.7986473
  98.2323573 126.4282362  76.3400288  89.9821269 131.2769420  88.6527030
  90.2908395 131.0318567  89.5249729  90.7796751 131.4816059  88.1645900
  90.0041881 133.4307330  80.8832406  89.5646871 132.9383709  81.5765263
  90.7549998 132.8880298  80.6424482  82.4834220 129.6218871  80.8857034
  83.3092240 129.3222643  80.5055678  82.1328272 128.8526493  81.3346823
  87.4515753 128.9745339  82.9554708  86.8295762 128.3116044  82.6556936
  88.1220620 129.0006471  82.2728356  80.6842825 127.5405197  81.8445968
  79.8474733 127.1127372  81.6629969  80.6566470 127.7337641  82.7816759
  98.0095126 127.9968250  91.8288351  97.2190670 127.9792389  91.2892850
  97.7728481 128.5356544  92.5837388  98.1293001 124.8460717  89.1421080
  98.1791006 124.6810724  90.0836602  98.0206925 123.9787976  88.7518960
  87.0129260 127.5249262  76.4313169  87.1617380 128.2084727  75.7779841
  87.8195703 127.5054353  76.9462624  95.4196764 120.8291645  90.4580386
  96.3206626 120.6898110  90.1664384  95.4944738 120.9946100  91.3978564
  99.6311198 127.2657658  89.3863101  99.3396006 127.6287639  90.2226562
  99.0183329 126.5524667  89.2076433 100.8306880 124.8310538  81.9065671
 101.6653772 125.2700342  82.0703232 100.9666009 124.3549191  81.0873917
  97.8798386 122.3890273  87.8543159  98.3552508 122.5817919  87.0462011
  96.9563952 122.4449459  87.6086543  92.7091197 110.8438399  82.3399890
  92.9892951 110.1761588  82.9660316  93.4941804 111.0367495  81.8274553
  90.5124666 130.0197393  73.9024916  89.9398633 130.6387580  73.4495388
  91.0857459 130.5696755  74.4364838  96.5800055 119.2656033  86.0871465
  97.5317478 119.3654131  86.1083689  96.4103506 118.4734302  86.5969549
  93.7321925 130.3034543  75.0333498  94.6652598 130.2380105  75.2366374
  93.6445138 131.1390810  74.5748031  96.3609942 129.6200413  71.9937446
  96.2823574 129.2860277  72.8873204  97.1819609 130.1122181  71.9928918
  99.0588133 122.4862153  85.2013764  99.0264453 121.5478153  85.3873448
  99.6688757 122.5646189  84.4679589  99.2082622 119.2773196  85.2472048
  98.6921670 118.4931653  85.0601976 100.0922570 118.9491913  85.4118567
 104.8764683 123.5478160  84.3419801 105.6068072 123.2863448  84.9027505
 104.2671629 122.8106881  84.3821869 102.9579980 121.6886022  84.9394252
 102.2313144 121.5541987  84.3310744 102.5427267 121.9962851  85.7450970
  90.7810157 125.4075952  92.7041625  91.7013166 125.5854551  92.8981672
  90.7459740 124.4631997  92.5521325  83.7772229 123.3176986  85.3464407
  83.9958239 124.2494094  85.3652440  84.1898003 122.9584961  86.1319210
  88.5131365 122.3207331  93.5532217  88.0298446 123.1207691  93.7596106
  88.5992304 122.3315276  92.5999661  84.4404702 126.2111866  85.5900651
  85.3947956 126.1795808  85.5230583  84.2417226 125.7502489  86.4050877
  85.0304084 124.7812982  88.1571449  85.8496973 125.2757060  88.1806286
  85.3040892 123.8644950  88.1289016  98.1385216 117.1970255  81.2353743
  98.9145607 117.6866708  81.5078360  97.4133351 117.6228309  81.6925613
 100.5757775 117.9097874  82.2927684 101.1702266 117.6693610  81.5820992
 100.6484359 117.1905005  82.9201220  82.7954931 131.7531485  82.6070849
  82.6609399 130.9931886  82.0408847  82.3786993 132.4772385  82.1399638
  93.9313894 126.9368409  71.6147424  94.6349744 127.1418411  72.2305080
  93.2076543 127.5045171  71.8796508 102.8828848 121.2164075  81.0671105
 102.3228406 121.2857264  81.8402667 102.2772351 121.0405060  80.3470601
  85.9524057 132.6500802  82.8189291  85.8356441 133.5946235  82.7167982
  85.1316503 132.3474364  83.2075091  95.8400591 127.3750938  73.6645884
  96.6746195 126.9432136  73.4823359  95.6784934 127.2032952  74.5922779
  92.8092391 126.1831963  94.3555786  93.6783550 126.3572615  93.9942421
  92.3299142 127.0026380  94.2331516  86.9778571 133.3029064  86.0345220
  87.8805817 133.3352674  86.3511715  86.7515941 132.3729515  86.0491556
  88.7332173 132.0560051  82.6955299  87.7827804 132.0561912  82.5819671
  89.0364659 131.3092785  82.1791333 104.4684866 137.8920589  83.7601061
 105.1063276 137.7727336  83.0564401 104.3505709 138.8401433  83.8189013
 101.2774573 137.8448017  83.6962586 100.9393084 137.7289082  82.8083120
 102.1464341 137.4439182  83.6763592  97.1361388 139.6983494  79.6859477
  96.5726253 139.6073431  78.9175764  97.0213783 138.8783398  80.1661969
 101.7594356 138.9982869  89.6548791 101.7482996 138.6035667  88.7829295
 101.9214995 138.2648942  90.2482563  94.6825820 141.1934685  82.5243697
  95.4747112 140.8525510  82.1089996  94.9222470 141.3029660  83.4445850
  96.6416574 140.4543598  75.3961076  97.4147450 139.9072586  75.2573952
  96.9941973 141.3187848  75.6075537  98.4801617 141.7819981  88.6027975
  98.1891483 142.6865612  88.4874641  99.1158601 141.8236508  89.3172045
  99.4057824 139.1596829  85.1929335 100.0021396 138.9352852  84.4786298
  99.4632795 138.4181575  85.7954783  98.9782852 136.6136265  73.0279526
  99.2308373 136.0917786  72.2662989  98.0407411 136.4502410  73.1306209
 104.0226135 135.6172043  80.8354269 104.8089224 135.1991466  80.4844686
 104.2864839 136.5218135  81.0035917 109.4234562 135.5547276  81.7387247
 110.1559734 134.9846493  81.9725077 108.6673918 135.1668877  82.1793753
  98.6979141 138.5164371  75.2303901  98.5815399 137.8409274  75.8984985
  98.8081401 138.0296744  74.4136054 101.0410682 137.9774518  78.9350590
 100.6768889 137.4505139  79.6463511 101.8977798 137.5872987  78.7617075
 106.9459982 129.2668850  86.1981856 106.6143307 130.1364261  85.9743071
 106.3505596 128.9505134  86.8775886 100.6816169 133.0064417  73.9311938
 100.8490571 133.8744654  74.2982409 100.4913338 133.1691699  73.0073228
  96.8903983 137.9195193  81.6314473  95.9654480 137.7871407  81.8392165
  97.1388396 138.6989412  82.1284416 106.8388646 133.9863936  83.2775206
 105.9305523 133.9179345  82.9833967 106.7876241 134.4635881  84.1057032
 100.6605389 135.4622075  74.9158605 100.5405015 135.9079126  75.7544086
  99.9657978 135.8107392  74.3572143  94.2512794 137.5628467  82.4658262
  94.3805175 137.8162946  83.3797674  93.5710246 138.1556175  82.1462917
 100.9129511 135.4053582  91.2210103 100.1362845 135.9647502  91.2112968
 101.5520074 135.8910365  91.7424974 108.7050292 132.1880375  85.0553080
 108.0624672 132.4812908  84.4092875 108.2005221 132.0733295  85.8606277
 106.3590456 135.9343548  75.7438939 107.2708312 136.1670935  75.5686637
 105.8500103 136.5180592  75.1814018  99.1675884 138.2139035  90.7828070
  99.9090568 138.7524079  90.5062894  98.4612869 138.8405324  90.9399622
 104.6431223 140.3568176  89.3800232 105.0514579 139.9150586  88.6354864
 103.9208485 139.7820803  89.6334425 100.9962293 135.2940783  86.7533789
 101.8423489 135.7180196  86.8968438 100.9360931 134.6374407  87.4472352
 104.1461739 132.9545151  88.4114962 103.9022671 133.7087211  87.8749238
 104.4221669 133.3330499  89.2462210 103.7026430 132.1101584  83.9928800
 102.8410909 132.4082838  84.2845538 103.7288865 132.3271983  83.0609833
 100.5188000 140.6543775  80.4002606 100.9826345 140.9331478  79.6107228
 100.2544798 139.7527219  80.2175697  97.4112081 140.2015256  83.3382369
  97.9813438 140.6302524  82.6999854  98.0020193 139.9197841  84.0366555
  99.4556886 136.7766927  77.2092171 100.1580929 137.2287971  77.6766097
  99.1237514 136.1350746  77.8372064  97.9037247 135.3678684  91.5843380
  97.2735908 136.0494964  91.8178777  97.7973335 135.2561765  90.6396519
  93.1982220 135.0350480  82.5109305  92.4081274 135.2908008  82.0349415
  93.6893467 135.8498817  82.6161345  95.1496965 135.3995059  79.4692781
  94.3528128 135.5113753  79.9876277  94.9222557 135.7381711  78.6033672
 100.9802633 141.9239762  87.4175296 101.0447065 142.3860169  88.2533468
 100.2713557 141.2937127  87.5457606  91.4819923 135.2880970  84.9424295
  91.7327961 136.1727980  85.2081871  92.0179471 135.1085572  84.1699387
  97.1817990 129.6699449  93.9468631  96.7884936 129.1165648  94.6216276
  97.9984130 129.9810028  94.3375149  94.1480048 141.1083308  77.8582201
  94.6604568 141.9026558  78.0087766  94.8002761 140.4109598  77.7915803
  95.9574933 144.2249064  79.9404954  96.1341561 145.1467029  79.7525938
  96.7531766 143.9107483  80.3699334 100.0985951 131.0857328  91.5388888
 100.8395664 131.6864482  91.4593350 100.3303874 130.3434966  90.9806931
  95.2427289 136.2713696  89.8167118  95.1280804 135.3698953  90.1174217
  94.3871807 136.5177392  89.4651934  97.0806248 145.7427238  85.9415297
  97.6313673 145.6144301  85.1692291  96.2417724 146.0422127  85.5910190
 100.8773419 142.0078365  90.2859528 101.4101756 141.2466654  90.0558836
 100.3487500 141.7152017  91.0283682 104.0443114 127.1138431  85.8153170
 103.7007383 128.0040073  85.7392280 104.4122077 126.9240089  84.9522755
  92.1128965 139.4371962  78.6341772  92.9504187 139.8468970  78.4175480
  92.2907232 138.4971404  78.6041966 104.0093397 137.1047043  74.3225605
 103.4940020 137.8751647  74.5613992 103.7370705 136.4312179  74.9458666
 101.5940508 131.9496743  79.3810843 100.7382104 131.5603594  79.2016482
 102.0067460 132.0288704  78.5210629 103.1239654 129.4843087  83.7802403
 102.6204450 129.4473222  82.9670208 103.4170261 130.3935829  83.8399060
  99.3682540 129.5681816  82.7868585 100.2335537 129.3724625  82.4274474
  99.4360049 129.3392168  83.7137941 103.7979700 134.9774135  76.1485386
 103.4929836 135.2920284  76.9995529 104.7510142 135.0555555  76.1912719
 102.2426132 141.1364358  77.7978340 101.7147493 140.4017118  77.4851577
 101.7413635 141.9139034  77.5518308  96.9744859 131.7984024  80.1584951
  97.5488611 131.5759206  79.4258144  97.5615842 131.8672719  80.9113553
 106.0324437 137.6857751  80.9649328 106.5456318 138.3187743  81.4671038
 106.6825661 137.0858947  80.5992688  97.3014447 133.8288485  74.1780837
  96.4651759 134.1663172  74.4990111  97.1619216 133.6937465  73.2407974
  99.2767527 128.6725273  78.8860021  98.6231939 128.3574290  78.2616636
  99.2348001 128.0501014  79.6119844 100.3878732 138.9544568  70.8013313
  99.4805794 138.7233822  71.0004462 100.8849764 138.1582187  70.9887295
 102.5105267 135.1607207  83.2107669 101.5927829 135.3822154  83.0529357
 102.9265411 135.2353517  82.3519376 103.2940315 136.5598622  78.3410349
 104.0412134 137.0720020  78.0317471 103.5631905 136.2382675  79.2014742
 101.5666965 139.0557163  75.3237303 100.6578185 138.7716196  75.4209773
 101.5962049 139.4756242  74.4640610 105.7419152 133.5955739  80.3229138
 105.0041909 133.0833125  80.6539381 105.9945926 133.1556120  79.5112415
 105.8430780 126.3731991  80.9170907 106.1489657 125.5129354  80.6296822
 106.5683385 126.9649611  80.7169901  92.1355136 136.7762677  79.3052505
  91.9379536 136.1832038  78.5803572  91.5801800 136.4714887  80.0228444
 100.1151859 136.6685784  81.4247098 100.1700469 135.7159620  81.3489575
  99.3043061 136.8245223  81.9088397 101.2643053 140.5965907  72.6625382
 100.8262483 139.8801766  72.2031019 102.0053494 140.8242022  72.1010473
  98.0544219 135.2862843  79.1837477  97.2412085 135.5857014  79.5902669
  98.5503214 134.8918532  79.9011960 103.6518431 135.7504668  88.0152371
 104.0067819 135.9776141  88.8746837 104.2990562 136.0823045  87.3929626
  97.5458294 132.8581199  84.7998712  98.1857673 132.7169958  84.1021676
  96.7135825 132.5715712  84.4237314  98.3218598 142.1583629  80.9133705
  99.1159197 141.6633949  80.7116280  97.6110290 141.6301492  80.5501410
  94.6301362 136.3026711  76.9893457  93.6998950 136.2411167  77.2063420
  94.7258834 135.7802664  76.1930099  94.5486911 132.8281524  79.5771699
  94.8093728 133.7426857  79.4680860  95.3704083 132.3605966  79.7268312
  96.0211836 134.2419281  86.7470524  96.6934889 134.0336643  86.0983172
  95.1941622 134.0441367  86.3075756 101.9237408 130.8681222  88.7636184
 101.2765323 131.5671172  88.6700661 102.6938423 131.3017366  89.1312433
 102.1001542 138.7061987  86.8233004 103.0293602 138.8573147  86.6501971
 101.6792572 138.7946008  85.9681651 100.8989874 142.7312651  84.5931542
 100.7600960 142.3631436  85.4657480 100.1104470 143.2460291  84.4215500
 102.4495089 142.1094254  81.9820380 102.1144922 142.0695024  82.8778029
 101.9499035 141.4438970  81.5090790  96.4239333 137.5161884  87.5072961
  96.2859131 136.7842123  88.1084500  97.3344257 137.4270784  87.2257148
 105.3854281 139.4550288  72.2557439 104.7683451 138.7297117  72.1590492
 104.9170769 140.2159649  71.9124514  99.0521634 137.2281843  86.9956640
  99.7621252 136.5875036  86.9543259  99.0090942 137.4794738  87.9182821
  97.7650568 134.2147061  88.8152280  97.2287925 133.7637800  89.4673876
  97.1767276 134.3492970  88.0722744  97.1752827 133.6735713  71.3778744
  96.2982293 133.5524513  71.0140990  97.6510580 132.8821791  71.1257632
  88.6954967 138.4612872  81.4720251  89.3826007 138.1474602  80.8841266
  88.5403096 139.3654237  81.1987502  93.4989689 133.3503069  85.9005274
  93.4147878 132.7428739  85.1655684  92.6772395 133.8412087  85.9014771
 103.6713403 131.8356633  81.2675469 104.1682102 131.0826595  80.9476540
 102.9000384 131.8720949  80.7018679 104.7543184 140.5928320  78.8413893
 103.8199462 140.7129782  78.6718597 104.9319852 139.6900786  78.5773903
 100.2548372 133.9774015  80.9947154  99.8846159 133.4245056  81.6828060
 100.7507464 133.3732149  80.4422154 108.1415735 136.4345639  79.3763927
 108.6076187 137.2673631  79.3024230 108.5923235 135.9690621  80.0809185
 106.1132398 128.8026226  83.4154828 105.1995477 129.0330453  83.5837035
 106.5425499 128.8864670  84.2668861 105.8838856 136.9916118  85.9154722
 105.2310306 137.2392025  85.2607175 106.2619236 136.1780256  85.5817200
 101.9326429 137.7335929  92.4020759 101.2567066 137.6330058  93.0723135
 102.7554063 137.5775143  92.8656757  93.6805288 143.9707866  85.0233275
  94.2658725 143.2251553  85.1561179  93.4830127 144.2811822  85.9069939
  88.2722943 136.5413466  83.7437718  88.3107043 136.0077056  84.5374836
  87.7663236 136.0148671  83.1248695  95.6513705 131.3878006  87.2400260
  95.7155032 132.2492837  86.8277658  95.5880826 130.7752008  86.5072619
  95.1265978 133.4601139  90.8873294  95.7538017 133.0778216  91.5010819
  94.2693897 133.2415341  91.2528987  91.9031521 135.2677568  76.8191649
  92.1984962 134.3588246  76.7658703  91.0019556 135.2465307  76.4972652
  95.4325768 133.3433564  82.8019198  94.7112353 133.9569532  82.6626671
  96.2219023 133.8791329  82.7235844  98.2352081 130.6787991  89.0759850
  98.7586483 130.9250288  89.8386159  98.0164414 131.5108026  88.6562987
  93.6319362 132.9491666  76.9430974  93.3032068 132.0689045  76.7606080
  93.9858733 132.8939334  77.8307364  96.7461185 133.2364635  77.3106452
  97.0857258 133.7650557  76.5885060  97.1933306 133.5745042  78.0865019
  99.4404626 131.6201686  86.7609520  99.1001447 130.8209499  87.1630200
  98.7343632 131.9203397  86.1886353 100.0921098 128.7050999  85.2136843
 100.9147167 128.2311477  85.0915733 100.3359162 129.4841482  85.7135529
  98.7329332 131.7339257  75.5099745  99.4537695 132.1120510  75.0063462
  98.1094637 132.4528134  75.6134723 102.8760455 132.4384406  76.4458077
 103.0924070 133.3209044  76.1446905 102.3954523 132.0470619  75.7163719
  97.6159677 135.3970119  83.0228822  97.4704257 135.7110422  83.9153103
  97.1384880 136.0155019  82.4699720  99.4756060 132.3872667  83.0709711
  99.4617628 131.4913760  82.7342009 100.1928488 132.3943331  83.7047997
 101.3282190 132.8210007  85.1162839 101.0699968 133.7427078  85.1147169
 100.7967231 132.4240442  85.8063303  92.0905339 137.9375464  85.9616483
  91.5458807 138.7135272  86.0936757  92.9684689 138.2846268  85.8035604
  98.8792956 131.2687047  78.3397281  99.0008867 130.3403694  78.5388169
  98.5894998 131.2825733  77.4275597 101.7484146 128.9541958  81.4764001
 101.7705843 129.0181291  80.5215981 102.1652205 128.1146467  81.6704507
  92.8771361 137.0645360  88.8546640  92.1353097 137.2127995  89.4411270
  92.5564105 137.3253625  87.9913389  93.3227974 144.9510789  80.8857034
  94.1485994 144.6514560  80.5055678  92.9722026 144.1818411  81.3346823
  98.2909508 144.3037257  82.9554708  97.6689517 143.6407962  82.6556936
  98.9614375 144.3298389  82.2728356  91.5236579 142.8697115  81.8445968
  90.6868488 142.4419289  81.6629969  91.4960225 143.0629558  82.7816759
  98.3634035 132.7819045  92.5487214  98.4122191 133.6581168  92.1664984
  98.9056549 132.2396438  91.9758857  97.8523015 142.8541180  76.4313169
  98.0011135 143.5376645  75.7779841  98.6589458 142.8346270  76.9462624
 106.2590518 136.1583562  90.4580386 107.1600381 136.0190027  90.1664384
 106.3338493 136.3238017  91.3978564 100.5933324 133.5350417  89.3033573
  99.7236633 133.8283983  89.0316161 100.8292804 134.1190862  90.0240836
  95.6075647 138.8806358  77.4374237  95.3621689 137.9768688  77.6354448
  95.7771562 138.8823508  76.4953715 103.2972357 129.7530034  86.8198993
 103.8154301 130.4891061  86.4945482 102.9427490 130.0594027  87.6545752
  94.8771295 134.6134715  74.9360399  94.1840540 134.6879070  74.2800435
  94.6323047 133.8495059  75.4581916 103.5484952 126.1730317  82.3399890
 103.8286705 125.5053506  82.9660316 104.3335558 126.3659412  81.8274553
 107.4193810 134.5947951  86.0871465 108.3711233 134.6946048  86.1083689
 107.2497260 133.8026219  86.5969549 105.4408189 131.6803534  86.2730866
 104.8458121 131.9608547  85.5777354 105.1557886 132.1697435  87.0447607
 101.7365219 136.6850123  71.2440968 102.6824323 136.5556331  71.3129386
 101.3579463 135.9464785  71.7210397 110.0476376 134.6065114  85.2472048
 109.5315425 133.8223570  85.0601976 110.9316325 134.2783830  85.4118567
 107.7087103 128.3506129  81.2067860 107.5111924 128.0421218  82.0911192
 108.3186809 129.0767768  81.3365790 101.6203911 140.7367869  92.7041625
 102.5406921 140.9146468  92.8981672 101.5853494 139.7923915  92.5521325
  99.9208136 134.6100100  71.1795854  99.0139591 134.3133212  71.2558567
 100.1984117 134.3129918  70.3130140  90.8386076 135.9306463  81.6294900
  90.5188860 135.0771771  81.3369274  90.2919504 136.1455041  82.3852867
  94.6165984 138.6468904  85.3464407  94.8351993 139.5786012  85.3652440
  95.0291757 138.2876879  86.1319210 101.5370201 129.1536989  77.3340095
 100.7270930 128.8084074  77.7095341 102.2254618 128.8444533  77.9227707
 103.4660750 128.2315036  78.9564392 104.0191788 128.6510490  79.6154415
 103.7030836 127.3050784  78.9987348  99.4893849 134.2202110  94.7367156
  99.3890576 135.1696467  94.6679247  99.2715391 133.8920349  93.8643226
  98.6906920 131.4687035  71.3207833  99.5526084 131.7941933  71.5803650
  98.8757264 130.6818531  70.8080899  90.7074336 139.5509375  83.5988022
  90.0137808 139.1363327  83.0857976  91.4547327 139.5929911  83.0021441
 106.8439557 130.3415561  78.4643056 106.2638226 131.0000365  78.0821108
 106.5775489 129.5192906  78.0530473 105.2943123 129.7420619  80.6664376
 105.7942902 129.8537154  79.8578695 105.9378731 129.4381672  81.3065185
  99.3525119 137.6499249  93.5532217  98.8692201 138.4499609  93.7596106
  99.4386058 137.6607194  92.5999661  92.6211079 139.4827628  81.4754037
  92.5981767 139.5815316  80.5235920  92.9311715 140.3292779  81.7971203
  95.2798456 141.5403783  85.5900651  96.2341710 141.5087726  85.5230583
  95.0810980 141.0794407  86.4050877  95.8697839 140.1104899  88.1571449
  96.6890728 140.6048978  88.1806286  96.1434646 139.1936868  88.1289016
 105.6264435 132.5015652  77.5199404 104.7390290 132.7865302  77.3019599
 106.0418424 132.3409415  76.6726681 108.9778971 132.5262173  81.2353743
 109.7539361 133.0158625  81.5078360 108.2527105 132.9520227  81.6925613
 111.4151530 133.2389792  82.2927684 112.0096020 132.9985528  81.5820992
 111.4878113 132.5196923  82.9201220  93.6348685 147.0823403  82.6070849
  93.5003153 146.3223804  82.0408847  93.2180748 147.8064303  82.1399638
 105.6005459 138.0170188  77.7349694 105.5440660 138.4738739  76.8957327
 106.1533801 137.2560872  77.5572537 109.4110264 133.8059920  78.5599814
 109.1547199 133.4056555  79.3908021 108.7863133 134.5203714  78.4349953
 106.3340238 139.2074969  75.0302223 106.2789042 139.0419240  74.0890668
 105.7086293 139.9151002  75.1864413  91.1232753 134.4443033  88.8563646
  91.7691616 133.9341987  89.3450871  90.9149904 135.1811715  89.4307071
  99.6436363 128.7083078  74.6087542  99.6315033 129.6524918  74.7655813
 100.5359785 128.5253223  74.3147003 103.4588483 125.3025855  78.8633479
 102.6920879 124.7484341  79.0090161 103.8699188 125.3747723  79.7247630
  95.4630244 131.5910650  92.9538660  96.3261705 131.2347455  93.1641984
  94.8895655 131.2524545  93.6414064  28.5928586   7.5939288  70.4846368
  29.2306996   7.4746035  69.7809708  28.4749429   8.5420132  70.5434320
  25.4018292   7.5466716  70.4207892  25.0636804   7.4307781  69.5328427
  26.2708061   7.1457881  70.4008898  21.2605108   9.4002192  66.4104783
  20.6969973   9.3092129  65.6421071  21.1457503   8.5802097  66.8907276
  25.8838075   8.7001568  76.3794098  25.8726716   8.3054366  75.5074601
  26.0458715   7.9667640  76.9727869  18.8069540  10.8953384  69.2489004
  19.5990832  10.5544209  68.8335303  19.0466190  11.0048359  70.1691157
  26.8404667  13.0673160  61.7219248  26.1892647  13.6527241  61.3353262
  27.6349030  13.5979355  61.7814286  20.7660294  10.1562297  62.1206382
  21.5391170   9.6091284  61.9819258  21.1185693  11.0206547  62.3320844
  22.6045337  11.4838680  75.3273282  22.3135203  12.3884310  75.2119948
  23.2402321  11.5255207  76.0417351  23.5301543   8.8615528  71.9174641
  24.1265116   8.6371550  71.2031604  23.5876515   8.1200274  72.5200089
  23.1026572   6.3154963  59.7524832  23.3552092   5.7936485  58.9908295
  22.1651131   6.1521109  59.8551516  28.1469855   5.3190742  67.5599576
  28.9332944   4.9010165  67.2089993  28.4108559   6.2236834  67.7281224
  28.3179932  10.7563592  62.2588232  27.6825765  10.8298219  62.9709137
  27.9877338  11.3457191  61.5807312  33.5478282   5.2565975  68.4632554
  34.2803454   4.6865192  68.6970384  32.7917637   4.8687575  68.9039060
  22.8222861   8.2183069  61.9549207  22.7059119   7.5427973  62.6230292
  22.9325120   7.7315443  61.1381360  25.1654401   7.6793216  65.6595897
  24.8012609   7.1523837  66.3708818  26.0221517   7.2891686  65.4862382
  27.5635222  11.1700095  72.3223075  27.2635945  12.0725134  72.2138883
  27.2186281  10.9032278  73.1744228  21.0147703   7.6213892  68.3559780
  20.0898200   7.4890106  68.5637472  21.2632116   8.4008111  68.8529722
  30.9632365   3.6882635  70.0020513  30.0549243   3.6198044  69.7079274
  30.9119961   4.1654580  70.8302338  24.7849109   5.1640774  61.6403912
  24.6648735   5.6097824  62.4789392  24.0901698   5.5126091  61.0817450
  22.5456001  17.9344415  65.2894043  22.4680031  18.8852241  65.3682524
  21.9417645  17.5890288  65.9468969  25.0373231   5.1072281  77.9455410
  24.2606565   5.6666201  77.9358275  25.6763794   5.5929064  78.4670280
  32.8294012   1.8899074  71.7798387  32.1868392   2.1831607  71.1338181
  32.3248940   1.7751994  72.5851583  30.4834175   5.6362247  62.4684246
  31.3952032   5.8689634  62.2931943  29.9743823   6.2199291  61.9059325
  23.2919603   7.9157734  77.5073377  24.0334288   8.4542778  77.2308201
  22.5856589   8.5424023  77.6644929  28.7674943  10.0586875  76.1045539
  29.1758299   9.6169285  75.3600171  28.0452205   9.4839502  76.3579731
  25.1206013   4.9959481  73.4779095  25.9667208   5.4198895  73.6213744
  25.0604651   4.3393106  74.1717659  29.0903758  10.6188065  69.8597827
  28.4612620  10.7833779  69.1573895  28.7029420  11.0329675  70.6308791
  32.9692990  11.5542503  67.2142191  32.2844028  11.9341405  66.6639224
  33.0536839  12.1637830  67.9474139  28.2705459   2.6563850  75.1360269
  28.0266390   3.4105910  74.5994545  28.5465389   3.0349197  75.9707516
  30.2243921   9.2002462  73.8137535  30.4360817   9.8434222  73.1371916
  30.1773670   8.3664779  73.3459465  27.8270150   1.8120283  70.7174107
  26.9654629   2.1101536  71.0090844  27.8532585   2.0290682  69.7855139
  24.6431720  10.3562473  67.1247913  25.1070065  10.6350176  66.3352535
  24.3788518   9.4545918  66.9421003  21.5355801   9.9033955  70.0627676
  22.1057158  10.3321223  69.4245160  22.1263913   9.6216540  70.7611861
  23.5800606   6.4785626  63.9337478  24.2824649   6.9306669  64.4011404
  23.2481234   5.8369445  64.5617371  31.3389749  12.0774418  71.9859892
  32.1607193  11.6754605  71.7042574  31.3352152  11.9742652  72.9376008
  25.1046353  11.6258461  74.1420603  25.1690785  12.0878868  74.9778774
  24.3957277  10.9955826  74.2702912  39.4295742   8.4213166  68.3344864
  38.6759451   7.8520564  68.1788868  39.5643283   8.3875831  69.2815498
  24.8194370  13.2926568  64.0099583  24.6840045  14.1378104  64.4384431
  25.3604183  13.4945846  63.2465517  18.2723768  10.8102006  64.5827508
  18.7848288  11.6045257  64.7333073  18.9246481  10.1128297  64.5161109
  20.0818652  13.9267763  66.6650261  20.2585281  14.8485727  66.4771245
  20.8775486  13.6126182  67.0944641  26.4462847  13.9150135  78.1399925
  26.0026701  13.1286513  77.8220829  27.1080060  14.1029285  77.4743816
  21.2049968  15.4445936  72.6660603  21.7557393  15.3163000  71.8937597
  20.3661444  15.7440826  72.3155496  28.5444085  14.1952935  76.1681326
  28.5262560  15.0161816  75.6761595  29.4664005  14.0707010  76.3931467
  25.0017139  11.7097064  77.0104835  25.5345476  10.9485352  76.7804143
  24.4731220  11.4170716  77.7528989  28.1337117   6.8065741  61.0470911
  27.6183740   7.5770346  61.2859299  27.8614425   6.1330878  61.6703973
  33.1071391   9.5598096  62.9824085  32.3300834   9.2209256  62.5379247
  33.7862872   9.5650719  62.3079050  27.9223420   4.6792833  62.8730693
  27.6173555   4.9938983  63.7240836  28.8753862   4.7574253  62.9158026
  26.3669852  10.8383057  64.5223647  25.8391213  10.1035816  64.2096884
  25.8657354  11.6157733  64.2763615  31.3462698   9.0332077  69.6390693
  30.6886372   9.7231339  69.7270822  32.1503097   9.4228509  69.9824679
  30.1568156   7.3876450  67.6894635  30.6700038   8.0206442  68.1916344
  30.8069380   6.7877645  67.3237995  24.5122452   8.6563267  57.5258620
  23.6049514   8.4252521  57.7249769  25.0093484   7.8600886  57.7132601
  27.4190531  17.3660774  60.4455306  26.7452229  17.6692471  61.0540264
  27.8056353  18.1689855  60.0960763  26.6348987   4.8625906  69.9352975
  25.7171549   5.0840853  69.7774663  27.0509131   4.9372216  69.0764683
  27.4184035   6.2617321  65.0655655  28.1655854   6.7738718  64.7562777
  27.6875625   5.9401374  65.9260049  25.6910685   8.7575862  62.0482610
  24.7821905   8.4734895  62.1455079  25.7205769   9.1774940  61.1885917
  30.9229953  12.3682451  65.8173777  30.4692280  11.5273361  65.8738968
  30.2923919  13.0043850  66.1548557  29.8662872   3.2974437  67.0474445
  29.1285629   2.7851824  67.3784687  30.1189646   2.8574819  66.2357722
  29.3662892  14.2058948  66.7523595  29.6585866  14.7664005  66.0335961
  29.8761512  14.4987509  67.5076755  24.2395579   6.3704483  68.1492405
  24.2944189   5.4178319  68.0734882  23.4286781   6.5263922  68.6333703
  25.3886773  10.2984606  59.3870688  24.9506203   9.5820465  58.9276326
  26.1297214  10.5260720  58.8255780  24.3296517  14.9839299  67.8417049
  24.2872696  15.2100146  66.9125581  25.2459216  14.7502674  67.9902850
  27.7762151   5.4523367  74.7397678  28.1311539   5.6794840  75.5992144
  28.4234282   5.7841744  74.1174933  33.5059888   8.5741803  65.4447007
  33.3677786   8.7643399  64.5168196  33.1496107   9.3361185  65.9015058
  33.5329267  10.6418330  70.4558278  33.9665774  10.5493619  71.3041332
  34.2460848  10.6175830  69.8178294  22.4462318  11.8602328  67.6379011
  23.2402916  11.3652648  67.4361586  21.7354010  11.3320191  67.2746717
  27.2657162  14.2420424  71.9891379  27.3194185  14.8111360  72.7569095
  26.3971944  14.4122309  71.6245416  34.3944817  10.6842030  72.9891164
  34.5880707  11.5887841  73.2350439  34.2945435  10.2249449  73.8229749
  29.4559926  10.8348773  78.5632044  29.3045432  10.6059325  77.6462128
  29.4464605  11.7919374  78.5763389  26.2245262   8.4080686  73.5478311
  27.1537322   8.5591845  73.3747278  25.8036292   8.4964707  72.6926957
  25.0233594  12.4331350  71.3176848  24.8844680  12.0650135  72.1902787
  24.2348190  12.9478990  71.1460806  25.6181746  17.5340447  62.6602385
  25.7933502  17.0628490  63.4748008  24.9314534  18.1606213  62.8883646
  26.5738809  11.8112953  68.7065686  26.2388642  11.7713723  69.6023336
  26.0742755  11.1457669  68.2336096  20.5483053   7.2180583  74.2318267
  20.4102851   6.4860822  74.8329806  21.4587976   7.1289483  73.9502455
  29.5098001   9.1568987  58.9802746  28.8927171   8.4315815  58.8835799
  29.0414489   9.9178348  58.6369820  23.1765354   6.9300542  73.7201947
  23.8864972   6.2893734  73.6788565  23.1334662   7.1813437  74.6428128
  31.1652132  13.8667896  76.6408526  31.1064678  13.1827116  75.9739109
  31.5671651  14.6086886  76.1889152  20.1842831  20.6829809  69.4342245
  20.4239429  21.3148334  70.1121264  19.3412028  20.3317849  69.7207604
  31.1669540  11.8307480  74.8722506  30.2796318  11.4933401  74.9948905
  31.7368091  11.0990511  75.1091271  24.6970693  16.4908932  71.8383749
  24.6240864  17.2963903  72.3503054  24.2548086  16.6900898  71.0131771
  24.4860473  15.7280702  65.3486571  23.7027995  16.2702382  65.4424795
  25.1853218  16.2454682  65.7480812  35.6486880   7.2415697  69.6339068
  35.6376756   8.1240412  69.2633001  34.7804260   6.8887248  69.4393605
  27.1569377  16.3895766  73.9941908  27.8697349  17.0243231  73.9217809
  26.6659405  16.4859632  73.1781910  28.8786903  10.2947019  65.5659199
  27.9443182  10.4148481  65.3963904  29.0563572   9.3919485  65.3019209
  32.2659455   6.1364338  66.1009234  32.7319907   6.9692329  66.0269536
  32.7166955   5.6709319  66.8054492  22.2081290  14.1390209  74.8147479
  22.9090750  14.7726692  74.9676873  21.7376405  14.4804941  74.0543118
  30.3335686  12.4808159  63.0995386  30.6095530  12.3664754  64.0089260
  29.4640185  12.0825644  63.0607559  30.0082576   6.6934817  72.6400029
  29.3554026   6.9410724  71.9852482  30.3862956   5.8798955  72.3062506
  26.9689750  16.7294510  66.7428199  27.1512144  15.9116166  67.2055952
  27.7922736  16.9462202  66.3053089  27.3031915  15.6562695  64.0043248
  27.8319682  15.1455150  63.3913410  27.5660135  15.3405225  64.8688781
  26.0570149   7.4354628  79.1266066  25.3810786   7.3348757  79.7968441
  26.8797783   7.2793842  79.5902063  17.8049008  13.6726564  71.7478581
  18.3902445  12.9270252  71.8806485  17.6073847  13.9830521  72.6315245
  20.6587663  16.7077812  66.7641024  19.9898039  17.1923939  66.2805064
  20.5200533  16.9547032  67.6784402  24.7992932  18.7421555  73.3623682
  25.3511240  18.9053177  74.1272767  25.1399125  19.3325993  72.6903707
  29.6503806  13.5682813  79.2172336  30.1943710  14.1812771  78.7227291
  29.0690651  14.1262391  79.7339349  27.9361319  16.6903531  70.3487364
  27.8112459  15.8893271  69.8398310  28.5940410  17.1849724  69.8601334
  29.9996228  14.4912551  71.9766914  29.0526563  14.3717902  71.9045241
  30.3479001  13.6035049  72.0593176  27.0042661  14.2865267  68.1771267
  26.8567623  13.3581975  68.3578837  27.8296154  14.3085358  67.6928342
  30.6076783  15.1093826  69.2636139  31.5323330  14.9036687  69.1260590
  30.4392086  14.8610227  70.1725481  30.3972099  15.6279493  64.6198231
  30.5708976  15.0625916  63.8672083  30.8900990  16.4280388  64.4377721
  36.2511490   8.3915916  66.2388530  36.6942636   7.6423241  65.8407654
  35.3738000   8.3826053  65.8562262  31.3847271  14.9446258  61.7195129
  32.0798176  15.5652950  61.9382444  31.7270422  14.0941609  61.9947507
  33.2838695  12.3945963  63.2482460  33.8090019  12.7333236  62.5231780
  33.1961047  11.4592979  63.0645594  24.9458743  16.3080037  75.3772336
  25.2545870  16.0629184  76.2495036  25.7434225  16.5126675  74.8891207
  24.9679355  18.4617947  67.6077713  24.5284346  17.9694325  68.3010570
  25.7187472  17.9190914  67.3669788  17.4471694  14.6529487  67.6102341
  18.2729714  14.3533259  67.2300985  17.0965746  13.8837110  68.0592130
  22.4153227  14.0055956  69.6800015  21.7933237  13.3426661  69.3802242
  23.0858094  14.0317088  68.9973662  15.6480299  12.5715814  68.5691275
  14.8112208  12.1437988  68.3875276  15.6203945  12.7648257  69.5062066
  32.9732601  13.0278867  78.5533658  32.1828144  13.0103006  78.0138157
  32.7365955  13.5667161  79.3082694  33.0930476   9.8771333  75.8666386
  33.1428481   9.7121341  76.8081909  32.9844399   9.0098592  75.4764267
  21.9766734  12.5559879  63.1558475  22.1254855  13.2395343  62.5025148
  22.7833178  12.5364969  63.6707931  30.3834238   5.8602261  77.1825693
  31.2844101   5.7208726  76.8909691  30.4582213   6.0256716  78.1223870
  34.5948672  12.2968275  76.1108408  34.3033481  12.6598255  76.9471869
  33.9820804  11.5835283  75.9321740  35.7944355   9.8621155  68.6310978
  36.6291246  10.3010959  68.7948538  35.9303484   9.3859808  67.8119224
  32.8435861   7.4200889  74.5788466  33.3189982   7.6128536  73.7707317
  31.9201426   7.4760075  74.3331849  19.7319367   8.5825057  64.1619544
  19.4865409   7.6787387  64.3599754  19.9015282   8.5842207  63.2199022
  25.4762140  15.0508009  60.6270223  24.9036107  15.6698197  60.1740694
  26.0494934  15.6007371  61.1610145  31.5437530   4.2966650  72.8116771
  32.4954953   4.3964747  72.8328995  31.3740980   3.5044918  73.3214856
  29.5651909   1.3822233  72.9976172  28.9701841   1.6627245  72.3022661
  29.2801606   1.8716134  73.7692913  28.6959400  15.3345160  61.7578805
  29.6290073  15.2690721  61.9611680  28.6082612  16.1701426  61.2993338
  31.3247416  14.6511030  58.7182752  31.2461048  14.3170894  59.6118510
  32.1457083  15.1432798  58.7174225  34.0225608   7.5172769  71.9259071
  33.9901928   6.5788770  72.1118755  34.6326231   7.5956806  71.1924896
  25.8608938   6.3868822  57.9686275  26.8068043   6.2575030  58.0374693
  25.4823183   5.6483484  58.4455703  34.1720096   4.3083813  71.9717354
  33.6559145   3.5242269  71.7847283  35.0560045   3.9802529  72.1363874
  39.8402157   8.5788776  71.0665108  40.5705546   8.3174064  71.6272811
  39.2309103   7.8417498  71.1067176  37.9217454   6.7196639  71.6639559
  37.1950618   6.5852604  71.0556051  37.5064741   7.0273467  72.4696277
  25.7447631  10.4386568  79.4286932  26.6650640  10.6165167  79.6226979
  25.7097214   9.4942614  79.2766631  18.7409703   8.3487603  72.0709713
  18.9595713   9.2804711  72.0897747  19.1535477   7.9895577  72.8564517
  30.9683277   0.0434260  65.1888363  30.3881946   0.7019064  64.8066415
  30.7019209  -0.7788395  64.7775780  23.4768839   7.3517948  80.2777524
  22.9935921   8.1518308  80.4841413  23.5629778   7.3625892  79.3244968
  16.7454798   9.1846327  68.1999343  16.7225487   9.2834015  67.2481226
  17.0555435  10.0311478  68.5216509  19.4042176  11.2422482  72.3145958
  20.3585430  11.2106425  72.2475889  19.2054700  10.7813106  73.1296183
  19.9941558   9.8123598  74.8816755  20.8134447  10.3067677  74.9051593
  20.2678366   8.8955566  74.8534323  29.7508155   2.2034351  64.2444711
  28.8634010   2.4884001  64.0264906  30.1662144   2.0428114  63.3971988
  33.1022691   2.2280872  67.9599050  33.8783081   2.7177324  68.2323667
  32.3770825   2.6538926  68.4170920  35.5395249   2.9408491  69.0172991
  36.1339740   2.7004227  68.3066299  35.6121833   2.2215621  69.6446527
  17.7592405  16.7842102  69.3316155  17.6246873  16.0242503  68.7654153
  17.3424467  17.5083002  68.8644944  28.8951368  11.9679025  58.3392731
  29.5987218  12.1729028  58.9550386  28.1714017  12.5355787  58.6041814
  29.7249178   7.7188887  64.4595001  29.6684380   8.1757438  63.6202633
  30.2777521   6.9579571  64.2817844  33.5353984   3.5078618  65.2845120
  33.2790919   3.1075254  66.1153328  32.9106852   4.2222412  65.1595260
  37.8466322   6.2474692  67.7916412  37.2865880   6.3167881  68.5647974
  37.2409826   6.0715676  67.0715908  20.9161531  17.6811419  69.5434598
  20.7993915  18.6256851  69.4413288  20.0953977  17.3784980  69.9320397
  30.8038066  12.4061555  60.3891191  31.6383669  11.9742753  60.2068666
  30.6422408  12.2343568  61.3168085  30.4583958   8.9093668  61.7547530
  30.4032761   8.7437939  60.8135974  29.8330013   9.6169701  61.9109720
  27.7729865  11.2142580  81.0801093  28.6421025  11.3883232  80.7187728
  27.2936616  12.0336996  80.9576822  21.9416045  18.3339681  72.7590527
  22.8443292  18.3663291  73.0757021  21.7153415  17.4040132  72.7736862
  23.6969647  17.0870667  69.4200605  22.7465278  17.0872529  69.3064977
  24.0002133  16.3403402  68.9036640  32.0998863  24.7294110  66.4104783
  31.5363728  24.6384047  65.6421071  31.9851258  23.9094015  66.8907276
  29.6463295  26.2245302  69.2489004  30.4384586  25.8836126  68.8335303
  29.8859945  26.3340277  70.1691157  37.6798421  28.3965078  61.7219248
  37.0286401  28.9819158  61.3353262  38.4742784  28.9271273  61.7814286
  31.6054048  25.4854215  62.1206382  32.3784924  24.9383202  61.9819258
  31.9579447  26.3498464  62.3320844  33.9420326  21.6446881  59.7524832
  34.1945847  21.1228402  58.9908295  33.0044885  21.4813027  59.8551516
  38.9863609  20.6482659  67.5599576  39.7726698  20.2302083  67.2089993
  39.2502313  21.5528752  67.7281224  39.1573686  26.0855510  62.2588232
  38.5219519  26.1590136  62.9709137  38.8271093  26.6749109  61.5807312
  33.6616615  23.5474987  61.9549207  33.5452873  22.8719890  62.6230292
  33.7718875  23.0607361  61.1381360  36.0048156  23.0085134  65.6595897
  35.6406363  22.4815755  66.3708818  36.8615272  22.6183603  65.4862382
  35.6453643  18.0375034  60.6557245  35.8128045  18.9055270  61.0227716
  35.4550812  18.2002316  59.7318534  31.8541458  22.9505810  68.3559780
  30.9291954  22.8182024  68.5637472  32.1025871  23.7300029  68.8529722
  35.6242864  20.4932691  61.6403912  35.5042489  20.9389742  62.4789392
  34.9295452  20.8418009  61.0817450  29.2150269  22.5939083  69.1903569
  29.3442650  22.8473562  70.1042981  28.5347720  23.1866791  68.8708224
  33.3849756  33.2636333  65.2894043  33.3073786  34.2144158  65.3682524
  32.7811399  32.9182206  65.9468969  41.3227930  20.9654165  62.4684246
  42.2345786  21.1981551  62.2931943  40.8137577  21.5491209  61.9059325
  34.1313358  23.2449652  77.5073377  34.8728042  23.7834696  77.2308201
  33.4250343  23.8715941  77.6644929  35.4825474  25.6854391  67.1247913
  35.9463820  25.9642094  66.3352535  35.2182272  24.7837836  66.9421003
  32.3749555  25.2325873  70.0627676  32.9450912  25.6613141  69.4245160
  32.9657667  24.9508457  70.7611861  34.4194360  21.8077543  63.9337478
  35.1218404  22.2598587  64.4011404  34.0874989  21.1661362  64.5617371
  32.8674722  20.3989300  78.3088687  32.2373382  21.0805581  78.5424084
  32.7610810  20.2872382  77.3641825  28.1619694  20.0661096  69.2354611
  27.3718748  20.3218625  68.7594722  28.6530942  20.8809434  69.3406652
  30.1134440  20.4305675  66.1938088  29.3165603  20.5424370  66.7121584
  29.8860032  20.7692328  65.3278978  26.4457397  20.3191587  71.6669602
  26.6965436  21.2038596  71.9327178  26.9816946  20.1396188  70.8944694
  35.6588125  28.6218486  64.0099583  35.5233800  29.4670022  64.4384431
  36.1997937  28.8237764  63.2465517  32.1455464  14.7010066  80.6713938
  31.7522410  14.1476264  81.3461582  32.9621605  15.0120644  81.0620456
  29.1117522  26.1393924  64.5827508  29.6242043  26.9337174  64.7333073
  29.7640235  25.4420215  64.5161109  30.9212407  29.2559680  66.6650261
  31.0979035  30.1777645  66.4771245  31.7169240  28.9418100  67.0944641
  30.2064763  21.3024312  76.5412424  30.0918279  20.4009570  76.8419523
  29.3509281  21.5488009  76.1897241  32.0443722  30.7737854  72.6660603
  32.5951148  30.6454918  71.8937597  31.2055198  31.0732743  72.3155496
  39.0080588  12.1449048  72.5398476  38.6644858  13.0350690  72.4637587
  39.3759551  11.9550706  71.6768061  27.0766439  24.4682578  65.3587078
  27.9141661  24.8779587  65.1420786  27.2544707  23.5282021  65.3287272
  38.9730871  22.1357659  61.0470911  38.4577495  22.9062264  61.2859299
  38.7008180  21.4622795  61.6703973  36.5577982  16.9807360  66.1056150
  35.7019578  16.5914210  65.9261789  36.9704934  17.0599321  65.2455935
  34.3320015  14.5992433  69.5113891  35.1973011  14.4035242  69.1519781
  34.3997524  14.3702785  70.4383248  38.7617174  20.0084751  62.8730693
  38.4567310  20.3230900  63.7240836  39.7147616  20.0866171  62.9158026
  37.2063606  26.1674974  64.5223647  36.6784968  25.4327734  64.2096884
  36.7051109  26.9449651  64.2763615  31.9382334  16.8294641  66.8830258
  32.5126086  16.6069822  66.1503451  32.5253316  16.8983335  67.6358859
  32.2651921  18.8599102  60.9026143  31.4289233  19.1973788  61.2235418
  32.1256690  18.7248082  59.9653280  34.2405001  13.7035890  65.6105328
  33.5869414  13.3884907  64.9861942  34.1985476  13.0811630  66.3365150
  35.3516206  23.9855185  57.5258620  34.4443268  23.7544438  57.7249769
  35.8487238  23.1892804  57.7132601  38.2584285  32.6952692  60.4455306
  37.5845984  32.9984389  61.0540264  38.6450107  33.4981772  60.0960763
  38.2577790  21.5909239  65.0655655  39.0049609  22.1030636  64.7562777
  38.5269379  21.2693292  65.9260049  36.5304440  24.0867780  62.0482610
  35.6215659  23.8026812  62.1455079  36.5599524  24.5066858  61.1885917
  40.2056646  29.5350866  66.7523595  40.4979621  30.0955923  66.0335961
  40.7155267  29.8279427  67.5076755  27.0992610  21.8073294  66.0297812
  26.9017010  21.2142654  65.3048878  26.5439274  21.5025504  66.7473751
  35.0789334  21.6996400  68.1492405  35.1337944  20.7470237  68.0734882
  34.2680536  21.8555839  68.6333703  36.2280528  25.6276523  59.3870688
  35.7899957  24.9112382  58.9276326  36.9690968  25.8552638  58.8255780
  33.0181694  20.3173460  65.9082784  32.2049559  20.6167630  66.3147976
  33.5140688  19.9229149  66.6257266  35.1690272  30.3131217  67.8417049
  35.1266450  30.5392063  66.9125581  36.0852970  30.0794591  67.9902850
  32.5095768  17.8891815  71.5244019  33.1495148  17.7480575  70.8266982
  31.6773299  17.6026329  71.1482621  33.2856072  27.1894246  67.6379011
  34.0796671  26.6944566  67.4361586  32.5747765  26.6612109  67.2746717
  38.1050917  29.5712341  71.9891379  38.1587939  30.1403278  72.7569095
  37.2365698  29.7414226  71.6245416  29.5938836  21.3337328  63.7138764
  28.6636424  21.2721783  63.9308726  29.6896308  20.8113280  62.9175405
  29.5124385  17.8592140  66.3017006  29.7731202  18.7737474  66.1926166
  30.3341557  17.3916583  66.4513619  30.9849310  19.2729898  73.4715830
  31.6572364  19.0647260  72.8228479  30.1579097  19.0751984  73.0321063
  35.8627348  27.7623268  71.3176848  35.7238434  27.3942052  72.1902787
  35.0741945  28.2770907  71.1460806  36.4575500  32.8632364  62.6602385
  36.6327256  32.3920408  63.4748008  35.7708288  33.4898131  62.8883646
  37.4132564  27.1404871  68.7065686  37.0782396  27.1005641  69.6023336
  36.9136509  26.4749586  68.2336096  31.3876807  22.5472501  74.2318267
  31.2496605  21.8152739  74.8329806  32.2981731  22.4581401  73.9502455
  40.3491755  24.4860905  58.9802746  39.7320926  23.7607733  58.8835799
  39.8808244  25.2470265  58.6369820  31.0236586  36.0121727  69.4342245
  31.2633184  36.6440251  70.1121264  30.1805782  35.6609767  69.7207604
  32.1390301  18.7046329  58.1024050  31.2619767  18.5835130  57.7386297
  32.6148054  17.9132408  57.8502939  23.6592441  23.4923489  68.1965557
  24.3463481  23.1785219  67.6086573  23.5040570  24.3964854  67.9232809
  28.4627163  18.3813686  72.6250581  28.3785352  17.7739355  71.8900991
  27.6409870  18.8722704  72.6260077  35.5364447  31.8200850  71.8383749
  35.4634619  32.6255821  72.3503054  35.0941841  32.0192815  71.0131771
  35.3254227  31.0572620  65.3486571  34.5421749  31.5994300  65.4424795
  36.0246972  31.5746599  65.7480812  39.7180658  25.6238936  65.5659199
  38.7836937  25.7440399  65.3963904  39.8957326  24.7211403  65.3019209
  35.2185846  19.0084632  67.7192461  34.8483634  18.4555672  68.4073366
  35.7144938  18.4042766  67.1667461  33.0475045  29.4682127  74.8147479
  33.7484504  30.1018610  74.9676873  32.5770160  29.8096859  74.0543118
  41.1729440  27.8100077  63.0995386  41.4489284  27.6956671  64.0089260
  40.3033939  27.4117562  63.0607559  37.8083504  32.0586428  66.7428199
  37.9905899  31.2408084  67.2055952  38.6316490  32.2754120  66.3053089
  38.1425670  30.9854613  64.0043248  38.6713436  30.4747067  63.3913410
  38.4053889  30.6697143  64.8688781  28.6442763  29.0018482  71.7478581
  29.2296199  28.2562170  71.8806485  28.4467601  29.3122439  72.6315245
  31.4981418  32.0369729  66.7641024  30.8291793  32.5215857  66.2805064
  31.3594288  32.2838950  67.6784402  23.2360417  21.5724082  70.4683024
  23.2744517  21.0387673  71.2620143  22.7300710  21.0459288  69.8494002
  35.6386686  34.0713473  73.3623682  36.1904994  34.2345095  74.1272767
  35.9792880  34.6617911  72.6903707  30.6151180  16.4188623  73.9645567
  30.6792506  17.2803454  73.5522964  30.5518300  15.8062624  73.2317925
  30.0903452  18.4911755  77.6118601  30.7175491  18.1088833  78.2256125
  29.2331371  18.2725957  77.9774293  26.8668995  20.2988184  63.5436956
  27.1622436  19.3898863  63.4904010  25.9657031  20.2775924  63.2217958
  38.7755074  32.0195449  70.3487364  38.6506213  31.2185188  69.8398310
  39.4334165  32.5141642  69.8601334  30.3963242  18.3744181  69.5264504
  29.6749828  18.9880149  69.3871978  31.1856498  18.9101946  69.4481150
  33.1989555  15.7098608  75.8005156  33.7223957  15.9560904  76.5631465
  32.9801889  16.5418642  75.3808294  28.5956837  17.9802282  63.6676281
  28.2669543  17.0999661  63.4851387  28.9496207  17.9249951  64.5552670
  37.8436415  29.6157185  68.1771267  37.6961378  28.6873892  68.3578837
  38.6689909  29.6377276  67.6928342  31.7098660  18.2675252  64.0351759
  32.0494732  18.7961173  63.3130367  32.1570780  18.6055658  64.8110325
  35.0558572  13.7361615  71.9382150  35.8784642  13.2622093  71.8161040
  35.2996636  14.5152099  72.4380836  33.6966807  16.7649874  62.2345051
  34.4175169  17.1431126  61.7308768  33.0732111  17.4838750  62.3380029
  37.8397930  17.4695022  63.1703384  38.0561544  18.3519660  62.8692212
  37.3591997  17.0781236  62.4409026  32.5797151  20.4280736  69.7474128
  32.4341732  20.7421039  70.6398410  32.1022355  21.0465636  69.1945027
  34.4393534  17.4183284  69.7955018  34.4255103  16.5224377  69.4587316
  35.1565962  17.4253947  70.4293304  41.2365853  30.9571411  64.6198231
  41.4102731  30.3917833  63.8672083  41.7294745  31.7572306  64.4377721
  27.0542813  22.9686080  72.6861790  26.5096281  23.7445888  72.8182064
  27.9322163  23.3156885  72.5280911  33.8430430  16.2997664  65.0642588
  33.9646341  15.3714310  65.2633476  33.5532472  16.3136350  64.1520903
  42.2241026  30.2738175  61.7195129  42.9191931  30.8944868  61.9382444
  42.5664176  29.4233527  61.9947507  27.8408835  22.0955976  75.5791946
  27.0990571  22.2438612  76.1656577  27.5201579  22.3564242  74.7158696
  35.7852498  31.6371955  75.3772336  36.0939624  31.3921101  76.2495036
  36.5827980  31.8418593  74.8891207  35.8073110  33.7909864  67.6077713
  35.3678100  33.2986243  68.3010570  36.5581227  33.2482832  67.3669788
  28.2865449  29.9821405  67.6102341  29.1123469  29.6825177  67.2300985
  27.9359501  29.2129028  68.0592130  33.2546982  29.3347873  69.6800015
  32.6326991  28.6718578  69.3802242  33.9251849  29.3609005  68.9973662
  26.4874054  27.9007732  68.5691275  25.6505962  27.4729906  68.3875276
  26.4597699  28.0940175  69.5062066  33.3271509  17.8129661  79.2732521
  33.3759665  18.6891784  78.8910290  33.8694024  17.2707054  78.7004164
  32.8160489  27.8851797  63.1558475  32.9648609  28.5687261  62.5025148
  33.6226932  27.8656887  63.6707931  30.5713122  23.9116974  64.1619544
  30.3259164  23.0079304  64.3599754  30.7409036  23.9134125  63.2199022
  29.8408769  19.6445332  61.6605706  29.1478014  19.7189687  61.0045741
  29.5960521  18.8805676  62.1827222  36.3155894  30.3799927  60.6270223
  35.7429861  30.9990114  60.1740694  36.8888688  30.9299289  61.1610145
  39.5353154  30.6637077  61.7578805  40.4683827  30.5982639  61.9611680
  39.4476367  31.4993344  61.2993338  42.1641171  29.9802948  58.7182752
  42.0854802  29.6462811  59.6118510  42.9850838  30.4724715  58.7174225
  36.7002693  21.7160740  57.9686275  37.6461798  21.5866948  58.0374693
  36.3216938  20.9775402  58.4455703  34.8845610  19.6410716  57.9041160
  33.9777065  19.3443829  57.9803874  35.1621591  19.3440534  57.0375447
  25.8023550  20.9617080  68.3540207  25.4826335  20.1082388  68.0614581
  25.2556979  21.1765658  69.1098174  29.5803458  23.6779521  72.0709713
  29.7989468  24.6096628  72.0897747  29.9929232  23.3187495  72.8564517
  36.5007676  14.1847606  64.0585402  35.6908404  13.8394691  64.4340648
  37.1892093  13.8755150  64.6473013  34.4531323  19.2512726  81.4612462
  34.3528050  20.2007083  81.3924553  34.2352865  18.9230965  80.5888532
  33.6544395  16.4997651  58.0453139  34.5163559  16.8252550  58.3048957
  33.8394739  15.7129147  57.5326205  25.6711810  24.5819991  70.3233328
  24.9775282  24.1673944  69.8103283  26.4184801  24.6240528  69.7266747
  34.3162593  22.6809865  80.2777524  33.8329675  23.4810225  80.4841413
  34.4023532  22.6917810  79.3244968  27.5848553  24.5138245  68.1999343
  27.5619241  24.6125932  67.2481226  27.8949189  25.3603396  68.5216509
  30.2435931  26.5714400  72.3145958  31.1979184  26.5398342  72.2475889
  30.0448454  26.1105024  73.1296183  30.8335313  25.1415516  74.8816755
  31.6528202  25.6359595  74.9051593  31.1072121  24.2247484  74.8534323
  40.5901909  17.5326268  64.2444711  39.7027764  17.8175919  64.0264906
  41.0055898  17.3720032  63.3971988  28.5986160  32.1134019  69.3316155
  28.4640628  31.3534420  68.7654153  28.1818222  32.8374919  68.8644944
  39.7345123  27.2970943  58.3392731  40.4380973  27.5020945  58.9550386
  39.0107771  27.8647705  58.6041814  40.5642933  23.0480804  64.4595001
  40.5078134  23.5049356  63.6202633  41.1171275  22.2871489  64.2817844
  31.7555285  33.0103336  69.5434598  31.6387670  33.9548769  69.4413288
  30.9347732  32.7076898  69.9320397  41.6431820  27.7353472  60.3891191
  42.4777424  27.3034671  60.2068666  41.4816163  27.5635486  61.3168085
  41.2977712  24.2385585  61.7547530  41.2426516  24.0729857  60.8135974
  40.6723767  24.9461618  61.9109720  26.0870227  19.4753650  75.5808952
  26.7329091  18.9652604  76.0696177  25.8787378  20.2122332  76.1552378
  34.6073838  13.7393694  61.3332848  34.5952507  14.6835534  61.4901119
  35.4997260  13.5563840  61.0392310  32.7809800  33.6631598  72.7590527
  33.6837046  33.6955209  73.0757021  32.5547170  32.7332049  72.7736862
  34.5363402  32.4162585  69.4200605  33.5859033  32.4164447  69.3064977
  34.8395888  31.6695319  68.9036640  38.4225957  10.3336471  65.5878785
  37.6558353   9.7794958  65.7335468  38.8336662  10.4058340  66.4492937
  30.4267718  16.6221267  79.6783967  31.2899180  16.2658072  79.8887291
  29.8533129  16.2835162  80.3659371  42.9392617  40.0586028  66.4104783
  42.3757482  39.9675965  65.6421071  42.8245012  39.2385932  66.8907276
  40.4857049  41.5537219  69.2489004  41.2778341  41.2128044  68.8335303
  40.7253699  41.6632194  70.1691157  48.5192176  43.7256996  61.7219248
  47.8680156  44.3111076  61.3353262  49.3136539  44.2563190  61.7814286
  42.4447803  40.8146133  62.1206382  43.2178679  40.2675120  61.9819258
  42.7973202  41.6790382  62.3320844  44.7814081  36.9738799  59.7524832
  45.0339601  36.4520320  58.9908295  43.8438640  36.8104944  59.8551516
  44.5010370  38.8766905  61.9549207  44.3846628  38.2011808  62.6230292
  44.6112629  38.3899279  61.1381360  46.4847397  33.3666952  60.6557245
  46.6521800  34.2347188  61.0227716  46.2944566  33.5294233  59.7318534
  46.4636618  35.8224609  61.6403912  46.3436243  36.2681660  62.4789392
  45.7689207  36.1709927  61.0817450  45.2588115  37.1369461  63.9337478
  45.9612158  37.5890505  64.4011404  44.9268743  36.4953280  64.5617371
  39.0013449  35.3953014  69.2354611  38.2112503  35.6510542  68.7594722
  39.4924696  36.2101352  69.3406652  40.9528194  35.7597593  66.1938088
  40.1559357  35.8716287  66.7121584  40.7253786  36.0984245  65.3278978
  37.2851152  35.6483504  71.6669602  37.5359190  36.5330514  71.9327178
  37.8210700  35.4688106  70.8944694  46.4981879  43.9510404  64.0099583
  46.3627554  44.7961939  64.4384431  47.0391692  44.1529681  63.2465517
  39.9511277  41.4685842  64.5827508  40.4635797  42.2629092  64.7333073
  40.6033990  40.7712132  64.5161109  41.0458518  36.6316230  76.5412424
  40.9312033  35.7301487  76.8419523  40.1903036  36.8779927  76.1897241
  37.9160193  39.7974496  65.3587078  38.7535415  40.2071504  65.1420786
  38.0938461  38.8573938  65.3287272  49.8124626  37.4649577  61.0470911
  49.2971249  38.2354181  61.2859299  49.5401934  36.7914713  61.6703973
  42.7776088  32.1586558  66.8830258  43.3519840  31.9361740  66.1503451
  43.3647071  32.2275253  67.6358859  43.1045675  34.1891019  60.9026143
  42.2682988  34.5265706  61.2235418  42.9650445  34.0539999  59.9653280
  46.1909961  39.3147102  57.5258620  45.2837023  39.0836356  57.7249769
  46.6880993  38.5184722  57.7132601  49.0978040  48.0244610  60.4455306
  48.4239738  48.3276306  61.0540264  49.4843862  48.8273690  60.0960763
  51.0450401  44.8642783  66.7523595  51.3373375  45.4247841  66.0335961
  51.5549021  45.1571344  67.5076755  37.9386365  37.1365211  66.0297812
  37.7410764  36.5434572  65.3048878  37.3833029  36.8317422  66.7473751
  47.0674282  40.9568441  59.3870688  46.6293712  40.2404300  58.9276326
  47.8084723  41.1844556  58.8255780  44.1249827  42.5186164  67.6379011
  44.9190425  42.0236484  67.4361586  43.4141519  41.9904027  67.2746717
  40.4332590  36.6629245  63.7138764  39.5030178  36.6013701  63.9308726
  40.5290062  36.1405198  62.9175405  40.3518139  33.1884058  66.3017006
  40.6124957  34.1029391  66.1926166  41.1735312  32.7208501  66.4513619
  51.1885510  39.8152823  58.9802746  50.5714680  39.0899651  58.8835799
  50.7201998  40.5762183  58.6369820  42.9784056  34.0338247  58.1024050
  42.1013522  33.9127048  57.7386297  43.4541809  33.2424325  57.8502939
  34.4986196  38.8215407  68.1965557  35.1857236  38.5077137  67.6086573
  34.3434324  39.7256771  67.9232809  48.9819424  46.3146530  64.0043248
  49.5107191  45.8038985  63.3913410  49.2447644  45.9989061  64.8688781
  34.0754172  36.9016000  70.4683024  34.1138271  36.3679591  71.2620143
  33.5694465  36.3751205  69.8494002  37.7062749  35.6280102  63.5436956
  38.0016190  34.7190781  63.4904010  36.8050785  35.6067842  63.2217958
  39.4350591  33.3094200  63.6676281  39.1063297  32.4291579  63.4851387
  39.7889962  33.2541868  64.5552670  48.6830170  44.9449103  68.1771267
  48.5355132  44.0165810  68.3578837  49.5083663  44.9669193  67.6928342
  42.5492414  33.5967170  64.0351759  42.8888487  34.1253091  63.3130367
  42.9964535  33.9347576  64.8110325  44.5360561  32.0941791  62.2345051
  45.2568924  32.4723044  61.7308768  43.9125865  32.8130668  62.3380029
  52.0759608  46.2863329  64.6198231  52.2496485  45.7209751  63.8672083
  52.5688499  47.0864224  64.4377721  37.8936568  38.2977998  72.6861790
  37.3490036  39.0737806  72.8182064  38.7715918  38.6448802  72.5280911
  44.6824184  31.6289582  65.0642588  44.8040096  30.7006228  65.2633476
  44.3926227  31.6428268  64.1520903  53.0634780  45.6030093  61.7195129
  53.7585685  46.2236786  61.9382444  53.4057931  44.7525444  61.9947507
  38.6802590  37.4247894  75.5791946  37.9384326  37.5730529  76.1656577
  38.3595334  37.6856160  74.7158696  43.6554243  43.2143714  63.1558475
  43.8042364  43.8979179  62.5025148  44.4620687  43.1948804  63.6707931
  41.4106876  39.2408892  64.1619544  41.1652918  38.3371222  64.3599754
  41.5802791  39.2426042  63.2199022  40.6802524  34.9737250  61.6605706
  39.9871769  35.0481605  61.0045741  40.4354276  34.2097593  62.1827222
  47.1549649  45.7091845  60.6270223  46.5823616  46.3282032  60.1740694
  47.7282443  46.2591206  61.1610145  50.3746909  45.9928995  61.7578805
  51.3077582  45.9274557  61.9611680  50.2870121  46.8285262  61.2993338
  53.0034925  45.3094865  58.7182752  52.9248557  44.9754729  59.6118510
  53.8244592  45.8016633  58.7174225  47.5396447  37.0452658  57.9686275
  48.4855552  36.9158866  58.0374693  47.1610692  36.3067319  58.4455703
  45.7239365  34.9702634  57.9041160  44.8170820  34.6735747  57.9803874
  46.0015346  34.6732452  57.0375447  36.6417305  36.2908997  68.3540207
  36.3220089  35.4374306  68.0614581  36.0950733  36.5057575  69.1098174
  44.4938149  31.8289569  58.0453139  45.3557313  32.1544467  58.3048957
  44.6788493  31.0421065  57.5326205  36.5105565  39.9111909  70.3233328
  35.8169036  39.4965862  69.8103283  37.2578556  39.9532445  69.7266747
  38.4242307  39.8430163  68.1999343  38.4012996  39.9417850  67.2481226
  38.7342944  40.6895313  68.5216509  50.5738877  42.6262861  58.3392731
  51.2774727  42.8312863  58.9550386  49.8501526  43.1939623  58.6041814
  52.4825574  43.0645390  60.3891191  53.3171178  42.6326588  60.2068666
  52.3209917  42.8927404  61.3168085  36.9263982  34.8045568  75.5808952
  37.5722845  34.2944522  76.0696177  36.7181133  35.5414249  76.1552378
  55.0637265  63.9220168  65.2894043  54.9861295  64.8727994  65.3682524
  54.4598908  63.5766041  65.9468969  53.6169843  47.4878476  66.8830258
  54.1913595  47.2653658  66.1503451  54.2040825  47.5567171  67.6358859
  55.9192510  44.3619725  65.6105328  55.2656923  44.0468742  64.9861942
  55.8772985  43.7395465  66.3365150  57.0303715  54.6439020  57.5258620
  56.1230777  54.4128274  57.7249769  57.5274747  53.8476639  57.7132601
  57.9068037  56.2860359  59.3870688  57.4687466  55.5696218  58.9276326
  58.6478477  56.5136473  58.8255780  51.1911894  48.5175976  66.3017006
  51.4518711  49.4321309  66.1926166  52.0129066  48.0500418  66.4513619
  58.1363009  63.5216200  62.6602385  58.3114765  63.0504243  63.4748008
  57.4495797  64.1481966  62.8883646  52.7024095  66.6705562  69.4342245
  52.9420693  67.3024087  70.1121264  51.8593291  66.3193602  69.7207604
  53.8177810  49.3630165  58.1024050  52.9407276  49.2418965  57.7386297
  54.2935563  48.5716243  57.8502939  57.0041736  61.7156455  65.3486571
  56.2209258  62.2578135  65.4424795  57.7034481  62.2330435  65.7480812
  53.1768927  62.6953565  66.7641024  52.5079302  63.1799692  66.2805064
  53.0381797  62.9422785  67.6784402  53.3886169  48.9259087  64.0351759
  53.7282241  49.4545009  63.3130367  53.8358289  49.2639493  64.8110325
  55.5217939  46.9581499  65.0642588  55.6433850  46.0298146  65.2633476
  55.2319981  46.9720185  64.1520903  49.9652958  60.6405240  67.6102341
  50.7910978  60.3409012  67.2300985  49.6147010  59.8712863  68.0592130
  57.9943403  61.0383762  60.6270223  57.4217370  61.6573950  60.1740694
  58.5676197  61.5883124  61.1610145  58.1795185  44.8431441  64.0585402
  57.3695913  44.4978526  64.4340648  58.8679602  44.5338985  64.6473013
  60.1085733  43.9209488  65.6809698  60.6616772  44.3404942  66.3399721
  60.3455819  42.9945236  65.7232654  55.3331904  47.1581487  58.0453139
  56.1951068  47.4836385  58.3048957  55.5182248  46.3712983  57.5326205
  53.4342794  63.6687172  69.5434598  53.3175179  64.6132604  69.4413288
  52.6135241  63.3660733  69.9320397  56.2861347  44.3977530  61.3332848
  56.2740016  45.3419370  61.4901119  57.1784769  44.2147675  61.0392310
  60.1013466  40.9920306  65.5878785  59.3345862  40.4378793  65.7335468
  60.5124171  41.0642175  66.4492937  59.6173874  67.7949047  66.0297812
  59.4198273  67.2018407  65.3048878  59.0620538  67.4901257  66.7473751
  59.3850258  66.2863937  63.5436956  59.6803699  65.3774616  63.4904010
  58.4838294  66.2651677  63.2217958  82.9643716  86.7046463  76.1045539
  83.3727072  86.2628874  75.3600171  82.2420977  86.1299091  76.3579731
  85.5358522  88.7234006  71.9859892  86.3575965  88.3214193  71.7042574
  85.5320925  88.6202240  72.9376008  80.6431619  90.5609723  78.1399925
  80.1995473  89.7746102  77.8220829  81.3048833  90.7488874  77.4743816
  82.7412857  90.8412523  76.1681326  82.7231333  91.6621404  75.6761595
  83.6632777  90.7166598  76.3931467  85.3620905  90.5127484  76.6408526
  85.3033451  89.8286704  75.9739109  85.7640423  91.2546474  76.1889152
  85.3638312  88.4767068  74.8722506  84.4765091  88.1392990  74.9948905
  85.9336863  87.7450099  75.1091271  87.1701373  89.6738455  78.5533658
  86.3796917  89.6562594  78.0138157  86.9334728  90.2126749  79.3082694
  84.5803011  82.5061850  77.1825693  85.4812873  82.3668315  76.8909691
  84.6550985  82.6716305  78.1223870  77.0119413  77.8165322  58.0453139
  77.8738577  78.1420220  58.3048957  77.1969757  77.0296818  57.5326205
  87.0643494  97.0448888  78.3088687  86.4342155  97.7265169  78.5424084
  86.9579582  96.9331970  77.3641825  98.1433918 101.5349602  62.9824085
  97.3663360 101.1960762  62.5379247  98.8225399 101.5402225  62.3079050
  94.5460528 101.1320493  58.9802746  93.9289698 100.4067321  58.8835799
  94.0777016 101.8929854  58.6369820  84.2872225  95.1371344  77.6118601
  84.9144263  94.7548421  78.2256125  83.4300143  94.9185546  77.9774293
  87.5240282  94.4589250  79.2732521  87.5728437  95.3351373  78.8910290
  88.0662796  93.9166643  78.7004164  96.3609943 106.6262536  58.7182752
  96.2823575 106.2922400  59.6118510  97.1819610 107.1184304  58.7174225
  88.6500096  95.8972315  81.4612462  88.5496823  96.8466672  81.3924553
  88.4321638  95.5690554  80.5888532  88.5131366  99.3269454  80.2777524
  88.0298447 100.1269814  80.4841413  88.5992305  99.3377398  79.3244968
  93.9313895 103.9430531  58.3392731  94.6349745 104.1480534  58.9550386
  93.2076544 104.5107293  58.6041814  95.8400592 104.3813061  60.3891191
  96.6746196 103.9494259  60.2068666  95.6784935 104.2095074  61.3168085
  95.4946485 100.8845174  61.7547530  95.4395288 100.7189445  60.8135974
  94.8692540 101.5921207  61.9109720  84.6236491  93.2680855  79.6783967
  85.4867952  92.9117660  79.8887291  84.0501901  92.9294750  80.3659371
  98.4801618 118.7882103  75.3273282  98.1891484 119.6927734  75.2119948
  99.1158602 118.8298631  76.0417351 109.4234563 112.5609399  68.4632554
 110.1559735 111.9908616  68.6970384 108.6673919 112.1730999  68.9039060
 100.6816170 110.0126540  60.6557245 100.8490572 110.8806776  61.0227716
 100.4913339 110.1753822  59.7318534 103.4391503 118.4743519  72.3223075
 103.1392226 119.3768558  72.2138883 103.0942563 118.2075702  73.1744228
 106.8388647 110.9926059  70.0020513 105.9305524 110.9241467  69.7079274
 106.7876243 111.4698004  70.8302338 100.6605391 112.4684197  61.6403912
 100.5405016 112.9141248  62.4789392  99.9657979 112.8169515  61.0817450
  98.4212283 125.2387839  65.2894043  98.3436313 126.1895664  65.3682524
  97.8173926 124.8933712  65.9468969 108.7050293 109.1942497  71.7798387
 108.0624673 109.4875031  71.1338181 108.2005222 109.0795418  72.5851583
 104.9660039 117.9231489  69.8597827 104.3368902 118.0877203  69.1573895
 104.5785701 118.3373099  70.6308791 108.8449271 118.8585927  67.2142191
 108.1600309 119.2384828  66.6639224 108.9293120 119.4681254  67.9474139
 107.2146031 119.3817841  71.9859892 108.0363474 118.9798029  71.7042574
 107.2108434 119.2786076  72.9376008 100.9802634 118.9301885  74.1420603
 101.0447067 119.3922292  74.9778774 100.2713558 118.2999250  74.2702912
 115.3052024 115.7256590  68.3344864 114.5515732 115.1563988  68.1788868
 115.4399565 115.6919254  69.2815498  94.1480049 118.1145430  64.5827508
  94.6604570 118.9088680  64.7333073  94.8002762 117.4171721  64.5161109
  95.9574934 121.2311186  66.6650261  96.1341562 122.1529151  66.4771245
  96.7531767 120.9169606  67.0944641 102.3219128 121.2193559  78.1399925
 101.8782982 120.4329937  77.8220829 102.9836342 121.4072709  77.4743816
  97.0806249 122.7489360  72.6660603  97.6313674 122.6206424  71.8937597
  96.2417725 123.0484249  72.3155496 104.4200366 121.4996359  76.1681326
 104.4018842 122.3205240  75.6761595 105.3420286 121.3750434  76.3931467
 100.8773420 119.0140488  77.0104835 101.4101757 118.2528776  76.7804143
 100.3487501 118.7214140  77.7528989 104.0093398 114.1109165  61.0470911
 103.4940021 114.8813770  61.2859299 103.7370706 113.4374301  61.6703973
 108.9827672 116.8641520  62.9824085 108.2057115 116.5252679  62.5379247
 109.6619153 116.8694143  62.3079050 107.2218979 116.3375501  69.6390693
 106.5642654 117.0274762  69.7270822 108.0259378 116.7271933  69.9824679
  97.3014448 110.8350608  60.9026143  96.4651760 111.1725294  61.2235418
  97.1619217 110.6999588  59.9653280 100.3878733 115.9606691  57.5258620
  99.4805795 115.7295944  57.7249769 100.8849765 115.1644310  57.7132601
 103.2946812 124.6704198  60.4455306 102.6208511 124.9735895  61.0540264
 103.6812634 125.4733278  60.0960763 106.7986234 119.6725875  65.8173777
 106.3448561 118.8316785  65.8738968 106.1680201 120.3087274  66.1548557
 105.2419173 121.5102372  66.7523595 105.5342148 122.0707429  66.0335961
 105.7517794 121.8030933  67.5076755 109.3816169 115.8785226  65.4447007
 109.2434068 116.0686822  64.5168196 109.0252388 116.6404609  65.9015058
 109.4085549 117.9461753  70.4558278 109.8422056 117.8537042  71.3041332
 110.1217130 117.9219254  69.8178294 103.1413444 121.5463847  71.9891379
 103.1950466 122.1154784  72.7569095 102.2728225 121.7165733  71.6245416
 110.2701098 117.9885454  72.9891164 110.4636989 118.8931265  73.2350439
 110.1701717 117.5292873  73.8229749 100.8989875 119.7374774  71.3176848
 100.7600961 119.3693558  72.1902787 100.1104472 120.2522413  71.1460806
 101.4938027 124.8383870  62.6602385 101.6689783 124.3671914  63.4748008
 100.8070815 125.4649637  62.8883646 105.3854282 116.4612411  58.9802746
 104.7683453 115.7359239  58.8835799 104.9170771 117.2221771  58.6369820
 107.0408414 121.1711319  76.6408526 106.9820960 120.4870539  75.9739109
 107.4427932 121.9130309  76.1889152  96.0599113 127.9873233  69.4342245
  96.2995711 128.6191757  70.1121264  95.2168309 127.6361273  69.7207604
  97.1752828 110.6797835  58.1024050  96.2982294 110.5586636  57.7386297
  97.6510581 109.8883914  57.8502939 107.0425821 119.1350903  74.8722506
 106.1552600 118.7976825  74.9948905 107.6124372 118.4033934  75.1091271
 100.5726974 123.7952356  71.8383749 100.4997146 124.6007327  72.3503054
 100.1304368 123.9944321  71.0131771 111.5243162 114.5459121  69.6339068
 111.5133038 115.4283836  69.2633001 110.6560541 114.1930671  69.4393605
 103.0325658 123.6939190  73.9941908 103.7453630 124.3286654  73.9217809
 102.5415687 123.7903056  73.1781910  98.0837571 121.4433633  74.8147479
  98.7847031 122.0770116  74.9676873  97.6132686 121.7848365  74.0543118
 106.2091967 119.7851583  63.0995386 106.4851811 119.6708177  64.0089260
 105.3396466 119.3869068  63.0607559 102.8446031 124.0337934  66.7428199
 103.0268426 123.2159590  67.2055952 103.6679017 124.2505626  66.3053089
 103.1788197 122.9606119  64.0043248 103.7075963 122.4498573  63.3913410
 103.4416416 122.6448649  64.8688781  96.5343945 124.0121236  66.7641024
  95.8654320 124.4967363  66.2805064  96.3956814 124.2590456  67.6784402
 100.6749213 126.0464979  73.3623682 101.2267521 126.2096601  74.1272767
 101.0155407 126.6369417  72.6903707 105.5260088 120.8726237  79.2172336
 106.0699992 121.4856195  78.7227291 104.9446933 121.4305815  79.7339349
 103.8117601 123.9946955  70.3487364 103.6868740 123.1936694  69.8398310
 104.4696692 124.4893148  69.8601334 105.8752509 121.7955975  71.9766914
 104.9282845 121.6761326  71.9045241 106.2235282 120.9078473  72.0593176
 106.4833064 122.4137250  69.2636139 107.4079612 122.2080111  69.1260590
 106.3148368 122.1653651  70.1725481 106.2728380 122.9322917  64.6198231
 106.4465258 122.3669340  63.8672083 106.7657272 123.7323812  64.4377721
 112.1267772 115.6959340  66.2388530 112.5698918 114.9466665  65.8407654
 111.2494282 115.6869476  65.8562262 107.2603553 122.2489681  61.7195129
 107.9554457 122.8696374  61.9382444 107.6026703 121.3985033  61.9947507
 109.1594976 119.6989387  63.2482460 109.6846300 120.0376660  62.5231780
 109.0717329 118.7636402  63.0645594 100.8215025 123.6123461  75.3772336
 101.1302151 123.3672607  76.2495036 101.6190507 123.8170099  74.8891207
 100.8435637 125.7661370  67.6077713 100.4040627 125.2737749  68.3010570
 101.5943754 125.2234338  67.3669788  93.3227976 121.9572911  67.6102341
  94.1485996 121.6576683  67.2300985  92.9722028 121.1880534  68.0592130
  98.2909509 121.3099379  69.6800015  97.6689518 120.6470084  69.3802242
  98.9614376 121.3360511  68.9973662 108.8488882 120.3322291  78.5533658
 108.0584426 120.3146429  78.0138157 108.6122237 120.8710584  79.3082694
 110.4704954 119.6011699  76.1108408 110.1789762 119.9641679  76.9471869
 109.8577085 118.8878707  75.9321740 111.6700636 117.1664578  68.6310978
 112.5047528 117.6054382  68.7948538 111.8059765 116.6903232  67.8119224
 108.7192142 114.7244313  74.5788466 109.1946264 114.9171959  73.7707317
 107.7957708 114.7803499  74.3331849 104.5715681 122.6388583  61.7578805
 105.5046354 122.5734145  61.9611680 104.4838894 123.4744850  61.2993338
 107.2003698 121.9554454  58.7182752 107.1217329 121.6214317  59.6118510
 108.0213365 122.4476222  58.7174225 109.8981889 114.8216193  71.9259071
 109.8658209 113.8832194  72.1118755 110.5082513 114.9000230  71.1924896
 101.7365220 113.6912246  57.9686275 102.6824325 113.5618454  58.0374693
 101.3579465 112.9526908  58.4455703 110.0476377 111.6127236  71.9717354
 109.5315426 110.8285693  71.7847283 110.9316326 111.2845953  72.1363874
 115.7158439 115.8832200  71.0665108 116.4461827 115.6217488  71.6272811
 115.1065384 115.1460922  71.1067176 113.7973736 114.0240062  71.6639559
 113.0706899 113.8896027  71.0556051 113.3821023 114.3316891  72.4696277
  99.9208137 111.6162222  57.9041160  99.0139592 111.3195335  57.9803874
 100.1984118 111.3192040  57.0375447  98.6906922 108.4749158  58.0453139
  99.5526086 108.8004056  58.3048957  98.8757266 107.6880653  57.5326205
  95.2798458 118.5465906  72.3145958  96.2341711 118.5149848  72.2475889
  95.0810981 118.0856530  73.1296183 108.9778972 109.5324295  67.9599050
 109.7539362 110.0220748  68.2323667 108.2527106 109.9582350  68.4170920
 111.4151531 110.2451915  69.0172991 112.0096022 110.0047651  68.3066299
 111.4878115 109.5259045  69.6446527  93.6348687 124.0885526  69.3316155
  93.5003154 123.3285926  68.7654153  93.2180749 124.8126425  68.8644944
 104.7707650 119.2722449  58.3392731 105.4743500 119.4772452  58.9550386
 104.0470298 119.8399211  58.6041814 109.4110266 110.8122042  65.2845120
 109.1547200 110.4118678  66.1153328 108.7863134 111.5265836  65.1595260
 113.7222604 113.5518115  67.7916412 113.1622162 113.6211305  68.5647974
 113.1166107 113.3759100  67.0715908  96.7917812 124.9854843  69.5434598
  96.6750197 125.9300275  69.4413288  95.9710259 124.6828404  69.9320397
 106.6794347 119.7104978  60.3891191 107.5139951 119.2786177  60.2068666
 106.5178690 119.5386992  61.3168085  97.8172327 125.6383104  72.7590527
  98.7199573 125.6706715  73.0757021  97.5909697 124.7083555  72.7736862
  99.5725929 124.3914091  69.4200605  98.6221560 124.3915953  69.3064977
  99.8758415 123.6446826  68.9036640 115.3078622 130.2274629  70.4846368
 115.9457032 130.1081377  69.7809708 115.1899465 131.1755473  70.5434320
 112.1168328 130.1802057  70.4207892 111.7786840 130.0643122  69.5328427
 112.9858097 129.7793223  70.4008898 107.9755144 132.0337534  66.4104783
 107.4120009 131.9427471  65.6421071 107.8607539 131.2137438  66.8907276
 112.5988111 131.3336909  76.3794098 112.5876752 130.9389707  75.5074601
 112.7608751 130.6002982  76.9727869 105.5219576 133.5288725  69.2489004
 106.3140868 133.1879550  68.8335303 105.7616226 133.6383701  70.1691157
 107.4810330 132.7897639  62.1206382 108.2541206 132.2426626  61.9819258
 107.8335729 133.6541888  62.3320844 109.3195372 134.1174021  75.3273282
 109.0285238 135.0219652  75.2119948 109.9552357 134.1590549  76.0417351
 110.2451579 131.4950870  71.9174641 110.8415152 131.2706892  71.2031604
 110.3026551 130.7535615  72.5200089 109.8176608 128.9490305  59.7524832
 110.0702128 128.4271826  58.9908295 108.8801167 128.7856450  59.8551516
 114.8619891 127.9526083  67.5599576 115.6482980 127.5345506  67.2089993
 115.1258595 128.8572175  67.7281224 120.2628318 127.8901316  68.4632554
 120.9953490 127.3200533  68.6970384 119.5067673 127.5022917  68.9039060
 109.5372896 130.8518411  61.9549207 109.4209155 130.1763314  62.6230292
 109.6475156 130.3650785  61.1381360 111.8804437 130.3128558  65.6595897
 111.5162645 129.7859179  66.3708818 112.7371553 129.9227027  65.4862382
 117.7853738 121.6022891  72.9227163 117.4537063 122.4718301  72.6988378
 117.1899351 121.2859175  73.6021193 111.5209924 125.3418458  60.6557245
 111.6884327 126.2098694  61.0227716 111.3307093 125.5045739  59.7318534
 107.7297739 130.2549233  68.3559780 106.8048235 130.1225447  68.5637472
 107.9782152 131.0343453  68.8529722 117.6782401 126.3217977  70.0020513
 116.7699279 126.2533385  69.7079274 117.6269997 126.7989922  70.8302338
 111.4999145 127.7976115  61.6403912 111.3798770 128.2433166  62.4789392
 110.8051734 128.1461433  61.0817450 105.0906550 129.8982507  69.1903569
 105.2198931 130.1516986  70.1042981 104.4104001 130.4910215  68.8708224
 111.7523267 127.7407622  77.9455410 110.9756601 128.3001542  77.9358275
 112.3913830 128.2264405  78.4670280 119.5444048 124.5234415  71.7798387
 118.9018428 124.8166948  71.1338181 119.0398976 124.4087335  72.5851583
 117.1984211 128.2697588  62.4684246 118.1102067 128.5024975  62.2931943
 116.6893858 128.8534632  61.9059325 110.0069639 130.5493076  77.5073377
 110.7484324 131.0878120  77.2308201 109.3006625 131.1759364  77.6644929
 115.4824979 132.6922216  76.1045539 115.8908335 132.2504627  75.3600171
 114.7602241 132.1174844  76.3579731 111.8356049 127.6294823  73.4779095
 112.6817244 128.0534236  73.6213744 111.7754687 126.9728447  74.1717659
 114.9855494 125.2899191  75.1360269 114.7416426 126.0441252  74.5994545
 115.2615425 125.6684539  75.9707516 114.5420186 124.4455624  70.7174107
 113.6804665 124.7436878  71.0090844 114.5682621 124.6626023  69.7855139
 111.3581756 132.9897815  67.1247913 111.8220101 133.2685518  66.3352535
 111.0938554 132.0881259  66.9421003 108.2505837 132.5369296  70.0627676
 108.8207194 132.9656565  69.4245160 108.8413948 132.2551881  70.7611861
 110.2950642 129.1120967  63.9337478 110.9974685 129.5642011  64.4011404
 109.9631270 128.4704786  64.5617371 108.7431003 127.7032724  78.3088687
 108.1129664 128.3849005  78.5424084 108.6367091 127.5915805  77.3641825
 104.0375976 127.3704520  69.2354611 103.2475030 127.6262048  68.7594722
 104.5287223 128.1852858  69.3406652 105.9890721 127.7349099  66.1938088
 105.1921884 127.8467793  66.7121584 105.7616313 128.0735751  65.3278978
 111.8196389 134.2593802  74.1420603 111.8840821 134.7214210  74.9778774
 111.1107312 133.6291167  74.2702912 102.3213679 127.6235010  71.6669602
 102.5721717 128.5082020  71.9327178 102.8573227 127.4439612  70.8944694
 108.0211746 122.0053490  80.6713938 107.6278691 121.4519688  81.3461582
 108.8377886 122.3164068  81.0620456 104.9873804 133.4437348  64.5827508
 105.4998324 134.2380598  64.7333073 105.6396516 132.7463638  64.5161109
 106.7968688 136.5603104  66.6650261 106.9735317 137.4821069  66.4771245
 107.5925522 136.2461523  67.0944641 110.9379707 123.4211369  78.2634195
 111.6789420 124.0218522  78.1838657 111.1697630 122.6789007  77.7052237
 106.0821045 128.6067736  76.5412424 105.9674560 127.7052993  76.8419523
 105.2265563 128.8531433  76.1897241 107.9200004 138.0781278  72.6660603
 108.4707429 137.9498341  71.8937597 107.0811480 138.3776167  72.3155496
 111.7167175 134.3432406  77.0104835 112.2495512 133.5820694  76.7804143
 111.1881256 134.0506058  77.7528989 114.8836870 119.4492472  72.5398476
 114.5401139 120.3394113  72.4637587 115.2515832 119.2594129  71.6768061
 102.9522720 131.7726002  65.3587078 103.7897942 132.1823011  65.1420786
 103.1300988 130.8325444  65.3287272 114.8487153 129.4401083  61.0470911
 114.3333776 130.2105687  61.2859299 114.5764461 128.7666219  61.6703973
 112.4334264 124.2850784  66.1056150 111.5775860 123.8957634  65.9261789
 112.8461215 124.3642744  65.2455935 113.9633410 121.8197127  70.5047710
 113.4598206 121.7827262  69.6915515 114.2564017 122.7289870  70.5644366
 110.2076296 121.9035857  69.5113891 111.0729293 121.7078665  69.1519781
 110.2753805 121.6746208  70.4383248 114.6373456 127.3128175  62.8730693
 114.3323591 127.6274324  63.7240836 115.5903898 127.3909595  62.9158026
 113.0819888 133.4718398  64.5223647 112.5541249 132.7371158  64.2096884
 112.5807390 134.2493075  64.2763615 107.8138615 124.1338064  66.8830258
 108.3882367 123.9113246  66.1503451 108.4009598 124.2026759  67.6358859
 116.8718192 130.0211791  67.6894635 117.3850074 130.6541783  68.1916344
 117.5219416 129.4212987  67.3237995 108.1408202 126.1642526  60.9026143
 107.3045515 126.5017212  61.2235418 108.0012972 126.0291505  59.9653280
 110.1161283 121.0079313  65.6105328 109.4625695 120.6928331  64.9861942
 110.0741757 120.3855054  66.3365150 111.2272488 131.2898608  57.5258620
 110.3199549 131.0587862  57.7249769 111.7243520 130.4936228  57.7132601
 113.3499023 127.4961247  69.9352975 112.4321585 127.7176194  69.7774663
 113.7659167 127.5707557  69.0764683 114.1334071 128.8952663  65.0655655
 114.8805890 129.4074060  64.7562777 114.4025661 128.5736715  65.9260049
 112.4060721 131.3911203  62.0482610 111.4971940 131.1070236  62.1455079
 112.4355805 131.8110282  61.1885917 116.5812908 125.9309779  67.0474445
 115.8435665 125.4187165  67.3784687 116.8339682 125.4910160  66.2357722
 116.6824535 118.7086031  67.6416214 116.9883412 117.8483394  67.3542129
 117.4077140 119.3003651  67.4415208 102.9748892 129.1116717  66.0297812
 102.7773291 128.5186078  65.3048878 102.4195556 128.8068928  66.7473751
 110.9545615 129.0039824  68.1492405 111.0094225 128.0513660  68.0734882
 110.1436817 129.1599263  68.6333703 112.1036809 132.9319947  59.3870688
 111.6656239 132.2155806  58.9276326 112.8447250 133.1596062  58.8255780
 108.8937975 127.6216884  65.9082784 108.0805841 127.9211054  66.3147976
 109.3896969 127.2272572  66.6257266 114.4912187 128.0858708  74.7397678
 114.8461575 128.3130181  75.5992144 115.1384318 128.4177085  74.1174933
 108.3852050 125.1935239  71.5244019 109.0251429 125.0523998  70.8266982
 107.5529580 124.9069753  71.1482621 109.1612354 134.4937670  67.6379011
 109.9552952 133.9987990  67.4361586 108.4504046 133.9655533  67.2746717
 105.4695117 128.6380751  63.7138764 104.5392705 128.5765207  63.9308726
 105.5652589 128.1156704  62.9175405 105.3880666 125.1635564  66.3017006
 105.6487484 126.0780897  66.1926166 106.2097839 124.6960007  66.4513619
 106.8605592 126.5773321  73.4715830 107.5328645 126.3690683  72.8228479
 106.0335378 126.3795407  73.0321063 112.7631164 123.2035262  75.4881491
 112.1159079 123.9025212  75.3945968 113.5332179 123.6371406  75.8557739
 112.9395298 131.0416027  73.5478311 113.8687358 131.1927187  73.3747278
 112.5186328 131.1300048  72.6926957 111.7383630 135.0666692  71.3176848
 111.5994715 134.6985476  72.1902787 110.9498226 135.5814331  71.1460806
 113.2888845 134.4448294  68.7065686 112.9538678 134.4049064  69.6023336
 112.7892791 133.7793010  68.2336096 107.2633089 129.8515924  74.2318267
 107.1252887 129.1196163  74.8329806 108.1738012 129.7624824  73.9502455
 116.2248037 131.7904329  58.9802746 115.6077207 131.0651157  58.8835799
 115.7564525 132.5513689  58.6369820 109.8915390 129.5635884  73.7201947
 110.6015008 128.9229076  73.6788565 109.8484698 129.8148779  74.6428128
 108.6044324 126.5501102  75.5397587 108.0681681 126.0991840  76.1919183
 108.0161032 126.6847010  74.7968051 108.0146583 126.0089753  58.1024050
 107.1376049 125.8878554  57.7386297 108.4904336 125.2175831  57.8502939
  99.5348723 130.7966913  68.1965557 100.2219762 130.4828643  67.6086573
  99.3796851 131.7008277  67.9232809 104.3383445 125.6857109  72.6250581
 104.2541634 125.0782779  71.8900991 103.5166151 126.1766128  72.6260077
 114.5107159 124.1710673  67.9920776 115.0075858 123.4180635  67.6721846
 113.7394140 124.2074989  67.4263985 115.5936939 132.9282360  65.5659199
 114.6593218 133.0483822  65.3963904 115.7713608 132.0254827  65.3019209
 111.0942127 126.3128056  67.7192461 110.7239915 125.7599096  68.4073366
 111.5901220 125.7086189  67.1667461 118.9809491 128.7699679  66.1009234
 119.4469943 129.6027671  66.0269536 119.4316991 128.3044661  66.8054492
 116.9526153 121.1380266  70.1400135 116.0389233 121.3684493  70.3082342
 117.3819255 121.2218710  70.9914167 116.7232612 129.3270158  72.6400029
 116.0704062 129.5746066  71.9852482 117.1012992 128.5134296  72.3062506
 112.7720185 130.0689969  79.1266066 112.0960822 129.9684099  79.7968441
 113.5947819 129.9129183  79.5902063 104.5199044 136.3061906  71.7478581
 105.1052481 135.5605594  71.8806485 104.3223882 136.6165863  72.6315245
  99.1116699 128.8767506  70.4683024  99.1500798 128.3431097  71.2620143
  98.6056992 128.3502712  69.8494002 106.4907461 123.7232047  73.9645567
 106.5548788 124.5846877  73.5522964 106.4274581 123.1106048  73.2317925
 105.9659734 125.7955179  77.6118601 106.5931772 125.4132256  78.2256125
 105.1087652 125.5769381  77.9774293 102.7425276 127.6031608  63.5436956
 103.0378717 126.6942287  63.4904010 101.8413312 127.5819348  63.2217958
 106.2719523 125.6787605  69.5264504 105.5506109 126.2923572  69.3871978
 107.0612779 126.2145370  69.4481150 109.0745837 123.0142031  75.8005156
 109.5980239 123.2604328  76.5631465 108.8558170 123.8462066  75.3808294
 104.4713118 125.2845706  63.6676281 104.1425824 124.4043085  63.4851387
 104.8252489 125.2293375  64.5552670 107.5854941 125.5718676  64.0351759
 107.9251014 126.1004597  63.3130367 108.0327062 125.9099082  64.8110325
 110.2798382 123.9555726  73.4854827 109.9395202 123.1563539  73.8875507
 109.5737388 124.2557437  72.9131660 110.9314854 121.0405039  71.9382150
 111.7540923 120.5665517  71.8161040 111.1752917 121.8195523  72.4380836
 109.5723088 124.0693297  62.2345051 110.2931451 124.4474550  61.7308768
 108.9488392 124.7882174  62.3380029 113.7154211 124.7738446  63.1703384
 113.9317826 125.6563084  62.8692212 113.2348278 124.3824660  62.4409026
 108.4553432 127.7324159  69.7474128 108.3098013 128.0464463  70.6398410
 107.9778636 128.3509060  69.1945027 110.3149815 124.7226707  69.7955018
 110.3011384 123.8267801  69.4587316 111.0322243 124.7297371  70.4293304
 112.1675946 125.1564048  71.8408145 111.9093724 126.0781118  71.8392476
 111.6360986 124.7594482  72.5308609 102.9299095 130.2729504  72.6861790
 102.3852563 131.0489312  72.8182064 103.8078445 130.6200308  72.5280911
 109.7186711 123.6041088  65.0642588 109.8402623 122.6757734  65.2633476
 109.4288754 123.6179774  64.1520903 112.5877902 121.2895998  68.2009308
 112.6099599 121.3535331  67.2461287 113.0045961 120.4500507  68.3949814
 103.7165117 129.3999400  75.5791946 102.9746853 129.5482035  76.1656577
 103.3957861 129.6607666  74.7158696 104.1621730 137.2864829  67.6102341
 104.9879750 136.9868601  67.2300985 103.8115782 136.5172451  68.0592130
 109.1303263 136.6391297  69.6800015 108.5083273 135.9762002  69.3802242
 109.8008130 136.6652429  68.9973662 102.3630335 135.2051155  68.5691275
 101.5262244 134.7773330  68.3875276 102.3353981 135.3983599  69.5062066
 109.2027791 125.1173085  79.2732521 109.2515946 125.9935208  78.8910290
 109.7450305 124.5750478  78.7004164 108.6916770 135.1895220  63.1558475
 108.8404891 135.8730685  62.5025148 109.4983214 135.1700310  63.6707931
 117.0984274 128.4937603  77.1825693 117.9994137 128.3544068  76.8909691
 117.1732248 128.6592058  78.1223870 111.4327079 125.8704457  76.0278879
 110.5630389 126.1638024  75.7561468 111.6686560 126.4544902  76.7486143
 106.4469403 131.2160398  64.1619544 106.2015445 130.3122728  64.3599754
 106.6165318 131.2177548  63.2199022 114.1366113 122.0884074  73.5444300
 114.6548057 122.8245101  73.2190788 113.7821246 122.3948068  74.3791059
 105.7165051 126.9488756  61.6605706 105.0234296 127.0233111  61.0045741
 105.4716803 126.1849099  62.1827222 114.3878707 118.5084357  69.0645196
 114.6680461 117.8407546  69.6905623 115.1729314 118.7013453  68.5519860
 118.2587566 126.9301991  72.8116771 119.2104989 127.0300089  72.8328995
 118.0891016 126.1380259  73.3214856 116.2801945 124.0157574  72.9976172
 115.6851877 124.2962587  72.3022661 115.9951642 124.5051475  73.7692913
 112.5758974 129.0204164  57.9686275 113.5218079 128.8910372  58.0374693
 112.1973219 128.2818825  58.4455703 120.8870132 126.9419154  71.9717354
 120.3709181 126.1577611  71.7847283 121.7710080 126.6137871  72.1363874
 118.5480859 120.6860170  67.9313167 118.3505680 120.3775258  68.8156499
 119.1580564 121.4121809  68.0611097 112.4597667 133.0721910  79.4286932
 113.3800676 133.2500509  79.6226979 112.4247250 132.1277955  79.2766631
 110.7601891 126.9454140  57.9041160 109.8533347 126.6487253  57.9803874
 111.0377872 126.6483958  57.0375447 101.6779832 128.2660503  68.3540207
 101.3582616 127.4125812  68.0614581 101.1313260 128.4809082  69.1098174
 105.4559739 130.9822944  72.0709713 105.6745749 131.9140052  72.0897747
 105.8685513 130.6230919  72.8564517 112.3763957 121.4891030  64.0585402
 111.5664685 121.1438115  64.4340648 113.0648374 121.1798573  64.6473013
 114.3054505 120.5669077  65.6809698 114.8585544 120.9864530  66.3399721
 114.5424592 119.6404825  65.7232654 110.3287605 126.5556150  81.4612462
 110.2284332 127.5050507  81.3924553 110.1109147 126.2274389  80.5888532
 109.5300676 123.8041075  58.0453139 110.3919840 124.1295974  58.3048957
 109.7151020 123.0172571  57.5326205 101.5468092 131.8863415  70.3233328
 100.8531563 131.4717368  69.8103283 102.2941083 131.9283951  69.7266747
 117.6833313 122.6769602  65.1888363 117.1031982 123.3354406  64.8066415
 117.4169245 121.8546946  64.7775780 116.1336879 122.0774659  67.3909683
 116.6336657 122.1891194  66.5824002 116.7772487 121.7735712  68.0310491
 110.1918875 129.9853289  80.2777524 109.7085956 130.7853649  80.4841413
 110.2779814 129.9961234  79.3244968 103.4604834 131.8181669  68.1999343
 103.4375522 131.9169356  67.2481226 103.7705471 132.6646819  68.5216509
 106.1192212 133.8757824  72.3145958 107.0735466 133.8441766  72.2475889
 105.9204736 133.4148447  73.1296183 106.7091594 132.4458940  74.8816755
 107.5284483 132.9403018  74.9051593 106.9828402 131.5290908  74.8534323
 116.4658191 124.8369692  64.2444711 115.5784046 125.1219343  64.0264906
 116.8812180 124.6763455  63.3971988 119.8172727 124.8616213  67.9599050
 120.5933117 125.3512665  68.2323667 119.0920861 125.2874267  68.4170920
 122.2545285 125.5743832  69.0172991 122.8489776 125.3339568  68.3066299
 122.3271869 124.8550963  69.6446527 104.4742441 139.4177443  69.3316155
 104.3396909 138.6577844  68.7654153 104.0574503 140.1418343  68.8644944
 116.4399214 130.3524228  64.4595001 116.3834416 130.8092779  63.6202633
 116.9927557 129.5914913  64.2817844 120.2504020 126.1413960  65.2845120
 119.9940954 125.7410596  66.1153328 119.6256888 126.8557754  65.1595260
 117.1733994 131.5429009  61.7547530 117.1182797 131.3773281  60.8135974
 116.5480049 132.2505042  61.9109720 101.9626509 126.7797074  75.5808952
 102.6085372 126.2696028  76.0696177 101.7543660 127.5165755  76.1552378
 110.4830119 121.0437118  61.3332848 110.4708789 121.9878958  61.4901119
 111.3753541 120.8607264  61.0392310 114.2982239 117.6379895  65.5878785
 113.5314634 117.0838382  65.7335468 114.7092944 117.7101764  66.4492937
 106.3024000 123.9264691  79.6783967 107.1655461 123.5701496  79.8887291
 105.7289410 123.5878585  80.3659371  39.4322342  -0.0706672  57.2091674
  40.0700752  -0.1899924  56.5055014  39.3143185   0.8774172  57.2679626
  36.2412048  -0.1179244  57.1453199  35.9030560  -0.2338179  56.2573734
  37.1101816  -0.5188079  57.1254205  32.0998864   1.7356233  53.1350090
  31.5363729   1.6446170  52.3666378  31.9851259   0.9156137  53.6152582
  36.7231831   1.0355608  63.1039404  36.7120472   0.6408406  62.2319908
  36.8852471   0.3021681  63.6973176  29.6463296   3.2307424  55.9734310
  30.4384588   2.8898249  55.5580610  29.8859946   3.3402399  56.8936464
  37.6798423   5.4027200  48.4464555  37.0286402   5.9881281  48.0598569
  38.4742785   5.9333395  48.5059592  31.6054050   2.4916338  48.8451689
  32.3784926   1.9445325  48.7064565  31.9579449   3.3560587  49.0566150
  33.4439092   3.8192720  62.0518588  33.1528958   4.7238351  61.9365255
  34.0796077   3.8609247  62.7662658  34.3695299   1.1969568  58.6419948
  34.9658871   0.9725591  57.9276911  34.4270271   0.4554314  59.2445396
  33.9420328  -1.3490996  46.4770139  34.1945848  -1.8709475  45.7153602
  33.0044887  -1.5124851  46.5796823  38.9863610  -2.3455218  54.2844882
  39.7726700  -2.7635795  53.9335299  39.2502315  -1.4409126  54.4526531
  39.1573688   3.0917632  48.9833539  38.5219521   3.1652259  49.6954444
  38.8271094   3.6811231  48.3052618  44.3872037  -2.4079985  55.1877861
  45.1197209  -2.9780768  55.4215690  43.6311393  -2.7958384  55.6284366
  33.6616616   0.5537110  48.6794514  33.5452874  -0.1217987  49.3475598
  33.7718876   0.0669484  47.8626667  36.0048157   0.0147257  52.3841203
  35.6406364  -0.5122122  53.0954125  36.8615273  -0.3754274  52.2107689
  38.4028977   3.5054135  59.0468382  38.1029700   4.4079174  58.9384189
  38.0580037   3.2386319  59.8989535  31.8541459  -0.0432068  55.0805086
  30.9291955  -0.1755854  55.2882778  32.1025872   0.7362151  55.5775029
  41.8026121  -3.9763324  56.7265819  40.8942998  -4.0447916  56.4324580
  41.7513717  -3.4991380  57.5547645  35.6242865  -2.5005186  48.3649219
  35.5042490  -2.0548135  49.2034699  34.9295453  -2.1519868  47.8062757
  33.3849757  10.2698456  52.0139350  33.3073787  11.2206281  52.0927830
  32.7811401   9.9244328  52.6714276  35.8766987  -2.5573679  64.6700717
  35.1000321  -1.9979759  64.6603581  36.5157550  -2.0716896  65.1915587
  43.6687768  -5.7746886  58.5043693  43.0262148  -5.4814353  57.8583488
  43.1642696  -5.8893966  59.3096890  41.3227931  -2.0283713  49.1929553
  42.2345787  -1.7956326  49.0177250  40.8137578  -1.4446669  48.6304631
  34.1313359   0.2511774  64.2318684  34.8728044   0.7896818  63.9553507
  33.4250345   0.8778063  64.3890235  39.6068699   2.3940915  62.8290845
  40.0152055   1.9523325  62.0845478  38.8845960   1.8193542  63.0825038
  35.9599769  -2.6686478  60.2024402  36.8060964  -2.2447065  60.3459051
  35.8998407  -3.3252854  60.8962965  39.9297514   2.9542106  56.5843134
  39.3006376   3.1187820  55.8819202  39.5423176   3.3683715  57.3554098
  43.8086745   3.8896543  53.9387498  43.1237784   4.2695445  53.3884531
  43.8930595   4.4991870  54.6719446  39.1099214  -5.0082110  61.8605576
  38.8660146  -4.2540049  61.3239851  39.3859145  -4.6296762  62.6952823
  41.0637677   1.5356502  60.5382841  41.2754572   2.1788262  59.8617222
  41.0167425   0.7018819  60.0704771  38.6663906  -5.8525677  57.4419413
  37.8048385  -5.5544423  57.7336151  38.6926341  -5.6355278  56.5100446
  35.4825475   2.6916514  53.8493219  35.9463821   2.9704217  53.0597842
  35.2182274   1.7899958  53.6666310  32.3749556   2.2387995  56.7872982
  32.9450914   2.6675264  56.1490467  32.9657668   1.9570580  57.4857168
  34.4194361  -1.1860334  50.6582784  35.1218405  -0.7339290  51.1256711
  34.0874990  -1.8276515  51.2862677  42.1783505   4.4128458  58.7105199
  43.0000949   4.0108645  58.4287880  42.1745908   4.3096692  59.6621314
  35.9440108   3.9612501  60.8665909  36.0084541   4.4232908  61.7024081
  35.2351032   3.3309866  60.9948219  50.2689498   0.7567206  55.0590170
  49.5153206   0.1874604  54.9034175  50.4037039   0.7229871  56.0060805
  35.6588126   5.6280609  50.7344889  35.5233801   6.4732144  51.1629737
  36.1997939   5.8299886  49.9710823  29.1117523   3.1456047  51.3072815
  29.6242044   3.9399297  51.4578379  29.7640236   2.4482337  51.2406416
  30.9212408   6.2621803  53.3895568  31.0979037   7.1839768  53.2016552
  31.7169242   5.9480222  53.8189948  37.2856602   6.2504175  64.8645232
  36.8420457   5.4640554  64.5466136  37.9473816   6.4383326  64.1989122
  32.0443724   7.7799977  59.3905910  32.5951149   7.6517040  58.6182904
  31.2055200   8.0794866  59.0400803  39.3837841   6.5306975  62.8926633
  39.3656316   7.3515856  62.4006902  40.3057761   6.4061050  63.1176774
  35.8410895   4.0451105  63.7350141  36.3739231   3.2839393  63.5049449
  35.3124976   3.7524756  64.4774296  38.9730872  -0.8580218  47.7716218
  38.4577496  -0.0875614  48.0104605  38.7008181  -1.5315082  48.3949280
  43.9465147   1.8952136  49.7069392  43.1694589   1.5563296  49.2624554
  44.6256627   1.9004759  49.0324357  38.7617176  -2.9853126  49.5975999
  38.4567311  -2.6706977  50.4486142  39.7147618  -2.9071706  49.6403332
  37.2063607   3.1737097  51.2468953  36.6784969   2.4389857  50.9342191
  36.7051110   3.9511773  51.0008922  42.1856453   1.3686118  56.3636000
  41.5280128   2.0585379  56.4516128  42.9896853   1.7582549  56.7069986
  40.9961912  -0.2769510  54.4139941  41.5093794   0.3560482  54.9161651
  41.6463136  -0.8768314  54.0483301  35.3516208   0.9917307  44.2503926
  34.4443269   0.7606561  44.4495075  35.8487240   0.1954927  44.4377908
  38.2584286   9.7014815  47.1700612  37.5845985  10.0046511  47.7785570
  38.6450108  10.5043895  46.8206069  37.4742743  -2.8020054  56.6598282
  36.5565304  -2.5805107  56.5019970  37.8902887  -2.7273744  55.8009989
  38.2577791  -1.4028639  51.7900962  39.0049610  -0.8907241  51.4808084
  38.5269380  -1.7244586  52.6505356  36.5304441   1.0929902  48.7727916
  35.6215660   0.8088935  48.8700386  36.5599525   1.5128981  47.9131223
  41.7623708   4.7036492  52.5419084  41.3086036   3.8627402  52.5984274
  41.1317675   5.3397890  52.8793864  40.7056628  -4.3671522  53.7719751
  39.9679385  -4.8794136  54.1029994  40.9583402  -4.8071141  52.9603028
  40.2056648   6.5412988  53.4768902  40.4979622   7.1018045  52.7581268
  40.7155268   6.8341549  54.2322061  35.0789335  -1.2941477  54.8737712
  35.1337945  -2.2467641  54.7980188  34.2680537  -1.1382038  55.3579010
  36.2280529   2.6338646  46.1115995  35.7899959   1.9174505  45.6521632
  36.9690970   2.8614761  45.5501086  35.1690273   7.3193339  54.5662355
  35.1266452   7.5454186  53.6370887  36.0852972   7.0856714  54.7148156
  38.6155907  -2.2122593  61.4642984  38.9705294  -1.9851120  62.3237450
  39.2628038  -1.8804216  60.8420240  44.3453644   0.9095843  52.1692313
  44.2071542   1.0997439  51.2413503  43.9889862   1.6715226  52.6260365
  44.3723023   2.9772370  57.1803585  44.8059530   2.8847659  58.0286639
  45.0854604   2.9529870  56.5423601  33.2856074   4.1956368  54.3624318
  34.0796672   3.7006689  54.1606893  32.5747766   3.6674232  53.9992024
  38.1050918   6.5774464  58.7136686  38.1587940   7.1465400  59.4814401
  37.2365699   6.7476349  58.3490723  45.2338573   3.0196071  59.7136470
  45.4274463   3.9241881  59.9595745  45.1339191   2.5603490  60.5475055
  40.2953681   3.1702813  65.2877351  40.1439188   2.9413365  64.3707435
  40.2858361   4.1273415  65.3008696  37.0639018   0.7434726  60.2723617
  37.9931078   0.8945886  60.0992585  36.6430048   0.8318747  59.4172264
  35.8627350   4.7685390  58.0422155  35.7238435   4.4004175  58.9148093
  35.0741946   5.2833030  57.8706113  36.4575502   9.8694487  49.3847692
  36.6327257   9.3982530  50.1993314  35.7708290  10.4960253  49.6128952
  37.4132565   4.1466993  55.4310993  37.0782397   4.1067763  56.3268643
  36.9136510   3.4811709  54.9581403  31.3876809  -0.4465377  60.9563574
  31.2496607  -1.1785138  61.5575113  32.2981732  -0.5356477  60.6747762
  40.3491756   1.4923028  45.7048053  39.7320927   0.7669856  45.6081105
  39.8808245   2.2532388  45.3615127  34.0159109  -0.7345417  60.4447254
  34.7258728  -1.3752225  60.4033872  33.9728418  -0.4832523  61.3673434
  42.0045888   6.2021936  63.3653833  41.9458434   5.5181156  62.6984416
  42.4065406   6.9440926  62.9134459  31.0236587  13.0183850  56.1587552
  31.2633185  13.6502374  56.8366570  30.1805783  12.6671890  56.4452911
  42.0063295   4.1661520  61.5967813  41.1190074   3.8287442  61.7194211
  42.5761846   3.4344551  61.8336578  35.5364449   8.8262972  58.5629056
  35.4634620   9.6317944  59.0748360  35.0941842   9.0254938  57.7377077
  35.3254228   8.0634742  52.0731877  34.5421750   8.6056422  52.1670102
  36.0246974   8.5808722  52.4726118  46.4880636  -0.4230263  56.3584374
  46.4770512   0.4594453  55.9878307  45.6198015  -0.7758712  56.1638911
  37.9963132   8.7249806  60.7187214  38.7091104   9.3597271  60.6463116
  37.5053161   8.8213672  59.9027216  39.7180659   2.6301059  52.2904506
  38.7836938   2.7502521  52.1209210  39.8957328   1.7273526  52.0264516
  43.1053211  -1.5281622  52.8254540  43.5713663  -0.6953630  52.7514843
  43.5560711  -1.9936640  53.5299799  33.0475046   6.4744250  61.5392785
  33.7484505   7.1080733  61.6922179  32.5770161   6.8158981  60.7788424
  41.1729442   4.8162199  49.8240692  41.4489286   4.7018794  50.7334566
  40.3033940   4.4179684  49.7852865  40.8476332  -0.9711143  59.3645336
  40.1947782  -0.7235235  58.7097788  41.2256712  -1.7847005  59.0307813
  37.8083506   9.0648550  53.4673506  37.9905900   8.2470206  53.9301258
  38.6316492   9.2816243  53.0298396  38.1425671   7.9916735  50.7288554
  38.6713438   7.4809190  50.1158716  38.4053891   7.6759266  51.5934087
  36.8963905  -0.2291332  65.8511373  36.2204542  -0.3297203  66.5213748
  37.7191539  -0.3852118  66.3147370  28.6442764   6.0080605  58.4723888
  29.2296201   5.2624293  58.6051792  28.4467602   6.3184561  59.3560552
  31.4981419   9.0431852  53.4886330  30.8291794   9.5277980  53.0050370
  31.3594289   9.2901073  54.4029709  35.6386688  11.0775596  60.0868989
  36.1904996  11.2407217  60.8518074  35.9792881  11.6680033  59.4149014
  40.4897562   5.9036853  65.9417643  41.0337466   6.5166811  65.4472598
  39.9084407   6.4616432  66.4584656  38.7755075   9.0257571  57.0732671
  38.6506214   8.2247311  56.5643616  39.4334166   9.5203764  56.5846641
  40.8389983   6.8266591  58.7012221  39.8920319   6.7071942  58.6290548
  41.1872756   5.9389089  58.7838482  37.8436417   6.6219307  54.9016573
  37.6961379   5.6936015  55.0824143  38.6689910   6.6439398  54.4173648
  41.4470538   7.4447866  55.9881446  42.3717086   7.2390728  55.8505897
  41.2785842   7.1964267  56.8970787  41.2365855   7.9633534  51.3443537
  41.4102732   7.3979956  50.5917390  41.7294746   8.7634428  51.1623027
  47.0905246   0.7269957  52.9633837  47.5336392  -0.0222718  52.5652960
  46.2131756   0.7180093  52.5807569  42.2241027   7.2800298  48.4440436
  42.9191932   7.9006991  48.6627750  42.5664177   6.4295649  48.7192814
  44.1232450   4.7300004  49.9727766  44.6483774   5.0687276  49.2477086
  44.0354803   3.7947019  49.7890901  35.7852499   8.6434077  62.1017643
  36.0939625   8.3983224  62.9740343  36.5827981   8.8480716  61.6136513
  35.8073111  10.7971987  54.3323020  35.3678101  10.3048366  55.0255876
  36.5581228  10.2544954  54.0915095  28.2865450   6.9883528  54.3347648
  29.1123470   6.6887300  53.9546291  27.9359502   6.2191150  54.7837436
  33.2546983   6.3409996  56.4045321  32.6326992   5.6780701  56.1047549
  33.9251850   6.3671128  55.7218969  26.4874055   4.9069854  55.2936581
  25.6505963   4.4792028  55.1120582  26.4597700   5.1002297  56.2307372
  43.8126356   5.3632907  65.2778964  43.0221900   5.3457046  64.7383464
  43.5759711   5.9021201  66.0328001  43.9324231   2.2125374  62.5911693
  43.9822236   2.0475381  63.5327216  43.8238155   1.3452633  62.2009574
  32.8160490   4.8913919  49.8803782  32.9648610   5.5749384  49.2270455
  33.6226934   4.8719009  50.3953238  41.2227994  -1.8043698  63.9071000
  42.1237857  -1.9437234  63.6154997  41.2975968  -1.6389244  64.8469177
  45.4342428   4.6322315  62.8353714  45.1427237   4.9952296  63.6717175
  44.8214560   3.9189323  62.6567046  46.6338111   2.1975195  55.3556285
  47.4685002   2.6364999  55.5193845  46.7697239   1.7213848  54.5364530
  43.6829616  -0.2445070  61.3033772  44.1583738  -0.0517424  60.4952624
  42.7595182  -0.1885884  61.0577156  30.5713123   0.9179097  50.8864851
  30.3259165   0.0141427  51.0845061  30.7409038   0.9196247  49.9444329
  36.3155896   7.3862050  47.3515529  35.7429863   8.0052237  46.8986001
  36.8888689   7.9361411  47.8855451  42.3831285  -3.3679310  59.5362078
  43.3348708  -3.2681213  59.5574302  42.2134736  -4.1601042  60.0460162
  40.4045665  -6.2823727  59.7221479  39.8095597  -6.0018714  59.0267968
  40.1195362  -5.7929826  60.4938220  39.5353155   7.6699200  48.4824111
  40.4683829   7.6044762  48.6856987  39.4476368   8.5055467  48.0238644
  42.1641172   6.9865070  45.4428059  42.0854804   6.6524934  46.3363817
  42.9850839   7.4786838  45.4419531  44.8619363  -0.1473191  58.6504378
  44.8295683  -1.0857190  58.8364061  45.4719987  -0.0689154  57.9170203
  36.7002694  -1.2777138  44.6931582  37.6461799  -1.4070929  44.7620000
  36.3216939  -2.0162476  45.1701010  45.0113852  -3.3562147  58.6962661
  44.4952900  -4.1403690  58.5092590  45.8953800  -3.6843430  58.8609180
  50.6795913   0.9142816  57.7910414  51.4099302   0.6528104  58.3518118
  50.0702859   0.1771538  57.8312482  48.7611210  -0.9449321  58.3884866
  48.0344374  -1.0793356  57.7801357  48.3458497  -0.6372492  59.1941584
  36.5841387   2.7740609  66.1532239  37.5044396   2.9519208  66.3472285
  36.5490970   1.8296654  66.0011938  29.5803459   0.6841643  58.7955020
  29.7989469   1.6158751  58.8143054  29.9929233   0.3249618  59.5809824
  41.8077032  -7.6211699  51.9133669  41.2275701  -6.9626895  51.5311722
  41.5412965  -8.4434355  51.5021087  34.3162595  -0.3128012  67.0022830
  33.8329676   0.4872348  67.2086719  34.4023534  -0.3020067  66.0490274
  27.5848554   1.5200368  54.9244650  27.5619242   1.6188055  53.9726533
  27.8949191   2.3665518  55.2461816  30.2435932   3.5776523  59.0391264
  31.1979186   3.5460465  58.9721196  30.0448456   3.1167146  59.8541490
  30.8335314   2.1477639  61.6062062  31.6528203   2.6421717  61.6296899
  31.1072122   1.2309607  61.5779629  40.5901910  -5.4611609  50.9690017
  39.7027765  -5.1761958  50.7510212  41.0055899  -5.6217846  50.1217294
  43.9416447  -5.4365088  54.6844357  44.7176837  -4.9468636  54.9568973
  43.2164581  -5.0107034  55.1416226  46.3789005  -4.7237469  55.7418297
  46.9733496  -4.9641733  55.0311605  46.4515589  -5.4430338  56.3691834
  28.5986161   9.1196142  56.0561462  28.4640629   8.3596543  55.4899460
  28.1818223   9.8437042  55.5890251  39.7345124   4.3033066  45.0638037
  40.4380974   4.5083068  45.6795693  39.0107773   4.8709827  45.3287121
  40.5642934   0.0542927  51.1840308  40.5078136   0.5111478  50.3447940
  41.1171277  -0.7066389  51.0063150  44.3747740  -4.1567341  52.0090427
  44.1184674  -4.5570706  52.8398635  43.7500608  -3.4423547  51.8840566
  48.6860078  -1.4171268  54.5161718  48.1259636  -1.3478079  55.2893281
  48.0803581  -1.5930283  53.7961215  31.7555287  10.0165459  56.2679905
  31.6387671  10.9610892  56.1658595  30.9347733   9.7139021  56.6565704
  41.6431821   4.7415595  47.1136497  42.4777425   4.3096793  46.9313972
  41.4816164   4.5697608  48.0413392  41.2977713   1.2447708  48.4792837
  41.2426517   1.0791980  47.5381281  40.6723769   1.9523741  48.6355026
  38.6123621   3.5496620  67.8046400  39.4814780   3.7237272  67.4433034
  38.1330372   4.3691037  67.6822129  32.7809801  10.6693721  59.4835833
  33.6837048  10.7017331  59.8002328  32.5547171   9.7394172  59.4982169
  34.5363403   9.4224707  56.1445912  33.5859034   9.4226569  56.0310284
  34.8395889   8.6757442  55.6281946  50.2716096  15.2585246  57.2091674
  50.9094506  15.1391993  56.5055014  50.1536939  16.2066090  57.2679626
  47.0805803  15.2112674  57.1453199  46.7424314  15.0953739  56.2573734
  47.9495571  14.8103839  57.1254205  42.9392618  17.0648150  53.1350090
  42.3757483  16.9738087  52.3666378  42.8245013  16.2448055  53.6152582
  40.4857050  18.5599342  55.9734310  41.2778342  18.2190167  55.5580610
  40.7253700  18.6694317  56.8936464  48.5192177  20.7319118  48.4464555
  47.8680157  21.3173199  48.0598569  49.3136540  21.2625313  48.5059592
  42.4447804  17.8208255  48.8451689  43.2178680  17.2737242  48.7064565
  42.7973203  18.6852505  49.0566150  45.2089054  16.5261486  58.6419948
  45.8052626  16.3017508  57.9276911  45.2664025  15.7846232  59.2445396
  44.7814082  13.9800921  46.4770139  45.0339603  13.4582443  45.7153602
  43.8438641  13.8167067  46.5796823  49.8257365  12.9836700  54.2844882
  50.6120454  12.5656123  53.9335299  50.0896069  13.8882792  54.4526531
  49.9967442  18.4209550  48.9833539  49.3613275  18.4944177  49.6954444
  49.6664849  19.0103149  48.3052618  55.2265792  12.9211933  55.1877861
  55.9590964  12.3511150  55.4215690  54.4705148  12.5333533  55.6284366
  44.5010371  15.8829027  48.6794514  44.3846629  15.2073931  49.3475598
  44.6112631  15.3961401  47.8626667  46.8441912  15.3439174  52.3841203
  46.4800119  14.8169795  53.0954125  47.7009028  14.9537643  52.2107689
  52.7491212   6.6333507  59.6472469  52.4174537   7.5028918  59.4233684
  52.1536826   6.3169791  60.3266500  46.4847399  10.3729074  47.3802552
  46.6521801  11.2409311  47.7473023  46.2944568  10.5356356  46.4563841
  49.2422732  18.8346053  59.0468382  48.9423455  19.7371092  58.9384189
  48.8973791  18.5678236  59.8989535  42.6935213  15.2859850  55.0805086
  41.7685710  15.1536064  55.2882778  42.9419627  16.0654069  55.5775029
  52.6419876  11.3528593  56.7265819  51.7336753  11.2844002  56.4324580
  52.5907471  11.8300538  57.5547645  46.4636620  12.8286732  48.3649219
  46.3436245  13.2743782  49.2034699  45.7689208  13.1772049  47.8062757
  40.0544024  14.9293123  55.9148876  40.1836406  15.1827602  56.8288287
  39.3741476  15.5220831  55.5953531  44.2243512  25.5990373  52.0139350
  44.1467541  26.5498198  52.0927830  43.6205155  25.2536246  52.6714276
  54.5081522   9.5545032  58.5043693  53.8655902   9.8477565  57.8583488
  54.0036451   9.4397952  59.3096890  52.1621686  13.3008205  49.1929553
  53.0739542  13.5335592  49.0177250  51.6531333  13.8845249  48.6304631
  50.7691268  18.2834023  56.5843134  50.1400130  18.4479737  55.8819202
  50.3816930  18.6975633  57.3554098  54.6480500  19.2188461  53.9387498
  53.9631538  19.5987362  53.3884531  54.7324349  19.8283788  54.6719446
  49.5057660   9.4766241  57.4419413  48.6442140   9.7747494  57.7336151
  49.5320095   9.6936640  56.5100446  46.3219230  18.0208431  53.8493219
  46.7857575  18.2996134  53.0597842  46.0576028  17.1191876  53.6666310
  43.2143311  17.5679913  56.7872982  43.7844668  17.9967181  56.1490467
  43.8051423  17.2862498  57.4857168  45.2588116  14.1431584  50.6582784
  45.9612159  14.5952627  51.1256711  44.9268744  13.5015403  51.2862677
  39.0013450  12.4015136  55.9599918  38.2112504  12.6572665  55.4840028
  39.4924697  13.2163474  56.0651958  53.0177259  19.7420376  58.7105199
  53.8394703  19.3400563  58.4287880  53.0139662  19.6388610  59.6621314
  40.9528195  12.7659716  52.9183395  40.1559359  12.8778410  53.4366890
  40.7253787  13.1046368  52.0524285  46.7833863  19.2904419  60.8665909
  46.8478295  19.7524826  61.7024081  46.0744787  18.6601784  60.9948219
  37.2851153  12.6545627  58.3914909  37.5359191  13.5392637  58.6572485
  37.8210701  12.4750228  57.6190000  61.1083253  16.0859124  55.0590170
  60.3546961  15.5166522  54.9034175  61.2430794  16.0521789  56.0060805
  46.4981881  20.9572526  50.7344889  46.3627555  21.8024062  51.1629737
  47.0391693  21.1591804  49.9710823  42.9849220   7.0364106  67.3959245
  42.5916166   6.4830305  68.0706889  43.8015361   7.3474685  67.7865762
  39.9511278  18.4747964  51.3072815  40.4635799  19.2691215  51.4578379
  40.6033991  17.7774255  51.2406416  41.7606163  21.5913721  53.3895568
  41.9372791  22.5131685  53.2016552  42.5562996  21.2772140  53.8189948
  45.9017181   8.4521985  64.9879501  46.6426895   9.0529138  64.9083964
  46.1335104   7.7099623  64.4297544  42.8837478  23.1091894  59.3905910
  43.4344903  22.9808958  58.6182904  42.0448954  23.4086783  59.0400803
  49.8474344   4.4803088  59.2643783  49.5038614   5.3704730  59.1882894
  50.2153307   4.2904746  58.4013368  37.9160195  16.8036619  52.0832385
  38.7535417  17.2133627  51.8666093  38.0938462  15.8636061  52.0532579
  49.8124627  14.4711699  47.7716218  49.2971250  15.2416304  48.0104605
  49.5401935  13.7976835  48.3949280  47.3971738   9.3161400  52.8301456
  46.5413334   8.9268251  52.6507095  47.8098690   9.3953361  51.9701242
  48.9270885   6.8507743  57.2293016  48.4235680   6.8137879  56.4160821
  49.2201491   7.7600486  57.2889673  45.1713770   6.9346473  56.2359198
  46.0366767   6.7389282  55.8765087  45.2391279   6.7056825  57.1628555
  54.7858901  17.2244054  49.7069392  54.0088344  16.8855213  49.2624554
  55.4650382  17.2296677  49.0324357  49.6010930  12.3438791  49.5975999
  49.2961066  12.6584941  50.4486142  50.5541372  12.4220211  49.6403332
  48.0457362  18.5029015  51.2468953  47.5178723  17.7681774  50.9342191
  47.5444865  19.2803691  51.0008922  53.0250208  16.6978035  56.3636000
  52.3673882  17.3877297  56.4516128  53.8290607  17.0874467  56.7069986
  42.7776089   9.1648681  53.6075565  43.3519841   8.9423863  52.8748758
  43.3647072   9.2337376  54.3604166  51.8355667  15.0522408  54.4139941
  52.3487548  15.6852400  54.9161651  52.4856891  14.4523603  54.0483301
  43.1045677  11.1953142  47.6271450  42.2682989  11.5327829  47.9480725
  42.9650446  11.0602122  46.6898587  45.0798757   6.0389930  52.3350634
  44.4263170   5.7238947  51.7107249  45.0379231   5.4165670  53.0610457
  46.1909962  16.3209225  44.2503926  45.2837024  16.0898478  44.4495075
  46.6880994  15.5246844  44.4377908  49.0978041  25.0306732  47.1700612
  48.4239740  25.3338429  47.7785570  49.4843863  25.8335813  46.8206069
  48.3136498  12.5271863  56.6598282  47.3959059  12.7486810  56.5019970
  48.7296641  12.6018174  55.8009989  49.0971545  13.9263279  51.7900962
  49.8443364  14.4384676  51.4808084  49.3663135  13.6047332  52.6505356
  47.3698195  16.4221820  48.7727916  46.4609415  16.1380853  48.8700386
  47.3993279  16.8420898  47.9131223  52.6017463  20.0328409  52.5419084
  52.1479790  19.1919319  52.5984274  51.9711430  20.6689808  52.8793864
  51.5450382  10.9620395  53.7719751  50.8073139  10.4497782  54.1029994
  51.7977156  10.5220777  52.9603028  51.0450402  21.8704906  53.4768902
  51.3373377  22.4309963  52.7581268  51.5549023  22.1633467  54.2322061
  51.6462010   3.7396647  54.3661521  51.9520887   2.8794011  54.0787436
  52.3714615   4.3314268  54.1660515  37.9386366  14.1427334  52.7543119
  37.7410766  13.5496695  52.0294185  37.3833030  13.8379544  53.4719057
  45.9183090  14.0350440  54.8737712  45.9731699  13.0824277  54.7980188
  45.1074292  14.1909880  55.3579010  47.0674283  17.9630564  46.1115995
  46.6293713  17.2466422  45.6521632  47.8084724  18.1906678  45.5501086
  43.8575449  12.6527500  52.6328091  43.0443315  12.9521671  53.0393283
  44.3534444  12.2583189  53.3502573  46.0084027  22.6485257  54.5662355
  45.9660206  22.8746103  53.6370887  46.9246726  22.4148632  54.7148156
  55.1847398  16.2387761  52.1692313  55.0465297  16.4289357  51.2413503
  54.8283617  17.0007143  52.6260365  43.3489524  10.2245856  58.2489326
  43.9888904  10.0834615  57.5512289  42.5167055   9.9380369  57.8727928
  55.2116778  18.3064288  57.1803585  55.6453284  18.2139577  58.0286639
  55.9248358  18.2821788  56.5423601  44.1249828  19.5248286  54.3624318
  44.9190427  19.0298606  54.1606893  43.4141521  18.9966149  53.9992024
  48.9444673  21.9066382  58.7136686  48.9981695  22.4757318  59.4814401
  48.0759454  22.0768267  58.3490723  40.4332592  13.6691368  50.4384071
  39.5030180  13.6075823  50.6554033  40.5290064  13.1467321  49.6420712
  40.3518141  10.1946181  53.0262312  40.6124958  11.1091514  52.9171473
  41.1735313   9.7270623  53.1758925  56.0732327  18.3487988  59.7136470
  56.2668217  19.2533799  59.9595745  55.9732945  17.8895407  60.5475055
  46.7021104  20.0977308  58.0422155  46.5632190  19.7296093  58.9148093
  45.9135700  20.6124948  57.8706113  47.2969256  25.1986405  49.3847692
  47.4721012  24.7274448  50.1993314  46.6102044  25.8252171  49.6128952
  48.2526319  19.4758911  55.4310993  47.9176152  19.4359681  56.3268643
  47.7530265  18.8103627  54.9581403  51.1885511  16.8214945  45.7048053
  50.5714682  16.0961773  45.6081105  50.7201999  17.5824305  45.3615127
  41.8630341  28.3475767  56.1587552  42.1026940  28.9794292  56.8366570
  41.0199538  27.9963807  56.4452911  42.9784057  11.0400369  44.8269357
  42.1013523  10.9189170  44.4631603  43.4541810  10.2486448  44.5748245
  34.4986197  15.8277529  54.9210864  35.1857237  15.5139259  54.3331879
  34.3434326  16.7318894  54.6478115  39.3020919  10.7167726  59.3495888
  39.2179108  10.1093395  58.6146298  38.4803626  11.2076744  59.3505384
  46.3758203  24.1554890  58.5629056  46.3028375  24.9609861  59.0748360
  45.9335596  24.3546856  57.7377077  46.1647983  23.3926660  52.0731877
  45.3815505  23.9348340  52.1670102  46.8640728  23.9100639  52.4726118
  49.4744633   9.2021289  54.7166083  49.9713333   8.4491252  54.3967153
  48.7031614   9.2385606  54.1509292  57.3274390  14.9061655  56.3584374
  57.3164267  15.7886370  55.9878307  56.4591770  14.5533206  56.1638911
  50.5574414  17.9592977  52.2904506  49.6230692  18.0794439  52.1209210
  50.7351082  17.0565443  52.0264516  46.0579602  11.3438672  54.4437767
  45.6877389  10.7909713  55.1318673  46.5538694  10.7396806  53.8912767
  53.9446965  13.8010296  52.8254540  54.4107417  14.6338287  52.7514843
  54.3954466  13.3355277  53.5299799  43.8868800  21.8036167  61.5392785
  44.5878260  22.4372650  61.6922179  43.4163915  22.1450899  60.7788424
  52.0123196  20.1454117  49.8240692  52.2883040  20.0310712  50.7334566
  51.1427695  19.7471602  49.7852865  51.9163628   6.1690883  56.8645442
  51.0026708   6.3995110  57.0327648  52.3456729   6.2529327  57.7159474
  48.6477260  24.3940468  53.4673506  48.8299655  23.5762124  53.9301258
  49.4710246  24.6108160  53.0298396  48.9819426  23.3208653  50.7288554
  49.5107192  22.8101108  50.1158716  49.2447645  23.0051183  51.5934087
  39.4836518  21.3372522  58.4723888  40.0689955  20.5916210  58.6051792
  39.2861357  21.6476479  59.3560552  42.3375174  24.3723770  53.4886330
  41.6685549  24.8569897  53.0050370  42.1988043  24.6192990  54.4029709
  34.0754173  13.9078123  57.1928331  34.1138273  13.3741713  57.9865449
  33.5694466  13.3813328  56.5739308  46.4780442  26.4067513  60.0868989
  47.0298750  26.5699135  60.8518074  46.8186636  26.9971951  59.4149014
  41.4544935   8.7542663  60.6890873  41.5186262   9.6157494  60.2768271
  41.3912056   8.1416665  59.9563232  40.9297208  10.8265796  64.3363908
  41.5569247  10.4442873  64.9501432  40.0725127  10.6079998  64.7019600
  37.7062751  12.6342225  50.2682262  38.0016192  11.7252903  50.2149316
  36.8050786  12.6129964  49.9463265  49.6148829  24.3549489  57.0732671
  49.4899969  23.5539229  56.5643616  50.2727921  24.8495682  56.5846641
  41.2356998  10.7098221  56.2509811  40.5143583  11.3234189  56.1117284
  42.0250253  11.2455986  56.1726457  51.6783738  22.1558509  58.7012221
  50.7314073  22.0363860  58.6290548  52.0266511  21.2681007  58.7838482
  44.0383311   8.0452648  62.5250463  44.5617713   8.2914944  63.2876772
  43.8195644   8.8772683  62.1053600  39.4350592  10.3156322  50.3921588
  39.1063298   9.4353701  50.2096694  39.7889963  10.2603991  51.2797977
  48.6830171  21.9511225  54.9016573  48.5355134  21.0227933  55.0824143
  49.5083665  21.9731316  54.4173648  42.5492415  10.6029292  50.7597065
  42.8888488  11.1315213  50.0375674  42.9964536  10.9409698  51.5355632
  52.2864293  22.7739784  55.9881446  53.2110840  22.5682645  55.8505897
  52.1179596  22.5256185  56.8970787  45.8952328   6.0715655  58.6627456
  46.7178397   5.5976134  58.5406347  46.1390392   6.8506139  59.1626143
  44.5360563   9.1003914  48.9590358  45.2568925   9.4785167  48.4554075
  43.9125867   9.8192791  49.0625336  48.6791685   9.8049063  49.8948690
  48.8955300  10.6873701  49.5937519  48.1985753   9.4135276  49.1654332
  43.4190907  12.7634776  56.4719435  43.2735488  13.0775079  57.3643716
  42.9416110  13.3819676  55.9190334  45.2787290   9.7537324  56.5200325
  45.2648858   8.8578417  56.1832622  45.9959718   9.7607988  57.1538611
  52.0759609  23.2925451  51.3443537  52.2496487  22.7271874  50.5917390
  52.5688500  24.0926346  51.1623027  37.8936569  15.3040120  59.4107096
  37.3490037  16.0799928  59.5427370  38.7715919  15.6510925  59.2526218
  44.6824186   8.6351704  51.7887895  44.8040097   7.7068350  51.9878782
  44.3926228   8.6490390  50.8766210  47.5515376   6.3206615  54.9254615
  47.5737073   6.3845948  53.9706594  47.9683435   5.4811123  55.1195121
  57.9299000  16.0561874  52.9633837  58.3730146  15.3069199  52.5652960
  57.0525511  16.0472011  52.5807569  53.0634782  22.6092216  48.4440436
  53.7585686  23.2298908  48.6627750  53.4057932  21.7587567  48.7192814
  38.6802591  14.4310017  62.3037253  37.9384327  14.5792652  62.8901883
  38.3595335  14.6918282  61.4404002  54.9626205  20.0591921  49.9727766
  55.4877529  20.3979194  49.2477086  54.8748557  19.1238937  49.7890901
  46.6466866  26.1263905  54.3323020  46.2071856  25.6340283  55.0255876
  47.3974982  25.5836872  54.0915095  39.1259205  22.3175445  54.3347648
  39.9517224  22.0179217  53.9546291  38.7753257  21.5483068  54.7837436
  44.0940738  21.6701914  56.4045321  43.4720747  21.0072619  56.1047549
  44.7645605  21.6963045  55.7218969  37.3267810  20.2361772  55.2936581
  36.4899718  19.8083946  55.1120582  37.2991455  20.4294215  56.2307372
  44.1665265  10.1483702  65.9977827  44.2153421  11.0245824  65.6155597
  44.7087779   9.6061095  65.4249470  43.6554245  20.2205837  49.8803782
  43.8042365  20.9041301  49.2270455  44.4620688  20.2010927  50.3953238
  57.4731865  17.5267113  55.3556285  58.3078756  17.9656917  55.5193845
  57.6090994  17.0505766  54.5364530  41.4106878  16.2471015  50.8864851
  41.1652920  15.3433345  51.0845061  41.5802792  16.2488165  49.9444329
  49.1003587   7.1194691  60.2689606  49.6185531   7.8555718  59.9436095
  48.7458720   7.4258684  61.1036365  40.6802525  11.9799372  48.3851012
  39.9871770  12.0543727  47.7291048  40.4354277  11.2159716  48.9072529
  49.3516182   3.5394973  55.7890503  49.6317935   2.8718163  56.4150929
  50.1366789   3.7324069  55.2765167  47.1549650  22.7153967  47.3515529
  46.5823617  23.3344155  46.8986001  47.7282444  23.2653329  47.8855451
  51.2439419   9.0468191  59.7221479  50.6489352   9.3273203  59.0267968
  50.9589116   9.5362092  60.4938220  50.3746910  22.9991118  48.4824111
  51.3077583  22.9336679  48.6856987  50.2870123  23.8347384  48.0238644
  53.0034927  22.3156988  45.4428059  52.9248558  21.9816851  46.3363817
  53.8244593  22.8078756  45.4419531  55.7013118  15.1818727  58.6504378
  55.6689438  14.2434728  58.8364061  56.3113741  15.2602764  57.9170203
  47.5396449  14.0514780  44.6931582  48.4855553  13.9220988  44.7620000
  47.1610694  13.3129442  45.1701010  55.8507606  11.9729771  58.6962661
  55.3346655  11.1888227  58.5092590  56.7347555  11.6448487  58.8609180
  53.5118333   5.7170786  54.6558474  53.3143154   5.4085874  55.5401805
  54.1218039   6.4432425  54.7856403  61.5189668  16.2434734  57.7910414
  62.2493056  15.9820022  58.3518118  60.9096613  15.5063456  57.8312482
  59.6004965  14.3842597  58.3884866  58.8738128  14.2498562  57.7801357
  59.1852252  14.6919425  59.1941584  45.7239366  11.9764757  44.6286467
  44.8170821  11.6797869  44.7049181  46.0015347  11.6794575  43.7620753
  36.6417306  13.2971120  55.0785513  36.3220090  12.4436428  54.7859887
  36.0950734  13.5119698  55.8343481  40.4197214  16.0133561  58.7955020
  40.6383223  16.9450669  58.8143054  40.8322988  15.6541535  59.5809824
  47.3401431   6.5201646  50.7830708  46.5302160   6.1748731  51.1585954
  48.0285848   6.2109190  51.3718320  49.2691980   5.5979693  52.4055005
  49.8223018   6.0175146  53.0645028  49.5062066   4.6715441  52.4477961
  44.4938150   8.8351692  44.7698446  45.3557314   9.1606590  45.0294263
  44.6788495   8.0483188  44.2571512  36.5105566  16.9174031  57.0478635
  35.8169038  16.5027984  56.5348589  37.2578557  16.9594568  56.4512054
  52.6470787   7.7080218  51.9133669  52.0669456   8.3665022  51.5311722
  52.3806720   6.8857563  51.5021087  51.0974353   7.1085276  54.1154989
  51.5974132   7.2201810  53.3069308  51.7409961   6.8046329  54.7555798
  38.4242309  16.8492285  54.9244650  38.4012997  16.9479972  53.9726533
  38.7342945  17.6957436  55.2461816  41.0829687  18.9068440  59.0391264
  42.0372940  18.8752383  58.9721196  40.8842210  18.4459064  59.8541490
  51.4295665   9.8680309  50.9690017  50.5421520  10.1529959  50.7510212
  51.8449654   9.7074072  50.1217294  54.7810201   9.8926830  54.6844357
  55.5570591  10.3823282  54.9568973  54.0558335  10.3184884  55.1416226
  57.2182760  10.6054449  55.7418297  57.8127250  10.3650185  55.0311605
  57.2909343   9.8861579  56.3691834  39.4379915  24.4488060  56.0561462
  39.3034383  23.6888461  55.4899460  39.0211978  25.1728960  55.5890251
  50.5738878  19.6324983  45.0638037  51.2774728  19.8374986  45.6795693
  49.8501527  20.2001745  45.3287121  51.4036689  15.3834845  51.1840308
  51.3471890  15.8403396  50.3447940  51.9565031  14.6225529  51.0063150
  55.2141495  11.1724576  52.0090427  54.9578429  10.7721212  52.8398635
  54.5894363  11.8868370  51.8840566  59.5253832  13.9120650  54.5161718
  58.9653390  13.9813839  55.2893281  58.9197336  13.7361634  53.7961215
  42.5949041  25.3457377  56.2679905  42.4781425  26.2902809  56.1658595
  41.7741487  25.0430938  56.6565704  52.4825576  20.0707512  47.1136497
  53.3171180  19.6388711  46.9313972  52.3209919  19.8989526  48.0413392
  52.1371468  16.5739626  48.4792837  52.0820272  16.4083897  47.5381281
  51.5117523  17.2815659  48.6355026  36.9263983  11.8107690  62.3054259
  37.5722847  11.3006644  62.7941484  36.7181134  12.5476372  62.8797684
  45.4467593   6.0747735  48.0578155  45.4346263   7.0189575  48.2146426
  46.3391015   5.8917880  47.7637616  43.6203555  25.9985639  59.4835833
  44.5230802  26.0309249  59.8002328  43.3940925  25.0686090  59.4982169
  45.3757157  24.7516625  56.1445912  44.4252788  24.7518487  56.0310284
  45.6789644  24.0049360  55.6281946  49.2619713   2.6690511  52.3124092
  48.4952109   2.1148998  52.4580774  49.6730418   2.7412380  53.1738244
  41.2661474   8.9575307  66.4029273  42.1292935   8.6012112  66.6132598
  40.6926885   8.6189202  67.0904677  61.1109851  30.5877164  57.2091674
  61.7488261  30.4683911  56.5055014  60.9930694  31.5358008  57.2679626
  57.9199557  30.5404592  57.1453199  57.5818069  30.4245656  56.2573734
  58.7889325  30.1395757  57.1254205  53.7786373  32.3940068  53.1350090
  53.2151238  32.3030005  52.3666378  53.6638768  31.5739973  53.6152582
  58.4019340  31.6939443  63.1039404  58.3907981  31.2992242  62.2319908
  58.5639980  30.9605516  63.6973176  51.3250805  33.8891260  55.9734310
  52.1172097  33.5482084  55.5580610  51.5647455  33.9986235  56.8936464
  59.3585932  36.0611036  48.4464555  58.7073911  36.6465116  48.0598569
  60.1530294  36.5917231  48.5059592  53.2841559  33.1500173  48.8451689
  54.0572435  32.6029160  48.7064565  53.6366958  34.0144422  49.0566150
  55.1226601  34.4776555  62.0518588  54.8316467  35.3822186  61.9365255
  55.7583586  34.5193083  62.7662658  56.0482808  31.8553404  58.6419948
  56.6446380  31.6309426  57.9276911  56.1057780  31.1138149  59.2445396
  55.6207837  29.3092839  46.4770139  55.8733357  28.7874360  45.7153602
  54.6832396  29.1458984  46.5796823  60.6651119  28.3128617  54.2844882
  61.4514209  27.8948041  53.9335299  60.9289824  29.2174710  54.4526531
  60.8361197  33.7501468  48.9833539  60.2007030  33.8236094  49.6954444
  60.5058603  34.3395067  48.3052618  66.0659546  28.2503851  55.1877861
  66.7984718  27.6803067  55.4215690  65.3098902  27.8625451  55.6284366
  55.3404125  31.2120945  48.6794514  55.2240383  30.5365848  49.3475598
  55.4506385  30.7253319  47.8626667  57.6835666  30.6731092  52.3841203
  57.3193873  30.1461713  53.0954125  58.5402782  30.2829561  52.2107689
  63.5884967  21.9625425  59.6472469  63.2568292  22.8320836  59.4233684
  62.9930580  21.6461709  60.3266500  57.3241153  25.7020992  47.3802552
  57.4915556  26.5701228  47.7473023  57.1338322  25.8648274  46.4563841
  60.0816486  34.1637971  59.0468382  59.7817209  35.0663010  58.9384189
  59.7367546  33.8970154  59.8989535  53.5328968  30.6151768  55.0805086
  52.6079464  30.4827982  55.2882778  53.7813381  31.3945987  55.5775029
  63.4813630  26.6820511  56.7265819  62.5730507  26.6135919  56.4324580
  63.4301226  27.1592456  57.5547645  57.3030374  28.1578649  48.3649219
  57.1829999  28.6035700  49.2034699  56.6082962  28.5063967  47.8062757
  50.8937779  30.2585041  55.9148876  51.0230160  30.5119520  56.8288287
  50.2135230  30.8512749  55.5953531  55.0637266  40.9282291  52.0139350
  54.9861296  41.8790116  52.0927830  54.4598910  40.5828164  52.6714276
  65.3475277  24.8836949  58.5043693  64.7049657  25.1769482  57.8583488
  64.8430205  24.7689870  59.3096890  63.0015440  28.6300122  49.1929553
  63.9133296  28.8627509  49.0177250  62.4925087  29.2137167  48.6304631
  61.2856208  33.0524750  62.8290845  61.6939564  32.6107161  62.0845478
  60.5633469  32.4777378  63.0825038  57.6387278  27.9897357  60.2024402
  58.4848473  28.4136771  60.3459051  57.5785916  27.3330981  60.8962965
  61.6085023  33.6125941  56.5843134  60.9793885  33.7771655  55.8819202
  61.2210685  34.0267550  57.3554098  65.4874254  34.5480379  53.9387498
  64.8025293  34.9279280  53.3884531  65.5718104  35.1575705  54.6719446
  60.7886723  25.6501725  61.8605576  60.5447655  26.4043786  61.3239851
  61.0646654  26.0287073  62.6952823  62.7425186  32.1940338  60.5382841
  62.9542081  32.8372098  59.8617222  62.6954934  31.3602654  60.0704771
  60.3451415  24.8058158  57.4419413  59.4835894  25.1039412  57.7336151
  60.3713850  25.0228557  56.5100446  57.1612984  33.3500349  53.8493219
  57.6251330  33.6288052  53.0597842  56.8969782  32.4483794  53.6666310
  54.0537065  32.8971831  56.7872982  54.6238423  33.3259099  56.1490467
  54.6445177  32.6154415  57.4857168  56.0981870  29.4723501  50.6582784
  56.8005914  29.9244545  51.1256711  55.7662499  28.8307320  51.2862677
  49.8407204  27.7307054  55.9599918  49.0506258  27.9864583  55.4840028
  50.3318452  28.5455392  56.0651958  63.8571014  35.0712293  58.7105199
  64.6788458  34.6692481  58.4287880  63.8533417  34.9680527  59.6621314
  51.7921950  28.0951633  52.9183395  50.9953113  28.2070328  53.4366890
  51.5647542  28.4338286  52.0524285  57.6227617  34.6196337  60.8665909
  57.6872050  35.0816744  61.7024081  56.9138541  33.9893701  60.9948219
  48.1244907  27.9837545  58.3914909  48.3752946  28.8684554  58.6572485
  48.6604456  27.8042146  57.6190000  71.9477007  31.4151042  55.0590170
  71.1940715  30.8458440  54.9034175  72.0824548  31.3813706  56.0060805
  57.3375635  36.2864444  50.7344889  57.2021310  37.1315980  51.1629737
  57.8785448  36.4883722  49.9710823  50.7905032  33.8039882  51.3072815
  51.3029553  34.5983132  51.4578379  51.4427745  33.1066173  51.2406416
  52.5999917  36.9205638  53.3895568  52.7766545  37.8423603  53.2016552
  53.3956751  36.6064058  53.8189948  58.9644111  36.9088011  64.8645232
  58.5207966  36.1224389  64.5466136  59.6261325  37.0967161  64.1989122
  53.7231233  38.4383812  59.3905910  54.2738658  38.3100875  58.6182904
  52.8842709  38.7378701  59.0400803  61.0625350  37.1890810  62.8926633
  61.0443825  38.0099691  62.4006902  61.9845270  37.0644886  63.1176774
  57.5198404  34.7034940  63.7350141  58.0526740  33.9423228  63.5049449
  56.9912485  34.4108592  64.4774296  60.6868099  19.8095006  59.2643783
  60.3432368  20.6996648  59.1882894  61.0547061  19.6196664  58.4013368
  48.7553949  32.1328536  52.0832385  49.5929171  32.5425545  51.8666093
  48.9332217  31.1927979  52.0532579  60.6518381  29.8003617  47.7716218
  60.1365005  30.5708222  48.0104605  60.3795690  29.1268753  48.3949280
  58.2365492  24.6453318  52.8301456  57.3807089  24.2560168  52.6507095
  58.6492444  24.7245279  51.9701242  59.7664639  22.1799661  57.2293016
  59.2629435  22.1429796  56.4160821  60.0595246  23.0892404  57.2889673
  56.0107525  22.2638391  56.2359198  56.8760522  22.0681199  55.8765087
  56.0785034  22.0348743  57.1628555  65.6252655  32.5535972  49.7069392
  64.8482098  32.2147131  49.2624554  66.3044136  32.5588595  49.0324357
  60.4404685  27.6730709  49.5975999  60.1354820  27.9876858  50.4486142
  61.3935127  27.7512129  49.6403332  58.8851116  33.8320932  51.2468953
  58.3572478  33.0973692  50.9342191  58.3838619  34.6095609  51.0008922
  63.8643962  32.0269953  56.3636000  63.2067637  32.7169214  56.4516128
  64.6684362  32.4166385  56.7069986  53.6169844  24.4940599  53.6075565
  54.1913596  24.2715780  52.8748758  54.2040826  24.5629293  54.3604166
  62.6749421  30.3814326  54.4139941  63.1881303  31.0144317  54.9161651
  63.3250645  29.7815521  54.0483301  53.9439431  26.5245060  47.6271450
  53.1076743  26.8619746  47.9480725  53.8044201  26.3894040  46.6898587
  55.9192512  21.3681848  52.3350634  55.2656924  21.0530865  51.7107249
  55.8772986  20.7457588  53.0610457  57.0303717  31.6501143  44.2503926
  56.1230778  31.4190396  44.4495075  57.5274749  30.8538762  44.4377908
  59.9371795  40.3598650  47.1700612  59.2633494  40.6630347  47.7785570
  60.3237617  41.1627730  46.8206069  59.1530252  27.8563781  56.6598282
  58.2352813  28.0778728  56.5019970  59.5690396  27.9310092  55.8009989
  59.9365300  29.2555197  51.7900962  60.6837119  29.7676594  51.4808084
  60.2056889  28.9339250  52.6505356  58.2091950  31.7513738  48.7727916
  57.3003169  31.4672770  48.8700386  58.2387034  32.1712816  47.9131223
  63.4411217  35.3620327  52.5419084  62.9873545  34.5211237  52.5984274
  62.8105184  35.9981725  52.8793864  62.3844137  26.2912313  53.7719751
  61.6466894  25.7789699  54.1029994  62.6370910  25.8512695  52.9603028
  61.8844157  37.1996824  53.4768902  62.1767131  37.7601881  52.7581268
  62.3942777  37.4925385  54.2322061  62.4855764  19.0688565  54.3661521
  62.7914641  18.2085929  54.0787436  63.2108369  19.6606185  54.1660515
  48.7780120  29.4719252  52.7543119  48.5804520  28.8788612  52.0294185
  48.2226784  29.1671462  53.4719057  56.7576844  29.3642358  54.8737712
  56.8125454  28.4116195  54.7980188  55.9468046  29.5201797  55.3579010
  57.9068038  33.2922481  46.1115995  57.4687468  32.5758340  45.6521632
  58.6478479  33.5198596  45.5501086  54.6969204  27.9819418  52.6328091
  53.8837069  28.2813588  53.0393283  55.1928198  27.5875107  53.3502573
  56.8477782  37.9777175  54.5662355  56.8053961  38.2038021  53.6370887
  57.7640481  37.7440549  54.7148156  60.2943416  28.4461242  61.4642984
  60.6492803  28.6732716  62.3237450  60.9415547  28.7779619  60.8420240
  66.0241153  31.5679678  52.1692313  65.8859051  31.7581274  51.2413503
  65.6677371  32.3299061  52.6260365  54.1883279  25.5537773  58.2489326
  54.8282658  25.4126533  57.5512289  53.3560809  25.2672287  57.8727928
  66.0510532  33.6356205  57.1803585  66.4847039  33.5431494  58.0286639
  66.7642113  33.6113706  56.5423601  54.9643583  34.8540204  54.3624318
  55.7584181  34.3590524  54.1606893  54.2535275  34.3258067  53.9992024
  59.7838427  37.2358299  58.7136686  59.8375449  37.8049236  59.4814401
  58.9153208  37.4060184  58.3490723  51.2726346  28.9983286  50.4384071
  50.3423934  28.9367741  50.6554033  51.3683818  28.4759238  49.6420712
  51.1911895  25.5238098  53.0262312  51.4518712  26.4383432  52.9171473
  52.0129067  25.0562541  53.1758925  52.6636820  26.9375856  60.1961137
  53.3359874  26.7293218  59.5473786  51.8366607  26.7397942  59.7566369
  66.9126082  33.6779906  59.7136470  67.1061972  34.5825716  59.9595745
  66.8126700  33.2187325  60.5475055  61.9741190  33.8286649  65.2877351
  61.8226697  33.5997200  64.3707435  61.9645870  34.7857250  65.3008696
  58.7426527  31.4018561  60.2723617  59.6718587  31.5529721  60.0992585
  58.3217557  31.4902582  59.4172264  57.5414859  35.4269226  58.0422155
  57.4025944  35.0588010  58.9148093  56.7529455  35.9416865  57.8706113
  58.1363011  40.5278322  49.3847692  58.3114766  40.0566365  50.1993314
  57.4495799  41.1544088  49.6128952  59.0920074  34.8050829  55.4310993
  58.7569906  34.7651598  56.3268643  58.5924019  34.1395544  54.9581403
  53.0664318  30.2118459  60.9563574  52.9284116  29.4798697  61.5575113
  53.9769241  30.1227359  60.6747762  62.0279265  32.1506863  45.7048053
  61.4108436  31.4253691  45.6081105  61.5595754  32.9116223  45.3615127
  55.6946618  29.9238418  60.4447254  56.4046237  29.2831610  60.4033872
  55.6515927  30.1751313  61.3673434  63.6833397  36.8605771  63.3653833
  63.6245943  36.1764991  62.6984416  64.0852915  37.6024761  62.9134459
  52.7024096  43.6767685  56.1587552  52.9420694  44.3086209  56.8366570
  51.8593292  43.3255725  56.4452911  53.8177811  26.3692287  44.8269357
  52.9407278  26.2481088  44.4631603  54.2935564  25.5778365  44.5748245
  63.6850804  34.8245355  61.5967813  62.7977583  34.4871277  61.7194211
  64.2549355  34.0928386  61.8336578  45.3379951  31.1569447  54.9210864
  46.0250991  30.8431177  54.3331879  45.1828080  32.0610812  54.6478115
  50.1414674  26.0459643  59.3495888  50.0572862  25.4385313  58.6146298
  49.3197380  26.5368662  59.3505384  57.2151958  39.4846807  58.5629056
  57.1422129  40.2901779  59.0748360  56.7729351  39.6838773  57.7377077
  57.0041737  38.7218578  52.0731877  56.2209259  39.2640258  52.1670102
  57.7034483  39.2392557  52.4726118  60.3138387  24.5313207  54.7166083
  60.8107087  23.7783169  54.3967153  59.5425369  24.5677524  54.1509292
  68.1668145  30.2353573  56.3584374  68.1558021  31.1178288  55.9878307
  67.2985524  29.8825123  56.1638911  59.6750641  39.3833642  60.7187214
  60.3878613  40.0181106  60.6463116  59.1840670  39.4797508  59.9027216
  61.3968168  33.2884894  52.2904506  60.4624447  33.4086357  52.1209210
  61.5744837  32.3857361  52.0264516  56.8973356  26.6730590  54.4437767
  56.5271144  26.1201630  55.1318673  57.3932449  26.0688723  53.8912767
  64.7840719  29.1302213  52.8254540  65.2501172  29.9630205  52.7514843
  65.2348220  28.6647195  53.5299799  54.7262555  37.1328085  61.5392785
  55.4272014  37.7664568  61.6922179  54.2557670  37.4742817  60.7788424
  62.8516951  35.4746035  49.8240692  63.1276795  35.3602629  50.7334566
  61.9821449  35.0763520  49.7852865  62.7557382  21.4982800  56.8645442
  61.8420462  21.7287027  57.0327648  63.1850484  21.5821245  57.7159474
  62.5263841  29.6872692  59.3645336  61.8735291  29.9348600  58.7097788
  62.9044221  28.8736831  59.0307813  59.4871015  39.7232386  53.4673506
  59.6693409  38.9054042  53.9301258  60.3104001  39.9400078  53.0298396
  59.8213180  38.6500571  50.7288554  60.3500947  38.1393025  50.1158716
  60.0841400  38.3343101  51.5934087  50.3230273  36.6664440  58.4723888
  50.9083710  35.9208128  58.6051792  50.1255111  36.9768397  59.3560552
  53.1768928  39.7015687  53.4886330  52.5079303  40.1861815  53.0050370
  53.0381798  39.9484908  54.4029709  44.9147928  29.2370040  57.1928331
  44.9532027  28.7033631  57.9865449  44.4088220  28.7105246  56.5739308
  57.3174197  41.7359431  60.0868989  57.8692505  41.8991052  60.8518074
  57.6580390  42.3263869  59.4149014  52.2938690  24.0834581  60.6890873
  52.3580016  24.9449412  60.2768271  52.2305810  23.4708582  59.9563232
  48.5456505  27.9634142  50.2682262  48.8409946  27.0544821  50.2149316
  47.6444541  27.9421882  49.9463265  60.4542584  39.6841406  57.0732671
  60.3293723  38.8831146  56.5643616  61.1121675  40.1787600  56.5846641
  52.0750752  26.0390139  56.2509811  51.3537338  26.6526107  56.1117284
  52.8644008  26.5747904  56.1726457  50.2744347  25.6448240  50.3921588
  49.9457053  24.7645619  50.2096694  50.6283717  25.5895909  51.2797977
  59.5223926  37.2803143  54.9016573  59.3748888  36.3519850  55.0824143
  60.3477419  37.3023233  54.4173648  53.3886170  25.9321210  50.7597065
  53.7282242  26.4607131  50.0375674  53.8358290  26.2701616  51.5355632
  56.7346083  21.4007573  58.6627456  57.5572152  20.9268051  58.5406347
  56.9784146  22.1798057  59.1626143  55.3754317  24.4295831  48.9590358
  56.0962680  24.8077084  48.4554075  54.7519621  25.1484708  49.0625336
  59.5185440  25.1340980  49.8948690  59.7349054  26.0165618  49.5937519
  59.0379507  24.7427194  49.1654332  54.2584661  28.0926694  56.4719435
  54.1129242  28.4066997  57.3643716  53.7809865  28.7111594  55.9190334
  56.1181044  25.0829242  56.5200325  56.1042613  24.1870335  56.1832622
  56.8353472  25.0899905  57.1538611  57.9707175  25.5166582  58.5653452
  57.7124953  26.4383652  58.5637782  57.4392215  25.1197016  59.2553916
  62.9153364  38.6217369  51.3443537  63.0890241  38.0563791  50.5917390
  63.4082255  39.4218264  51.1623027  48.7330323  30.6332038  59.4107096
  48.1883792  31.4091846  59.5427370  49.6109673  30.9802843  59.2526218
  55.5217940  23.9643622  51.7887895  55.6433851  23.0360268  51.9878782
  55.2319982  23.9782308  50.8766210  58.3909131  21.6498532  54.9254615
  58.4130827  21.7137865  53.9706594  58.8077190  20.8103041  55.1195121
  68.7692755  31.3853792  52.9633837  69.2123901  30.6361117  52.5652960
  67.8919265  31.3763928  52.5807569  63.9028536  37.9384133  48.4440436
  64.5979441  38.5590826  48.6627750  64.2451686  37.0879485  48.7192814
  65.8019959  35.3883839  49.9727766  66.3271283  35.7271112  49.2477086
  65.7142312  34.4530854  49.7890901  57.4640008  39.3017913  62.1017643
  57.7727134  39.0567059  62.9740343  58.2615490  39.5064551  61.6136513
  57.4860620  41.4555822  54.3323020  57.0465610  40.9632201  55.0255876
  58.2368737  40.9128790  54.0915095  49.9652959  37.6467363  54.3347648
  50.7910979  37.3471135  53.9546291  49.6147011  36.8774985  54.7837436
  54.9334492  36.9993831  56.4045321  54.3114501  36.3364536  56.1047549
  55.6039359  37.0254963  55.7218969  48.1661564  35.5653689  55.2936581
  47.3293472  35.1375864  55.1120582  48.1385209  35.7586133  56.2307372
  65.6111740  32.8709209  62.5911693  65.6609745  32.7059216  63.5327216
  65.5025664  32.0036468  62.2009574  54.4947999  35.5497755  49.8803782
  54.6436119  36.2333219  49.2270455  55.3014443  35.5302845  50.3953238
  62.9015503  28.8540137  63.9071000  63.8025366  28.7146602  63.6154997
  62.9763477  29.0194592  64.8469177  67.1129937  35.2906150  62.8353714
  66.8214746  35.6536131  63.6717175  66.5002068  34.5773159  62.6567046
  68.3125620  32.8559030  55.3556285  69.1472511  33.2948834  55.5193845
  68.4484748  32.3797683  54.5364530  65.3617125  30.4138765  61.3033772
  65.8371247  30.6066411  60.4952624  64.4382691  30.4697951  61.0577156
  52.2500632  31.5762932  50.8864851  52.0046674  30.6725262  51.0845061
  52.4196547  31.5780083  49.9444329  59.9397342  22.4486609  60.2689606
  60.4579286  23.1847636  59.9436095  59.5852475  22.7550602  61.1036365
  51.5196280  27.3091290  48.3851012  50.8265525  27.3835645  47.7291048
  51.2748031  26.5451633  48.9072529  60.1909936  18.8686891  55.7890503
  60.4711690  18.2010080  56.4150929  60.9760543  19.0615987  55.2765167
  57.9943405  38.0445885  47.3515529  57.4217372  38.6636072  46.8986001
  58.5676198  38.5945247  47.8855451  64.0618794  27.2904525  59.5362078
  65.0136217  27.3902623  59.5574302  63.8922245  26.4982794  60.0460162
  62.0833174  24.3760108  59.7221479  61.4883106  24.6565121  59.0267968
  61.7982871  24.8654009  60.4938220  61.2140664  38.3283035  48.4824111
  62.1471338  38.2628597  48.6856987  61.1263877  39.1639302  48.0238644
  63.8428681  37.6448906  45.4428059  63.7642313  37.3108769  46.3363817
  64.6638348  38.1370673  45.4419531  66.5406872  30.5110645  58.6504378
  66.5083192  29.5726646  58.8364061  67.1507496  30.5894682  57.9170203
  58.3790203  29.3806698  44.6931582  59.3249308  29.2512906  44.7620000
  58.0004448  28.6421360  45.1701010  66.6901361  27.3021688  58.6962661
  66.1740409  26.5180145  58.5092590  67.5741309  26.9740405  58.8609180
  64.3512088  21.0462704  54.6558474  64.1536909  20.7377792  55.5401805
  64.9611793  21.7724343  54.7856403  72.3583422  31.5726652  57.7910414
  73.0886811  31.3111940  58.3518118  71.7490368  30.8355374  57.8312482
  70.4398719  29.7134514  58.3884866  69.7131883  29.5790479  57.7801357
  70.0246006  30.0211343  59.1941584  56.5633120  27.3056674  44.6286467
  55.6564576  27.0089787  44.7049181  56.8409101  27.0086492  43.7620753
  47.4811061  28.6263038  55.0785513  47.1613845  27.7728346  54.7859887
  46.9344489  28.8411616  55.8343481  51.2590968  31.3425479  58.7955020
  51.4776978  32.2742586  58.8143054  51.6716742  30.9833453  59.5809824
  58.1795186  21.8493564  50.7830708  57.3695914  21.5040649  51.1585954
  58.8679603  21.5401108  51.3718320  60.1085734  20.9271611  52.4055005
  60.6616773  21.3467064  53.0645028  60.3455821  20.0007359  52.4477961
  55.3331905  24.1643609  44.7698446  56.1951069  24.4898508  45.0294263
  55.5182249  23.3775105  44.2571512  47.3499321  32.2465949  57.0478635
  46.6562792  31.8319902  56.5348589  48.0972312  32.2886486  56.4512054
  63.4864541  23.0372136  51.9133669  62.9063210  23.6956940  51.5311722
  63.2200474  22.2149480  51.5021087  61.9368108  22.4377194  54.1154989
  62.4367886  22.5493728  53.3069308  62.5803716  22.1338246  54.7555798
  49.2636063  32.1784203  54.9244650  49.2406751  32.2771890  53.9726533
  49.5736700  33.0249354  55.2461816  51.9223441  34.2360358  59.0391264
  52.8766695  34.2044300  58.9721196  51.7235965  33.7750982  59.8541490
  52.5122823  32.8061474  61.6062062  53.3315712  33.3005553  61.6296899
  52.7859631  31.8893442  61.5779629  62.2689419  25.1972226  50.9690017
  61.3815274  25.4821877  50.7510212  62.6843408  25.0365990  50.1217294
  65.6203956  25.2218747  54.6844357  66.3964346  25.7115200  54.9568973
  64.8952090  25.6476801  55.1416226  68.0576514  25.9346366  55.7418297
  68.6521005  25.6942102  55.0311605  68.1303098  25.2153497  56.3691834
  50.2773670  39.7779977  56.0561462  50.1428138  39.0180378  55.4899460
  49.8605732  40.5020877  55.5890251  61.4132633  34.9616901  45.0638037
  62.1168483  35.1666903  45.6795693  60.6895282  35.5293663  45.3287121
  62.2430443  30.7126762  51.1840308  62.1865645  31.1695314  50.3447940
  62.7958786  29.9517447  51.0063150  66.0535249  26.5016494  52.0090427
  65.7972183  26.1013130  52.8398635  65.4288117  27.2160288  51.8840566
  70.3647587  29.2412567  54.5161718  69.8047145  29.3105757  55.2893281
  69.7591090  29.0653552  53.7961215  53.4342796  40.6749294  56.2679905
  53.3175180  41.6194727  56.1658595  52.6135242  40.3722856  56.6565704
  63.3219330  35.3999430  47.1136497  64.1564934  34.9680629  46.9313972
  63.1603673  35.2281444  48.0413392  62.9765222  31.9031543  48.4792837
  62.9214026  31.7375815  47.5381281  62.3511278  32.6107576  48.6355026
  56.2861348  21.4039652  48.0578155  56.2740018  22.3481492  48.2146426
  57.1784770  21.2209798  47.7637616  54.4597310  41.3277556  59.4835833
  55.3624557  41.3601167  59.8002328  54.2334680  40.3978007  59.4982169
  56.2150912  40.0808543  56.1445912  55.2646543  40.0810404  56.0310284
  56.5183398  39.3341277  55.6281946  60.1013467  17.9982429  52.3124092
  59.3345863  17.4440916  52.4580774  60.5124172  18.0704298  53.1738244
  64.6180127  47.7231986  53.1350090  64.0544992  47.6321923  52.3666378
  64.5032522  46.9031890  53.6152582  62.1644559  49.2183177  55.9734310
  62.9565851  48.8774002  55.5580610  62.4041209  49.3278152  56.8936464
  64.1235313  48.4792091  48.8451689  64.8966189  47.9321078  48.7064565
  64.4760712  49.3436340  49.0566150  66.4601591  44.6384757  46.4770139
  66.7127112  44.1166278  45.7153602  65.5226150  44.4750902  46.5796823
  76.9053301  43.5795768  55.1877861  77.6378473  43.0094985  55.4215690
  76.1492657  43.1917369  55.6284366  66.1797880  46.5412863  48.6794514
  66.0634138  45.8657766  49.3475598  66.2900140  46.0545237  47.8626667
  68.5229421  46.0023010  52.3841203  68.1587628  45.4753631  53.0954125
  69.3796537  45.6121479  52.2107689  68.1634908  41.0312909  47.3802552
  68.3309310  41.8993146  47.7473023  67.9732077  41.1940191  46.4563841
  68.1424129  43.4870567  48.3649219  68.0223754  43.9327618  49.2034699
  67.4476717  43.8355885  47.8062757  61.7331533  45.5876959  55.9148876
  61.8623915  45.8411438  56.8288287  61.0528985  46.1804667  55.5953531
  73.8409195  43.9592040  49.1929553  74.7527051  44.1919427  49.0177250
  73.3318842  44.5429084  48.6304631  66.9375625  44.8015419  50.6582784
  67.6399668  45.2536463  51.1256711  66.6056253  44.1599238  51.2862677
  60.6800959  43.0598972  55.9599918  59.8900013  43.3156500  55.4840028
  61.1712206  43.8747310  56.0651958  62.6315704  43.4243551  52.9183395
  61.8346868  43.5362245  53.4366890  62.4041296  43.7630203  52.0524285
  58.9638662  43.3129462  58.3914909  59.2146700  44.1976472  58.6572485
  59.4998210  43.1334064  57.6190000  82.7870761  46.7442959  55.0590170
  82.0334470  46.1750357  54.9034175  82.9218303  46.7105624  56.0060805
  63.4393672  52.2497556  53.3895568  63.6160300  53.1715521  53.2016552
  64.2350505  51.9355975  53.8189948  59.5947704  47.4620454  52.0832385
  60.4322926  47.8717462  51.8666093  59.7725971  46.5219896  52.0532579
  71.4912136  45.1295535  47.7716218  70.9758759  45.9000139  48.0104605
  71.2189444  44.4560671  48.3949280  76.4646410  47.8827889  49.7069392
  75.6875853  47.5439049  49.2624554  77.1437891  47.8880512  49.0324357
  71.2798439  43.0022627  49.5975999  70.9748575  43.3168776  50.4486142
  72.2328881  43.0804047  49.6403332  74.7037717  47.3561871  56.3636000
  74.0461391  48.0461132  56.4516128  75.5078116  47.7458303  56.7069986
  64.7833186  41.8536977  47.6271450  63.9470498  42.1911664  47.9480725
  64.6437955  41.7185957  46.6898587  66.7586266  36.6973765  52.3350634
  66.1050679  36.3822782  51.7107249  66.7166740  36.0749506  53.0610457
  67.8697471  46.9793060  44.2503926  66.9624533  46.7482314  44.4495075
  68.3668503  46.1830680  44.4377908  69.0485704  47.0805655  48.7727916
  68.1396924  46.7964688  48.8700386  69.0780788  47.5004734  47.9131223
  73.3249519  34.3980483  54.3661521  73.6308396  33.5377846  54.0787436
  74.0502124  34.9898103  54.1660515  59.6173875  44.8011169  52.7543119
  59.4198275  44.2080530  52.0294185  59.0620539  44.4963380  53.4719057
  65.5362958  43.3111336  52.6328091  64.7230824  43.6105506  53.0393283
  66.0321953  42.9167024  53.3502573  76.8634907  46.8971596  52.1692313
  76.7252806  47.0873192  51.2413503  76.5071126  47.6590979  52.6260365
  65.8037337  50.1832122  54.3624318  66.5977936  49.6882442  54.1606893
  65.0929029  49.6549985  53.9992024  62.1120101  44.3275203  50.4384071
  61.1817689  44.2659659  50.6554033  62.2077573  43.8051156  49.6420712
  62.0305650  40.8530016  53.0262312  62.2912467  41.7675349  52.9171473
  62.8522822  40.3854459  53.1758925  64.6571566  41.6984205  44.8269357
  63.7801032  41.5773006  44.4631603  65.1329319  40.9070283  44.5748245
  56.1773706  46.4861365  54.9210864  56.8644746  46.1723095  54.3331879
  56.0221835  47.3902729  54.6478115  79.0061899  45.5645490  56.3584374
  78.9951776  46.4470206  55.9878307  78.1379279  45.2117041  56.1638911
  75.6234474  44.4594131  52.8254540  76.0894926  45.2922123  52.7514843
  76.0741974  43.9939113  53.5299799  73.5951137  36.8274718  56.8645442
  72.6814217  37.0578945  57.0327648  74.0244238  36.9113162  57.7159474
  61.1624027  51.9956358  58.4723888  61.7477464  51.2500046  58.6051792
  60.9648866  52.3060314  59.3560552  55.7541682  44.5661958  57.1928331
  55.7925782  44.0325549  57.9865449  55.2481975  44.0397163  56.5739308
  59.3850260  43.2926060  50.2682262  59.6803701  42.3836738  50.2149316
  58.4838295  43.2713800  49.9463265  61.1138101  40.9740158  50.3921588
  60.7850807  40.0937537  50.2096694  61.4677472  40.9187826  51.2797977
  64.2279924  41.2613128  50.7597065  64.5675997  41.7899049  50.0375674
  64.6752045  41.5993534  51.5355632  66.2148072  39.7587749  48.9590358
  66.9356434  40.1369002  48.4554075  65.5913376  40.4776626  49.0625336
  70.3579194  40.4632898  49.8948690  70.5742809  41.3457536  49.5937519
  69.8773262  40.0719112  49.1654332  59.5724078  45.9623956  59.4107096
  59.0277546  46.7383764  59.5427370  60.4503428  46.3094760  59.2526218
  66.3611695  39.2935540  51.7887895  66.4827606  38.3652186  51.9878782
  66.0713737  39.3074226  50.8766210  79.6086509  46.7145710  52.9633837
  80.0517655  45.9653035  52.5652960  78.7313020  46.7055846  52.5807569
  60.8046713  52.9759281  54.3347648  61.6304733  52.6763053  53.9546291
  60.4540765  52.2066903  54.7837436  59.0055319  50.8945607  55.2936581
  58.1687227  50.4667782  55.1120582  58.9778964  51.0878051  56.2307372
  79.1519374  48.1850948  55.3556285  79.9866265  48.6240752  55.5193845
  79.2878503  47.7089601  54.5364530  63.0894387  46.9054850  50.8864851
  62.8440428  46.0017180  51.0845061  63.2590301  46.9072000  49.9444329
  62.3590034  42.6383207  48.3851012  61.6659279  42.7127562  47.7291048
  62.1141786  41.8743551  48.9072529  71.0303691  34.1978809  55.7890503
  71.3105444  33.5301998  56.4150929  71.8154298  34.3907904  55.2765167
  77.3800627  45.8402563  58.6504378  77.3476947  44.9018563  58.8364061
  77.9901250  45.9186599  57.9170203  69.2183958  44.7098615  44.6931582
  70.1643062  44.5804824  44.7620000  68.8398203  43.9713277  45.1701010
  75.1905842  36.3754622  54.6558474  74.9930663  36.0669710  55.5401805
  75.8005548  37.1016260  54.7856403  83.1977177  46.9018569  57.7910414
  83.9280565  46.6403857  58.3518118  82.5884122  46.1647291  57.8312482
  81.2792474  45.0426432  58.3884866  80.5525637  44.9082397  57.7801357
  80.8639761  45.3503261  59.1941584  67.4026875  42.6348592  44.6286467
  66.4958330  42.3381705  44.7049181  67.6802856  42.3378410  43.7620753
  58.3204815  43.9554955  55.0785513  58.0007599  43.1020263  54.7859887
  57.7738243  44.1703533  55.8343481  69.0188940  37.1785482  50.7830708
  68.2089669  36.8332567  51.1585954  69.7073357  36.8693025  51.3718320
  70.9479489  36.2563528  52.4055005  71.5010527  36.6758982  53.0645028
  71.1849575  35.3299277  52.4477961  66.1725659  39.4935527  44.7698446
  67.0344823  39.8190425  45.0294263  66.3576004  38.7067023  44.2571512
  58.1893075  47.5757867  57.0478635  57.4956547  47.1611820  56.5348589
  58.9366066  47.6178403  56.4512054  74.3258296  38.3664054  51.9133669
  73.7456965  39.0248858  51.5311722  74.0594229  37.5441398  51.5021087
  60.1029818  47.5076121  54.9244650  60.0800506  47.6063808  53.9726533
  60.4130454  48.3541271  55.2461816  73.1083174  40.5264144  50.9690017
  72.2209029  40.8113795  50.7510212  73.5237163  40.3657907  50.1217294
  76.4597710  40.5510665  54.6844357  77.2358100  41.0407117  54.9568973
  75.7345844  40.9768719  55.1416226  78.8970269  41.2638284  55.7418297
  79.4914759  41.0234020  55.0311605  78.9696852  40.5445415  56.3691834
  73.0824198  46.0418680  51.1840308  73.0259399  46.4987231  50.3447940
  73.6352540  45.2809364  51.0063150  76.8929004  41.8308412  52.0090427
  76.6365938  41.4305047  52.8398635  76.2681872  42.5452206  51.8840566
  81.2041341  44.5704485  54.5161718  80.6440899  44.6397674  55.2893281
  80.5984845  44.3945470  53.7961215  73.8158977  47.2323461  48.4792837
  73.7607781  47.0667733  47.5381281  73.1905032  47.9399494  48.6355026
  58.6051492  42.4691525  62.3054259  59.2510356  41.9590479  62.7941484
  58.3968643  43.2060207  62.8797684  67.1255102  36.7331570  48.0578155
  67.1133772  37.6773410  48.2146426  68.0178524  36.5501716  47.7637616
  70.9407222  33.3274347  52.3124092  70.1739618  32.7732833  52.4580774
  71.3517927  33.3996216  53.1738244  79.0028662  56.3604827  47.3802552
  79.1703064  57.2285064  47.7473023  78.8125831  56.5232109  46.4563841
  84.6802949  59.2883958  49.1929553  85.5920805  59.5211345  49.0177250
  84.1712596  59.8721002  48.6304631  82.3305890  60.4587452  47.7716218
  81.8152514  61.2292057  48.0104605  82.0583199  59.7852589  48.3949280
  81.4452148  52.8383496  57.2293016  80.9416944  52.8013632  56.4160821
  81.7382755  53.7476239  57.2889673  82.1192193  58.3314544  49.5975999
  81.8142329  58.6460694  50.4486142  83.0722636  58.4095964  49.6403332
  84.1643273  49.7272400  54.3661521  84.4702150  48.8669764  54.0787436
  84.8895878  50.3190021  54.1660515  83.7066774  62.8090698  45.7048053
  83.0895945  62.0837526  45.6081105  83.2383263  63.5700058  45.3615127
  81.1972949  55.7924816  49.8948690  81.4136563  56.6749454  49.5937519
  80.7167016  55.4011029  49.1654332  80.0696639  52.3082368  54.9254615
  80.0918336  52.3721701  53.9706594  80.4864698  51.4686876  55.1195121
  81.8697445  49.5270727  55.7890503  82.1499199  48.8593916  56.4150929
  82.6548052  49.7199822  55.2765167  79.8582695  52.5077399  50.7830708
  79.0483423  52.1624484  51.1585954  80.5467112  52.1984943  51.3718320
  81.7873243  51.5855446  52.4055005  82.3404282  52.0050899  53.0645028
  82.0243330  50.6591194  52.4477961  77.0119414  54.8227445  44.7698446
  77.8738578  55.1482343  45.0294263  77.1969758  54.0358941  44.2571512
  85.1652050  53.6955971  51.9133669  84.5850719  54.3540775  51.5311722
  84.8987983  52.8733316  51.5021087  83.6155617  53.0961029  54.1154989
  84.1155395  53.2077563  53.3069308  84.2591225  52.7922082  54.7555798
  83.9476928  55.8556062  50.9690017  83.0602783  56.1405712  50.7510212
  84.3630917  55.6949825  50.1217294  77.9648857  52.0623488  48.0578155
  77.9527527  53.0065328  48.2146426  78.8572279  51.8793633  47.7637616
  81.7800976  48.6566264  52.3124092  81.0133372  48.1024751  52.4580774
  82.1911681  48.7288133  53.1738244  89.8422417  71.6896745  47.3802552
  90.0096819  72.5576981  47.7473023  89.6519586  71.8524027  46.4563841
  81.2735213  78.1204289  52.0832385  82.1110435  78.5301298  51.8666093
  81.4513480  77.1803732  52.0532579  86.4620695  72.5120813  47.6271450
  85.6258007  72.8495499  47.9480725  86.3225464  72.3769793  46.6898587
  89.5484980  77.6376896  44.2503926  88.6412042  77.4066149  44.4495075
  90.0456012  76.8414515  44.4377908  86.3359075  72.3568040  44.8269357
  85.4588541  72.2356841  44.4631603  86.8116828  71.5654118  44.5748245
  81.0637769  73.9509895  50.2682262  81.3591210  73.0420574  50.2149316
  80.1625804  73.9297635  49.9463265  84.0377543  73.2967043  48.3851012
  83.3446788  73.3711398  47.7291048  83.7929295  72.5327386  48.9072529
  90.8971467  75.3682451  44.6931582  91.8430571  75.2388659  44.7620000
  90.5185712  74.6297113  45.1701010  89.0814384  73.2932427  44.6286467
  88.1745839  72.9965540  44.7049181  89.3590365  72.9962245  43.7620753
  87.8513168  70.1519362  44.7698446  88.7132332  70.4774261  45.0294263
  88.0363513  69.3650858  44.2571512 104.4684869  91.9044834  57.2091674
 105.1063279  91.7851582  56.5055014 104.3505712  92.8525678  57.2679626
 101.2774575  91.8572262  57.1453199 100.9393087  91.7413327  56.2573734
 102.1464343  91.4563427  57.1254205 104.0226137  89.6296288  54.2844882
 104.8089227  89.2115711  53.9335299 104.2864842  90.5342380  54.4526531
 103.4391504  95.4805641  59.0468382 103.1392227  96.3830680  58.9384189
 103.0942564  95.2137825  59.8989535 106.8388648  87.9988182  56.7265819
 105.9305525  87.9303590  56.4324580 106.7876244  88.4760127  57.5547645
  98.4212284 102.2449962  52.0139350  98.3436314 103.1957787  52.0927830
  97.8173928 101.8995834  52.6714276 104.6431226  94.3692421  62.8290845
 105.0514582  93.9274832  62.0845478 103.9208487  93.7945049  63.0825038
 100.9962296  89.3065028  60.2024402 101.8423491  89.7304441  60.3459051
 100.9360934  88.6498652  60.8962965 104.9660040  94.9293612  56.5843134
 104.3368903  95.0939326  55.8819202 104.5785703  95.3435221  57.3554098
 108.8449272  95.8648049  53.9387498 108.1600311  96.2446951  53.3884531
 108.9293122  96.4743376  54.6719446 106.1000204  93.5108009  60.5382841
 106.3117099  94.1539768  59.8617222 106.0529952  92.6770325  60.0704771
 107.2146032  96.3879964  58.7105199 108.0363476  95.9860151  58.4287880
 107.2108435  96.2848198  59.6621314 115.3052025  92.7318712  55.0590170
 114.5515733  92.1626110  54.9034175 115.4399566  92.6981377  56.0060805
 104.4200367  98.5058481  62.8926633 104.4018843  99.3267362  62.4006902
 105.3420288  98.3812556  63.1176774 108.9827673  93.8703642  49.7069392
 108.2057116  93.5314802  49.2624554 109.6619154  93.8756266  49.0324357
 107.2218980  93.3437624  56.3636000 106.5642655  94.0336885  56.4516128
 108.0259380  93.7334056  56.7069986 103.2946813 101.6766321  47.1700612
 102.6208512 101.9798017  47.7785570 103.6812635 102.4795401  46.8206069
 102.5105270  89.1731452  56.6598282 101.5927831  89.3946399  56.5019970
 102.9265414  89.2477762  55.8009989 106.7986235  96.6787998  52.5419084
 106.3448562  95.8378908  52.5984274 106.1680202  97.3149396  52.8793864
 105.2419175  98.5164494  53.4768902 105.5342149  99.0769552  52.7581268
 105.7517795  98.8093055  54.2322061 100.2052800  99.2944846  54.5662355
 100.1628979  99.5205692  53.6370887 101.1215499  99.0608220  54.7148156
 109.3816171  92.8847349  52.1692313 109.2434069  93.0748945  51.2413503
 109.0252389  93.6466732  52.6260365 109.4085550  94.9523876  57.1803585
 109.8422057  94.8599165  58.0286639 110.1217131  94.9281376  56.5423601
 103.1413445  98.5525970  58.7136686 103.1950467  99.1216906  59.4814401
 102.2728226  98.7227855  58.3490723 110.2701100  94.9947577  59.7136470
 110.4636990  95.8993387  59.9595745 110.1701718  94.5354996  60.5475055
 102.1001545  92.7186232  60.2723617 103.0293605  92.8697392  60.0992585
 101.6792575  92.8070253  59.4172264 100.8989877  96.7436897  58.0422155
 100.7600962  96.3755681  58.9148093 100.1104473  97.2584536  57.8706113
 101.4938029 101.8445993  49.3847692 101.6689784 101.3734036  50.1993314
 100.8070817 102.4711759  49.6128952 102.4495092  96.1218499  55.4310993
 102.1144924  96.0819269  56.3268643 101.9499037  95.4563215  54.9581403
 107.0408415  98.1773442  63.3653833 106.9820961  97.4932662  62.6984416
 107.4427933  98.9192432  62.9134459  96.0599114 104.9935356  56.1587552
  96.2995712 105.6253880  56.8366570  95.2168310 104.6423396  56.4452911
 107.0425822  96.1413026  61.5967813 106.1552601  95.8038948  61.7194211
 107.6124373  95.4096057  61.8336578 100.5726976 100.8014478  58.5629056
 100.4997147 101.6069450  59.0748360 100.1304369 101.0006444  57.7377077
 100.3616755 100.0386248  52.0731877  99.5784277 100.5807928  52.1670102
 101.0609500 100.5560228  52.4726118 111.5243163  91.5521243  56.3584374
 111.5133039  92.4345959  55.9878307 110.6560542  91.1992794  56.1638911
 103.0325659 100.7001312  60.7187214 103.7453631 101.3348777  60.6463116
 102.5415688 100.7965178  59.9027216 108.1415737  90.4469884  52.8254540
 108.6076190  91.2797876  52.7514843 108.5923238  89.9814866  53.5299799
 102.8446033 101.0400056  53.4673506 103.0268427 100.2221712  53.9301258
 103.6679019 101.2567749  53.0298396 103.1788198  99.9668241  50.7288554
 103.7075965  99.4560696  50.1158716 103.4416418  99.6510772  51.5934087
  93.6805291  97.9832111  58.4723888  94.2658728  97.2375799  58.6051792
  93.4830129  98.2936067  59.3560552  96.5343946 101.0183358  53.4886330
  95.8654321 101.5029486  53.0050370  96.3956816 101.2652579  54.4029709
 100.6749215 103.0527102  60.0868989 101.2267523 103.2158723  60.8518074
 101.0155408 103.6431539  59.4149014 103.8117602 101.0009077  57.0732671
 103.6868741 100.1998817  56.5643616 104.4696693 101.4955271  56.5846641
 105.8752510  98.8018097  58.7012221 104.9282846  98.6823448  58.6290548
 106.2235283  97.9140595  58.7838482 102.8798944  98.5970813  54.9016573
 102.7323906  97.6687521  55.0824143 103.7052437  98.6190904  54.4173648
 106.4833065  99.4199372  55.9881446 107.4079613  99.2142234  55.8505897
 106.3148369  99.1715773  56.8970787 106.2728382  99.9385040  51.3443537
 106.4465259  99.3731462  50.5917390 106.7657273 100.7385935  51.1623027
 112.1267773  92.7021463  52.9633837 112.5698919  91.9528788  52.5652960
 111.2494283  92.6931599  52.5807569 107.2603554  99.2551804  48.4440436
 107.9554459  99.8758497  48.6627750 107.6026704  98.4047155  48.7192814
 109.1594977  96.7051510  49.9727766 109.6846301  97.0438782  49.2477086
 109.0717330  95.7698525  49.7890901 100.8435638 102.7723493  54.3323020
 100.4040628 102.2799872  55.0255876 101.5943755 102.2296461  54.0915095
  98.2909510  98.3161502  56.4045321  97.6689519  97.6532207  56.1047549
  98.9614377  98.3422634  55.7218969 108.8488883  97.3384413  65.2778964
 108.0584427  97.3208552  64.7383464 108.6122238  97.8772707  66.0328001
 108.9686758  94.1876880  62.5911693 109.0184763  94.0226887  63.5327216
 108.8600682  93.3204139  62.2009574 110.4704955  96.6073821  62.8353714
 110.1789763  96.9703802  63.6717175 109.8577086  95.8940829  62.6567046
 111.6700637  94.1726701  55.3556285 112.5047529  94.6116505  55.5193845
 111.8059766  93.6965354  54.5364530 108.7192143  91.7306436  61.3033772
 109.1946265  91.9234082  60.4952624 107.7957709  91.7865622  61.0577156
 104.5715682  99.6450706  48.4824111 105.5046355  99.5796268  48.6856987
 104.4838895 100.4806973  48.0238644 107.2003699  98.9616576  45.4428059
 107.1217331  98.6276440  46.3363817 108.0213366  99.4538344  45.4419531
 115.7158440  92.8894322  57.7910414 116.4461829  92.6279611  58.3518118
 115.1065386  92.1523044  57.8312482 113.7222605  90.5580238  54.5161718
 113.1622163  90.6273427  55.2893281 113.1166108  90.3821223  53.7961215
  96.7917814 101.9916965  56.2679905  96.6750198 102.9362398  56.1658595
  95.9710260 101.6890527  56.6565704  97.8172328 102.6445227  59.4835833
  98.7199574 102.6768837  59.8002328  97.5909698 101.7145678  59.4982169
  99.5725930 101.3976214  56.1445912  98.6221561 101.3978075  56.0310284
  99.8758416 100.6508948  55.6281946 115.3078623 107.2336752  57.2091674
 115.9457033 107.1143499  56.5055014 115.1899466 108.1817596  57.2679626
 112.1168330 107.1864180  57.1453199 111.7786841 107.0705245  56.2573734
 112.9858098 106.7855345  57.1254205 107.9755145 109.0399656  53.1350090
 107.4120010 108.9489593  52.3666378 107.8607540 108.2199561  53.6152582
 112.5988113 108.3399032  63.1039404 112.5876753 107.9451830  62.2319908
 112.7608752 107.6065104  63.6973176 105.5219577 110.5350848  55.9734310
 106.3140869 110.1941673  55.5580610 105.7616227 110.6445823  56.8936464
 113.5554704 112.7070624  48.4464555 112.9042684 113.2924705  48.0598569
 114.3499067 113.2376819  48.5059592 107.4810331 109.7959761  48.8451689
 108.2541207 109.2488748  48.7064565 107.8335730 110.6604011  49.0566150
 109.3195374 111.1236144  62.0518588 109.0285240 112.0281774  61.9365255
 109.9552358 111.1652671  62.7662658 110.2451581 108.5012992  58.6419948
 110.8415153 108.2769015  57.9276911 110.3026552 107.7597738  59.2445396
 109.8176609 105.9552427  46.4770139 110.0702130 105.4333949  45.7153602
 108.8801168 105.7918573  46.5796823 114.8619892 104.9588206  54.2844882
 115.6482981 104.5407629  53.9335299 115.1258596 105.8634298  54.4526531
 115.0329969 110.3961056  48.9833539 114.3975802 110.4695683  49.6954444
 114.7027376 110.9854655  48.3052618 120.2628319 104.8963439  55.1877861
 120.9953491 104.3262656  55.4215690 119.5067675 104.5085039  55.6284366
 109.5372898 107.8580533  48.6794514 109.4209156 107.1825437  49.3475598
 109.6475158 107.3712907  47.8626667 111.8804439 107.3190680  52.3841203
 111.5162646 106.7921301  53.0954125 112.7371555 106.9289150  52.2107689
 117.7853739  98.6085013  59.6472469 117.4537064  99.4780424  59.4233684
 117.1899353  98.2921297  60.3266500 111.5209926 102.3480580  47.3802552
 111.6884328 103.2160817  47.7473023 111.3307095 102.5107862  46.4563841
 114.2785259 110.8097559  59.0468382 113.9785982 111.7122598  58.9384189
 113.9336318 110.5429742  59.8989535 107.7297740 107.2611356  55.0805086
 106.8048237 107.1287570  55.2882778 107.9782153 108.0405575  55.5775029
 117.6782403 103.3280099  56.7265819 116.7699280 103.2595508  56.4324580
 117.6269998 103.8052044  57.5547645 111.4999146 104.8038238  48.3649219
 111.3798772 105.2495288  49.2034699 110.8051735 105.1523555  47.8062757
 105.0906551 106.9044629  55.9148876 105.2198932 107.1579108  56.8288287
 104.4104003 107.4972337  55.5953531 109.2606039 117.5741879  52.0139350
 109.1830068 118.5249705  52.0927830 108.6567682 117.2287752  52.6714276
 111.7523268 104.7469745  64.6700717 110.9756602 105.3063665  64.6603581
 112.3913831 105.2326528  65.1915587 119.5444049 101.5296538  58.5043693
 118.9018429 101.8229071  57.8583488 119.0398978 101.4149458  59.3096890
 117.1984213 105.2759711  49.1929553 118.1102069 105.5087098  49.0177250
 116.6893860 105.8596755  48.6304631 110.0069641 107.5555198  64.2318684
 110.7484325 108.0940242  63.9553507 109.3006626 108.1821487  64.3890235
 115.4824980 109.6984339  62.8290845 115.8908336 109.2566749  62.0845478
 114.7602242 109.1236966  63.0825038 111.8356050 104.6356945  60.2024402
 112.6817246 105.0596359  60.3459051 111.7754688 103.9790570  60.8962965
 115.8053795 110.2585529  56.5843134 115.1762657 110.4231243  55.8819202
 115.4179457 110.6727139  57.3554098 119.6843027 111.1939967  53.9387498
 118.9994065 111.5738869  53.3884531 119.7686876 111.8035294  54.6719446
 114.9855496 102.2961314  61.8605576 114.7416428 103.0503374  61.3239851
 115.2615426 102.6746661  62.6952823 116.9393958 108.8399926  60.5382841
 117.1510854 109.4831686  59.8617222 116.8923707 108.0062243  60.0704771
 114.5420187 101.4517747  57.4419413 113.6804666 101.7499000  57.7336151
 114.5682622 101.6688146  56.5100446 111.3581757 109.9959937  53.8493219
 111.8220102 110.2747640  53.0597842 111.0938555 109.0943382  53.6666310
 108.2505838 109.5431419  56.7872982 108.8207195 109.9718687  56.1490467
 108.8413950 109.2614004  57.4857168 110.2950643 106.1183090  50.6582784
 110.9974686 106.5704133  51.1256711 109.9631271 105.4766909  51.2862677
 108.7431004 104.7094846  65.0333994 108.1129665 105.3911127  65.2669390
 108.6367092 104.5977928  64.0887132 104.0375977 104.3766642  55.9599918
 103.2475031 104.6324171  55.4840028 104.5287224 105.1914980  56.0651958
 118.0539786 111.7171882  58.7105199 118.8757230 111.3152069  58.4287880
 118.0502189 111.6140116  59.6621314 105.9890722 104.7411222  52.9183395
 105.1921886 104.8529916  53.4366890 105.7616314 105.0797874  52.0524285
 111.8196390 111.2655925  60.8665909 111.8840822 111.7276332  61.7024081
 111.1107314 110.6353290  60.9948219 102.3213680 104.6297133  58.3914909
 102.5721718 105.5144143  58.6572485 102.8573228 104.4501734  57.6190000
 126.1445779 108.0610630  55.0590170 125.3909488 107.4918028  54.9034175
 126.2793321 108.0273295  56.0060805 111.5344408 112.9324032  50.7344889
 111.3990082 113.7775568  51.1629737 112.0754220 113.1343310  49.9710823
 104.9873805 110.4499470  51.3072815 105.4998325 111.2442721  51.4578379
 105.6396518 109.7525761  51.2406416 106.7968690 113.5665227  53.3895568
 106.9735318 114.4883191  53.2016552 107.5925523 113.2523646  53.8189948
 110.9379708 100.4273491  64.9879501 111.6789422 101.0280644  64.9083964
 111.1697631  99.6851129  64.4297544 106.0821046 105.6129859  63.2657731
 105.9674561 104.7115116  63.5664830 105.2265564 105.8593555  62.9142547
 113.1612884 113.5547599  64.8645232 112.7176738 112.7683977  64.5466136
 113.8230097 113.7426749  64.1989122 107.9200005 115.0843400  59.3905910
 108.4707430 114.9560464  58.6182904 107.0811481 115.3838290  59.0400803
 115.2594122 113.8350399  62.8926633 115.2412597 114.6559280  62.4006902
 116.1814042 113.7104474  63.1176774 111.7167176 111.3494528  63.7350141
 112.2495513 110.5882817  63.5049449 111.1881257 111.0568180  64.4774296
 114.8836871  96.4554594  59.2643783 114.5401140  97.3456236  59.1882894
 115.2515834  96.2656252  58.4013368 102.9522722 108.7788125  52.0832385
 103.7897944 109.1885133  51.8666093 103.1300989 107.8387567  52.0532579
 114.8487154 106.4463205  47.7716218 114.3333777 107.2167810  48.0104605
 114.5764462 105.7728342  48.3949280 112.4334265 101.2912906  52.8301456
 111.5775861 100.9019757  52.6507095 112.8461217 101.3704867  51.9701242
 113.9633411  98.8259249  57.2293016 113.4598207  98.7889385  56.4160821
 114.2564018  99.7351992  57.2889673 110.2076297  98.9097979  56.2359198
 111.0729294  98.7140788  55.8765087 110.2753806  98.6808331  57.1628555
 119.8221428 109.1995560  49.7069392 119.0450871 108.8606720  49.2624554
 120.5012909 109.2048183  49.0324357 114.6373457 104.3190297  49.5975999
 114.3323593 104.6336447  50.4486142 115.5903899 104.3971717  49.6403332
 113.0819889 110.4780521  51.2468953 112.5541250 109.7433280  50.9342191
 112.5807392 111.2555197  51.0008922 118.0612735 108.6729541  56.3636000
 117.4036409 109.3628803  56.4516128 118.8653134 109.0625973  56.7069986
 107.8138616 101.1400187  53.6075565 108.3882368 100.9175369  52.8748758
 108.4009599 101.2088882  54.3604166 116.8718194 107.0273914  54.4139941
 117.3850075 107.6603906  54.9161651 117.5219418 106.4275109  54.0483301
 108.1408204 103.1704648  47.6271450 107.3045516 103.5079335  47.9480725
 108.0012973 103.0353628  46.6898587 110.1161284  98.0141436  52.3350634
 109.4625696  97.6990453  51.7107249 110.0741758  97.3917176  53.0610457
 111.2272489 108.2960731  44.2503926 110.3199551 108.0649985  44.4495075
 111.7243521 107.4998350  44.4377908 114.1340568 117.0058238  47.1700612
 113.4602267 117.3089935  47.7785570 114.5206390 117.8087319  46.8206069
 113.3499024 104.5023370  56.6598282 112.4321586 104.7238317  56.5019970
 113.7659168 104.5769680  55.8009989 114.1334072 105.9014785  51.7900962
 114.8805891 106.4136182  51.4808084 114.4025662 105.5798838  52.6505356
 112.4060722 108.3973326  48.7727916 111.4971942 108.1132359  48.8700386
 112.4355806 108.8172404  47.9131223 117.6379990 112.0079915  52.5419084
 117.1842317 111.1670825  52.5984274 117.0073957 112.6441314  52.8793864
 116.5812909 102.9371901  53.7719751 115.8435666 102.4249288  54.1029994
 116.8339683 102.4972283  52.9603028 116.0812929 113.8456412  53.4768902
 116.3735903 114.4061469  52.7581268 116.5911550 114.1384973  54.2322061
 116.6824537  95.7148153  54.3661521 116.9883414  94.8545517  54.0787436
 117.4077142  96.3065774  54.1660515 102.9748893 106.1178840  52.7543119
 102.7773293 105.5248201  52.0294185 102.4195557 105.8131050  53.4719057
 110.9545616 106.0101947  54.8737712 111.0094226 105.0575783  54.7980188
 110.1436819 106.1661386  55.3579010 112.1036810 109.9382070  46.1115995
 111.6656240 109.2217929  45.6521632 112.8447251 110.1658184  45.5501086
 108.8937976 104.6279006  52.6328091 108.0805842 104.9273177  53.0393283
 109.3896971 104.2334695  53.3502573 111.0446554 114.6236763  54.5662355
 111.0022733 114.8497610  53.6370887 111.9609253 114.3900138  54.7148156
 114.4912188 105.0920831  61.4642984 114.8461576 105.3192304  62.3237450
 115.1384319 105.4239208  60.8420240 120.2209925 108.2139267  52.1692313
 120.0827824 108.4040863  51.2413503 119.8646144 108.9758649  52.6260365
 108.3852051 102.1997362  58.2489326 109.0251430 102.0586121  57.5512289
 107.5529582 101.9131875  57.8727928 120.2479305 110.2815794  57.1803585
 120.6815811 110.1891083  58.0286639 120.9610885 110.2573294  56.5423601
 109.1612355 111.4999792  54.3624318 109.9552954 111.0050112  54.1606893
 108.4504047 110.9717655  53.9992024 113.9807200 113.8817888  58.7136686
 114.0344222 114.4508824  59.4814401 113.1121981 114.0519773  58.3490723
 105.4695119 105.6442874  50.4384071 104.5392707 105.5827329  50.6554033
 105.5652591 105.1218827  49.6420712 105.3880668 102.1697687  53.0262312
 105.6487485 103.0843020  52.9171473 106.2097840 101.7022129  53.1758925
 106.8605593 103.5835444  60.1961137 107.5328646 103.3752806  59.5473786
 106.0335379 103.3857530  59.7566369 121.1094854 110.3239494  59.7136470
 121.3030744 111.2285305  59.9595745 121.0095472 109.8646913  60.5475055
 112.7631165 100.2097385  62.2126798 112.1159080 100.9087335  62.1191274
 113.5332180 100.6433529  62.5803046 116.1709963 110.4746237  65.2877351
 116.0195469 110.2456789  64.3707435 116.1614642 111.4316838  65.3008696
 112.9395299 108.0478150  60.2723617 113.8687359 108.1989309  60.0992585
 112.5186329 108.1362171  59.4172264 111.7383631 112.0728814  58.0422155
 111.5994717 111.7047599  58.9148093 110.9498227 112.5876454  57.8706113
 112.3331783 117.1737911  49.3847692 112.5083539 116.7025954  50.1993314
 111.6464571 117.8003677  49.6128952 113.2888846 111.4510417  55.4310993
 112.9538679 111.4111187  56.3268643 112.7892792 110.7855133  54.9581403
 107.2633090 106.8578047  60.9563574 107.1252888 106.1258286  61.5575113
 108.1738014 106.7686947  60.6747762 116.2248038 108.7966451  45.7048053
 115.6077208 108.0713279  45.6081105 115.7564526 109.5575812  45.3615127
 109.8915391 106.5698006  60.4447254 110.6015009 105.9291198  60.4033872
 109.8484699 106.8210901  61.3673434 117.8802170 113.5065360  63.3653833
 117.8214716 112.8224580  62.6984416 118.2821688 114.2484350  62.9134459
 108.6044325 103.5563224  62.2642893 108.0681682 103.1053963  62.9164489
 108.0161033 103.6909133  61.5213357 106.8992868 120.3227273  56.1587552
 107.1389467 120.9545798  56.8366570 106.0562065 119.9715313  56.4452911
 108.0146584 103.0151876  44.8269357 107.1376050 102.8940676  44.4631603
 108.4904337 102.2237954  44.5748245 117.8819577 111.4704944  61.5967813
 116.9946356 111.1330865  61.7194211 118.4518128 110.7387975  61.8336578
  99.5348724 107.8029035  54.9210864 100.2219764 107.4890765  54.3331879
  99.3796853 108.7070400  54.6478115 104.3383446 102.6919232  59.3495888
 104.2541635 102.0844901  58.6146298 103.5166152 103.1828250  59.3505384
 111.4120730 116.1306396  58.5629056 111.3390902 116.9361367  59.0748360
 110.9698123 116.3298362  57.7377077 111.2010510 115.3678166  52.0731877
 110.4178032 115.9099846  52.1670102 111.9003255 115.8852146  52.4726118
 114.5107160 101.1772795  54.7166083 115.0075859 100.4242758  54.3967153
 113.7394141 101.2137112  54.1509292 122.3636917 106.8813161  56.3584374
 122.3526794 107.7637876  55.9878307 121.4954297 106.5284712  56.1638911
 113.8719414 116.0293230  60.7187214 114.5847386 116.6640695  60.6463116
 113.3809442 116.1257096  59.9027216 115.5936941 109.9344483  52.2904506
 114.6593219 110.0545945  52.1209210 115.7713609 109.0316949  52.0264516
 111.0942129 103.3190178  54.4437767 110.7239916 102.7661219  55.1318673
 111.5901221 102.7148312  53.8912767 118.9809492 105.7761802  52.8254540
 119.4469944 106.6089793  52.7514843 119.4316992 105.3106783  53.5299799
 108.9231327 113.7787673  61.5392785 109.6240787 114.4124156  61.6922179
 108.4526442 114.1202405  60.7788424 117.0485723 112.1205623  49.8240692
 117.3245567 112.0062218  50.7334566 116.1790222 111.7223108  49.7852865
 116.9526155  98.1442389  56.8645442 116.0389234  98.3746616  57.0327648
 117.3819256  98.2280833  57.7159474 116.7232613 106.3332281  59.3645336
 116.0704063 106.5808188  58.7097788 117.1012993 105.5196419  59.0307813
 113.6839787 116.3691974  53.4673506 113.8662182 115.5513630  53.9301258
 114.5072773 116.5859666  53.0298396 114.0181953 115.2960159  50.7288554
 114.5469719 114.7852614  50.1158716 114.2810172 114.9802689  51.5934087
 112.7720186 107.0752092  65.8511373 112.0960823 106.9746221  66.5213748
 113.5947820 106.9191306  66.3147370 104.5199045 113.3124028  58.4723888
 105.1052482 112.5667716  58.6051792 104.3223884 113.6227985  59.3560552
 107.3737701 116.3475276  53.4886330 106.7048076 116.8321403  53.0050370
 107.2350570 116.5944496  54.4029709  99.1116700 105.8829629  57.1928331
  99.1500800 105.3493219  57.9865449  98.6056993 105.3564834  56.5739308
 111.5142969 118.3819019  60.0868989 112.0661277 118.5450641  60.8518074
 111.8549163 118.9723457  59.4149014 106.4907462 100.7294169  60.6890873
 106.5548789 101.5909000  60.2768271 106.4274583 100.1168171  59.9563232
 105.9659735 102.8017302  64.3363908 106.5931774 102.4194379  64.9501432
 105.1087654 102.5831504  64.7019600 116.3653843 113.2080277  65.9417643
 116.9093747 113.8210235  65.4472598 115.7840688 113.7659855  66.4584656
 102.7425278 104.6093731  50.2682262 103.0378719 103.7004409  50.2149316
 101.8413313 104.5881470  49.9463265 114.6511356 116.3300995  57.0732671
 114.5262496 115.5290735  56.5643616 115.3090447 116.8247188  56.5846641
 106.2719525 102.6849727  56.2509811 105.5506110 103.2985695  56.1117284
 107.0612780 103.2207492  56.1726457 116.7146265 114.1310015  58.7012221
 115.7676600 114.0115366  58.6290548 117.0629038 113.2432513  58.7838482
 109.0745838 100.0204154  62.5250463 109.5980240 100.2666450  63.2876772
 108.8558171 100.8524189  62.1053600 104.4713119 102.2907828  50.3921588
 104.1425825 101.4105207  50.2096694 104.8252490 102.2355497  51.2797977
 113.7192698 113.9262731  54.9016573 113.5717660 112.9979439  55.0824143
 114.5446192 113.9482822  54.4173648 107.5854942 102.5780798  50.7597065
 107.9251015 103.1066719  50.0375674 108.0327063 102.9161204  51.5355632
 117.3226820 114.7491290  55.9881446 118.2473367 114.5434151  55.8505897
 117.1542123 114.5007691  56.8970787 110.2798383 100.9617849  60.2100133
 109.9395204 100.1625662  60.6120813 109.5737389 101.2619560  59.6376967
 110.9314855  98.0467161  58.6627456 111.7540924  97.5727640  58.5406347
 111.1752919  98.8257645  59.1626143 109.5723089 101.0755420  48.9590358
 110.2931452 101.4536673  48.4554075 108.9488394 101.7944297  49.0625336
 113.7154212 101.7800569  49.8948690 113.9317827 102.6625207  49.5937519
 113.2348280 101.3886782  49.1654332 108.4553434 104.7386282  56.4719435
 108.3098014 105.0526585  57.3643716 107.9778637 105.3571182  55.9190334
 110.3149817 101.7288830  56.5200325 110.3011385 100.8329923  56.1832622
 111.0322245 101.7359494  57.1538611 112.1675947 102.1626170  58.5653452
 111.9093725 103.0843241  58.5637782 111.6360988 101.7656605  59.2553916
 117.1122136 115.2676957  51.3443537 117.2859014 114.7023380  50.5917390
 117.6051027 116.0677852  51.1623027 102.9299096 107.2791626  59.4107096
 102.3852564 108.0551434  59.5427370 103.8078446 107.6262431  59.2526218
 109.7186713 100.6103210  51.7887895 109.8402624  99.6819856  51.9878782
 109.4288755 100.6241896  50.8766210 112.5877903  98.2958121  54.9254615
 112.6099600  98.3597454  53.9706594 113.0045962  97.4562629  55.1195121
 122.9661527 108.0313380  52.9633837 123.4092673 107.2820705  52.5652960
 122.0888038 108.0223517  52.5807569 118.0997309 114.5843722  48.4440436
 118.7948213 115.2050414  48.6627750 118.4420459 113.7339073  48.7192814
 119.9988732 112.0343427  49.9727766 120.5240056 112.3730700  49.2477086
 119.9111084 111.0990443  49.7890901 111.6608780 115.9477501  62.1017643
 111.9695907 115.7026648  62.9740343 112.4584262 116.1524139  61.6136513
 111.6829392 118.1015411  54.3323020 111.2434383 117.6091789  55.0255876
 112.4337509 117.5588378  54.0915095 104.1621731 114.2926951  54.3347648
 104.9879751 113.9930723  53.9546291 103.8115783 113.5234574  54.7837436
 109.1303265 113.6453420  56.4045321 108.5083274 112.9824125  56.1047549
 109.8008132 113.6714552  55.7218969 102.3630336 112.2113278  55.2936581
 101.5262245 111.7835452  55.1120582 102.3353982 112.4045721  56.2307372
 109.2027792 102.1235208  65.9977827 109.2515948 102.9997330  65.6155597
 109.7450306 101.5812601  65.4249470 119.6882638 112.6676331  65.2778964
 118.8978181 112.6500470  64.7383464 119.4515992 113.2064625  66.0328001
 119.8080513 109.5168797  62.5911693 119.8578518 109.3518805  63.5327216
 119.6994436 108.6496056  62.2009574 108.6916772 112.1957343  49.8803782
 108.8404892 112.8792807  49.2270455 109.4983215 112.1762433  50.3953238
 117.0984275 105.4999725  63.9071000 117.9994138 105.3606190  63.6154997
 117.1732250 105.6654180  64.8469177 111.4327081 102.8766580  62.7524186
 110.5630390 103.1700146  62.4806774 111.6686561 103.4607025  63.4731450
 121.3098710 111.9365739  62.8353714 121.0183518 112.2995719  63.6717175
 120.6970841 111.2232747  62.6567046 122.5094392 109.5018619  55.3556285
 123.3441283 109.9408423  55.5193845 122.6453521 109.0257272  54.5364530
 119.5585898 107.0598353  61.3033772 120.0340019 107.2526000  60.4952624
 118.6351463 107.1157539  61.0577156 106.4469405 108.2222521  50.8864851
 106.2015446 107.3184851  51.0845061 106.6165319 108.2239671  49.9444329
 114.1366114  99.0946197  60.2689606 114.6548058  99.8307224  59.9436095
 113.7821247  99.4010190  61.1036365 105.7165052 103.9550878  48.3851012
 105.0234297 104.0295233  47.7291048 105.4716804 103.1911222  48.9072529
 114.3878709  95.5146480  55.7890503 114.6680462  94.8469669  56.4150929
 115.1729315  95.7075575  55.2765167 112.1912177 114.6905473  47.3515529
 111.6186144 115.3095661  46.8986001 112.7644971 115.2404835  47.8855451
 118.2587567 103.9364114  59.5362078 119.2104990 104.0362211  59.5574302
 118.0891017 103.1442382  60.0460162 116.2801946 101.0219697  59.7221479
 115.6851878 101.3024709  59.0267968 115.9951643 101.5113598  60.4938220
 115.4109437 114.9742624  48.4824111 116.3440110 114.9088185  48.6856987
 115.3232650 115.8098890  48.0238644 118.0397454 114.2908494  45.4428059
 117.9611085 113.9568358  46.3363817 118.8607120 114.7830262  45.4419531
 120.7375645 107.1570233  58.6504378 120.7051965 106.2186234  58.8364061
 121.3476268 107.2354270  57.9170203 112.5758976 106.0266286  44.6931582
 113.5218080 105.8972494  44.7620000 112.1973221 105.2880948  45.1701010
 120.8870133 103.9481277  58.6962661 120.3709182 103.1639733  58.5092590
 121.7710082 103.6199993  58.8609180 118.5480860  97.6922292  54.6558474
 118.3505681  97.3837380  55.5401805 119.1580566  98.4183931  54.7856403
 126.5552195 108.2186240  57.7910414 127.2855583 107.9571528  58.3518118
 125.9459140 107.4814962  57.8312482 124.6367492 106.3594103  58.3884866
 123.9100655 106.2250068  57.7801357 124.2214779 106.6670931  59.1941584
 112.4597668 110.0784032  66.1532239 113.3800678 110.2562631  66.3472285
 112.4247251 109.1340078  66.0011938 110.7601893 103.9516263  44.6286467
 109.8533348 103.6549375  44.7049181 111.0377874 103.6546081  43.7620753
 101.6779833 105.2722626  55.0785513 101.3582617 104.4187934  54.7859887
 101.1313261 105.4871204  55.8343481 105.4559741 107.9885067  58.7955020
 105.6745750 108.9202175  58.8143054 105.8685514 107.6293041  59.5809824
 112.3763958  98.4953152  50.7830708 111.5664687  98.1500237  51.1585954
 113.0648375  98.1860696  51.3718320 114.3054507  97.5731199  52.4055005
 114.8585545  97.9926653  53.0645028 114.5424593  96.6466947  52.4477961
 109.5300677 100.8103198  44.7698446 110.3919841 101.1358096  45.0294263
 109.7151021 100.0234694  44.2571512 101.5468093 108.8925537  57.0478635
 100.8531565 108.4779490  56.5348589 102.2941084 108.9346074  56.4512054
 117.6833314  99.6831724  51.9133669 117.1031983 100.3416528  51.5311722
 117.4169246  98.8609069  51.5021087 116.1336880  99.0836782  54.1154989
 116.6336659  99.1953316  53.3069308 116.7772488  98.7797835  54.7555798
 110.1918876 106.9915412  67.0022830 109.7085958 107.7915772  67.2086719
 110.2779815 107.0023356  66.0490274 103.4604836 108.8243791  54.9244650
 103.4375524 108.9231479  53.9726533 103.7705472 109.6708942  55.2461816
 106.1192213 110.8819946  59.0391264 107.0735467 110.8503889  58.9721196
 105.9204737 110.4210570  59.8541490 106.7091596 109.4521062  61.6062062
 107.5284485 109.9465141  61.6296899 106.9828403 108.5353030  61.5779629
 116.4658192 101.8431815  50.9690017 115.5784047 102.1281465  50.7510212
 116.8812181 101.6825578  50.1217294 119.8172728 101.8678336  54.6844357
 120.5933118 102.3574788  54.9568973 119.0920862 102.2936390  55.1416226
 122.2545287 102.5805955  55.7418297 122.8489777 102.3401691  55.0311605
 122.3271870 101.8613085  56.3691834 104.4742442 116.4239566  56.0561462
 104.3396910 115.6639967  55.4899460 104.0574505 117.1480466  55.5890251
 115.6101405 111.6076489  45.0638037 116.3137255 111.8126492  45.6795693
 114.8864054 112.1753251  45.3287121 116.4399216 107.3586351  51.1840308
 116.3834417 107.8154902  50.3447940 116.9927558 106.5977035  51.0063150
 120.2504021 103.1476082  52.0090427 119.9940956 102.7472718  52.8398635
 119.6256890 103.8619876  51.8840566 124.5616359 105.8872156  54.5161718
 124.0015917 105.9565345  55.2893281 123.9559863 105.7113140  53.7961215
 107.6311568 117.3208883  56.2679905 107.5143952 118.2654315  56.1658595
 106.8104014 117.0182444  56.6565704 117.5188103 112.0459019  47.1136497
 118.3533707 111.6140217  46.9313972 117.3572446 111.8741032  48.0413392
 117.1733995 108.5491132  48.4792837 117.1182799 108.3835403  47.5381281
 116.5480050 109.2567165  48.6355026 114.4879902 110.8540044  67.8046400
 115.3571062 111.0280696  67.4433034 114.0086654 111.6734461  67.6822129
 110.4830120  98.0499241  48.0578155 110.4708790  98.9941081  48.2146426
 111.3753542  97.8669386  47.7637616 108.6566082 117.9737145  59.4835833
 109.5593329 118.0060755  59.8002328 108.4303452 117.0437596  59.4982169
 110.4119684 116.7268131  56.1445912 109.4615315 116.7269993  56.0310284
 110.7152170 115.9800866  55.6281946 114.2982240  94.6442017  52.3124092
 113.5314636  94.0900504  52.4580774 114.7092945  94.7163886  53.1738244
 126.1472378 122.5628670  57.2091674 126.7850788 122.4435417  56.5055014
 126.0293221 123.5109514  57.2679626 122.9562084 122.5156098  57.1453199
 122.6180596 122.3997162  56.2573734 123.8251852 122.1147263  57.1254205
 118.8148900 124.3691574  53.1350090 118.2513765 124.2781511  52.3666378
 118.7001295 123.5491479  53.6152582 123.4381867 123.6690949  63.1039404
 123.4270508 123.2743748  62.2319908 123.6002507 122.9357022  63.6973176
 116.3613332 125.8642766  55.9734310 117.1534624 125.5233590  55.5580610
 116.6009982 125.9737741  56.8936464 118.3204086 125.1251679  48.8451689
 119.0934962 124.5780666  48.7064565 118.6729485 125.9895928  49.0566150
 120.1589128 126.4528061  62.0518588 119.8678994 127.3573692  61.9365255
 120.7946113 126.4944589  62.7662658 121.0845335 123.8304910  58.6419948
 121.6808907 123.6060932  57.9276911 121.1420307 123.0889655  59.2445396
 120.6570363 121.2844345  46.4770139 120.9095884 120.7625866  45.7153602
 119.7194923 121.1210491  46.5796823 125.7013646 120.2880123  54.2844882
 126.4876736 119.8699547  53.9335299 125.9652351 121.1926216  54.4526531
 131.1022073 120.2255357  55.1877861 131.8347245 119.6554573  55.4215690
 130.3461429 119.8376957  55.6284366 120.3766652 123.1872451  48.6794514
 120.2602910 122.5117354  49.3475598 120.4868912 122.7004825  47.8626667
 122.7198193 122.6482598  52.3841203 122.3556400 122.1213219  53.0954125
 123.5765309 122.2581067  52.2107689 128.6247494 113.9376931  59.6472469
 128.2930819 114.8072342  59.4233684 128.0293107 113.6213215  60.3266500
 122.3603680 117.6772498  47.3802552 122.5278082 118.5452734  47.7473023
 122.1700849 117.8399780  46.4563841 118.5691495 122.5903274  55.0805086
 117.6441991 122.4579488  55.2882778 118.8175908 123.3697493  55.5775029
 128.5176157 118.6572017  56.7265819 127.6093034 118.5887425  56.4324580
 128.4663753 119.1343962  57.5547645 122.3392901 120.1330155  48.3649219
 122.2192526 120.5787206  49.2034699 121.6445489 120.4815473  47.8062757
 115.9300306 122.2336547  55.9148876 116.0592687 122.4871026  56.8288287
 115.2497757 122.8264255  55.5953531 122.5917023 120.0761663  64.6700717
 121.8150357 120.6355583  64.6603581 123.2307586 120.5618446  65.1915587
 130.3837803 116.8588455  58.5043693 129.7412184 117.1520989  57.8583488
 129.8792732 116.7441376  59.3096890 128.0377967 120.6051629  49.1929553
 128.9495823 120.8379015  49.0177250 127.5287614 121.1888673  48.6304631
 120.8463395 122.8847116  64.2318684 121.5878080 123.4232160  63.9553507
 120.1400381 123.5113405  64.3890235 126.3218735 125.0276256  62.8290845
 126.7302091 124.5858667  62.0845478 125.5995996 124.4528884  63.0825038
 122.6749805 119.9648863  60.2024402 123.5211000 120.3888277  60.3459051
 122.6148443 119.3082487  60.8962965 125.8249250 117.6253231  61.8605576
 125.5810182 118.3795292  61.3239851 126.1009181 118.0038579  62.6952823
 125.3813942 116.7809665  57.4419413 124.5198421 117.0790918  57.7336151
 125.4076377 116.9980063  56.5100446 122.1975511 125.3251855  53.8493219
 122.6613857 125.6039558  53.0597842 121.9332309 124.4235300  53.6666310
 119.0899592 124.8723337  56.7872982 119.6600949 125.3010605  56.1490467
 119.6807704 124.5905921  57.4857168 121.1344397 121.4475007  50.6582784
 121.8368441 121.8996051  51.1256711 120.8025026 120.8058826  51.2862677
 119.5824759 120.0386764  65.0333994 118.9523419 120.7203045  65.2669390
 119.4760847 119.9269846  64.0887132 114.8769731 119.7058560  55.9599918
 114.0868785 119.9616089  55.4840028 115.3680979 120.5206898  56.0651958
 116.8284477 120.0703139  52.9183395 116.0315640 120.1821834  53.4366890
 116.6010069 120.4089792  52.0524285 122.6590144 126.5947843  60.8665909
 122.7234577 127.0568250  61.7024081 121.9501068 125.9645208  60.9948219
 113.1607434 119.9589051  58.3914909 113.4115473 120.8436060  58.6572485
 113.6966983 119.7793652  57.6190000 118.8605502 114.3407530  67.3959245
 118.4672447 113.7873728  68.0706889 119.6771642 114.6518108  67.7865762
 115.8267559 125.7791388  51.3072815 116.3392080 126.5734638  51.4578379
 116.4790272 125.0817679  51.2406416 117.6362444 128.8957144  53.3895568
 117.8129072 129.8175109  53.2016552 118.4319278 128.5815564  53.8189948
 121.7773463 115.7565409  64.9879501 122.5183176 116.3572562  64.9083964
 122.0091385 115.0143047  64.4297544 116.9214801 120.9421776  63.2657731
 116.8068316 120.0407034  63.5664830 116.0659318 121.1885473  62.9142547
 118.7593760 130.4135318  59.3905910 119.3101185 130.2852382  58.6182904
 117.9205235 130.7130207  59.0400803 122.5560931 126.6786446  63.7350141
 123.0889267 125.9174734  63.5049449 122.0275012 126.3860098  64.4774296
 125.7230626 111.7846512  59.2643783 125.3794895 112.6748154  59.1882894
 126.0909588 111.5948170  58.4013368 113.7916476 124.1080042  52.0832385
 114.6291698 124.5177051  51.8666093 113.9694744 123.1679485  52.0532579
 125.6880908 121.7755123  47.7716218 125.1727532 122.5459728  48.0104605
 125.4158217 121.1020259  48.3949280 123.2728019 116.6204824  52.8301456
 122.4169616 116.2311674  52.6507095 123.6854971 116.6996785  51.9701242
 124.8027166 114.1551167  57.2293016 124.2991962 114.1181302  56.4160821
 125.0957773 115.0643910  57.2889673 121.0470052 114.2389897  56.2359198
 121.9123049 114.0432706  55.8765087 121.1147561 114.0100249  57.1628555
 125.4767211 119.6482215  49.5975999 125.1717347 119.9628364  50.4486142
 126.4297654 119.7263635  49.6403332 123.9213643 125.8072438  51.2468953
 123.3935005 125.0725198  50.9342191 123.4201146 126.5847115  51.0008922
 118.6532371 116.4692105  53.6075565 119.2276123 116.2467286  52.8748758
 119.2403353 116.5380799  54.3604166 127.7111948 122.3565832  54.4139941
 128.2243830 122.9895823  54.9161651 128.3613172 121.7567027  54.0483301
 118.9801958 118.4996566  47.6271450 118.1439270 118.8371252  47.9480725
 118.8406728 118.3645546  46.6898587 120.9555039 113.3433354  52.3350634
 120.3019451 113.0282371  51.7107249 120.9135513 112.7209094  53.0610457
 122.0666243 123.6252649  44.2503926 121.1593305 123.3941902  44.4495075
 122.5637275 122.8290268  44.4377908 124.1892779 119.8315287  56.6598282
 123.2715340 120.0530234  56.5019970 124.6052923 119.9061598  55.8009989
 124.9727827 121.2306703  51.7900962 125.7199646 121.7428100  51.4808084
 125.2419416 120.9090756  52.6505356 123.2454477 123.7265244  48.7727916
 122.3365696 123.4424276  48.8700386 123.2749561 124.1464322  47.9131223
 127.4206664 118.2663819  53.7719751 126.6829421 117.7541205  54.1029994
 127.6733437 117.8264201  52.9603028 127.5218291 111.0440071  54.3661521
 127.8277168 110.1837435  54.0787436 128.2470896 111.6357691  54.1660515
 113.8142647 121.4470758  52.7543119 113.6167047 120.8540118  52.0294185
 113.2589311 121.1422968  53.4719057 121.7939371 121.3393864  54.8737712
 121.8487981 120.3867701  54.7980188 120.9830573 121.4953303  55.3579010
 122.9430565 125.2673987  46.1115995 122.5049995 124.5509846  45.6521632
 123.6841006 125.4950102  45.5501086 119.7331731 119.9570924  52.6328091
 118.9199596 120.2565095  53.0393283 120.2290725 119.5626613  53.3502573
 125.3305943 120.4212748  61.4642984 125.6855330 120.6484222  62.3237450
 125.9778074 120.7531125  60.8420240 119.2245806 117.5289279  58.2489326
 119.8645185 117.3878039  57.5512289 118.3923336 117.2423793  57.8727928
 120.0006110 126.8291710  54.3624318 120.7946708 126.3342030  54.1606893
 119.2897802 126.3009573  53.9992024 116.3088873 120.9734792  50.4384071
 115.3786461 120.9119247  50.6554033 116.4046345 120.4510744  49.6420712
 116.2274422 117.4989604  53.0262312 116.4881239 118.4134938  52.9171473
 117.0491594 117.0314047  53.1758925 117.6999347 118.9127362  60.1961137
 118.3722401 118.7044724  59.5473786 116.8729134 118.7149448  59.7566369
 123.6024919 115.5389303  62.2126798 122.9552834 116.2379252  62.1191274
 124.3725935 115.9725446  62.5803046 123.7789054 123.3770067  60.2723617
 124.7081114 123.5281227  60.0992585 123.3580084 123.4654088  59.4172264
 122.5777386 127.4020732  58.0422155 122.4388471 127.0339516  58.9148093
 121.7891982 127.9168371  57.8706113 124.1282601 126.7802335  55.4310993
 123.7932433 126.7403105  56.3268643 123.6286546 126.1147050  54.9581403
 118.1026845 122.1869965  60.9563574 117.9646643 121.4550203  61.5575113
 119.0131768 122.0978865  60.6747762 127.0641792 124.1258369  45.7048053
 126.4470963 123.4005197  45.6081105 126.5958281 124.8867729  45.3615127
 120.7309145 121.8989924  60.4447254 121.4408764 121.2583116  60.4033872
 120.6878453 122.1502819  61.3673434 119.4438079 118.8855142  62.2642893
 118.9075436 118.4345880  62.9164489 118.8554788 119.0201051  61.5213357
 118.8540338 118.3443793  44.8269357 117.9769805 118.2232594  44.4631603
 119.3298091 117.5529872  44.5748245 110.3742478 123.1320953  54.9210864
 111.0613518 122.8182683  54.3331879 110.2190607 124.0362318  54.6478115
 115.1777201 118.0211150  59.3495888 115.0935389 117.4136819  58.6146298
 114.3559907 118.5120168  59.3505384 125.3500914 116.5064713  54.7166083
 125.8469614 115.7534675  54.3967153 124.5787896 116.5429030  54.1509292
 126.4330695 125.2636400  52.2904506 125.4986974 125.3837863  52.1209210
 126.6107364 124.3608867  52.0264516 121.9335883 118.6482096  54.4437767
 121.5633671 118.0953136  55.1318673 122.4294976 118.0440230  53.8912767
 129.8203246 121.1053720  52.8254540 130.2863699 121.9381711  52.7514843
 130.2710747 120.6398701  53.5299799 127.7919909 113.4734307  56.8645442
 126.8782989 113.7038533  57.0327648 128.2213011 113.5572751  57.7159474
 127.5626368 121.6624199  59.3645336 126.9097818 121.9100106  58.7097788
 127.9406748 120.8488337  59.0307813 123.6113941 122.4044010  65.8511373
 122.9354578 122.3038139  66.5213748 124.4341575 122.2483223  66.3147370
 115.3592800 128.6415946  58.4723888 115.9446237 127.8959634  58.6051792
 115.1617638 128.9519903  59.3560552 109.9510455 121.2121546  57.1928331
 109.9894554 120.6785137  57.9865449 109.4450747 120.6856752  56.5739308
 117.3301217 116.0586087  60.6890873 117.3942543 116.9200918  60.2768271
 117.2668337 115.4460088  59.9563232 116.8053489 118.1309219  64.3363908
 117.4325528 117.7486297  64.9501432 115.9481408 117.9123421  64.7019600
 113.5819032 119.9385648  50.2682262 113.8772473 119.0296327  50.2149316
 112.6807068 119.9173388  49.9463265 117.1113279 118.0141645  56.2509811
 116.3899865 118.6277613  56.1117284 117.9006535 118.5499410  56.1726457
 119.9139593 115.3496072  62.5250463 120.4373994 115.5958368  63.2876772
 119.6951926 116.1816106  62.1053600 115.3106874 117.6199746  50.3921588
 114.9819580 116.7397125  50.2096694 115.6646244 117.5647415  51.2797977
 118.4248697 117.9072716  50.7597065 118.7644769 118.4358637  50.0375674
 118.8720817 118.2453122  51.5355632 121.1192138 116.2909767  60.2100133
 120.7788958 115.4917580  60.6120813 120.4131144 116.5911477  59.6376967
 121.7708609 113.3759079  58.6627456 122.5934679 112.9019557  58.5406347
 122.0146673 114.1549563  59.1626143 120.4116844 116.4047338  48.9590358
 121.1325206 116.7828590  48.4554075 119.7882148 117.1236214  49.0625336
 124.5547967 117.1092486  49.8948690 124.7711581 117.9917124  49.5937519
 124.0742034 116.7178700  49.1654332 119.2947188 120.0678200  56.4719435
 119.1491769 120.3818503  57.3643716 118.8172392 120.6863100  55.9190334
 121.1543571 117.0580748  56.5200325 121.1405140 116.1621841  56.1832622
 121.8715999 117.0651411  57.1538611 123.0069702 117.4918088  58.5653452
 122.7487480 118.4135159  58.5637782 122.4754742 117.0948522  59.2553916
 113.7692850 122.6083544  59.4107096 113.2246318 123.3843352  59.5427370
 114.6472200 122.9554349  59.2526218 120.5580467 115.9395128  51.7887895
 120.6796378 115.0111774  51.9878782 120.2682509 115.9533814  50.8766210
 123.4271657 113.6250038  54.9254615 123.4493354 113.6889372  53.9706594
 123.8439716 112.7854547  55.1195121 114.5558872 121.7353440  62.3037253
 113.8140608 121.8836076  62.8901883 114.2351617 121.9961706  61.4404002
 115.0015486 129.6218869  54.3347648 115.8273506 129.3222641  53.9546291
 114.6509538 128.8526492  54.7837436 119.9697019 128.9745337  56.4045321
 119.3477028 128.3116042  56.1047549 120.6401886 129.0006469  55.7218969
 113.2024091 127.5405196  55.2936581 112.3655999 127.1127370  55.1120582
 113.1747736 127.7337639  56.2307372 120.0421547 117.4527125  65.9977827
 120.0909702 118.3289248  65.6155597 120.5844061 116.9104518  65.4249470
 119.5310526 127.5249261  49.8803782 119.6798646 128.2084725  49.2270455
 120.3376969 127.5054351  50.3953238 127.9378030 120.8291643  63.9071000
 128.8387892 120.6898108  63.6154997 128.0126004 120.9946098  64.8469177
 122.2720835 118.2058498  62.7524186 121.4024144 118.4992064  62.4806774
 122.5080315 118.7898943  63.4731450 117.2863159 123.5514438  50.8864851
 117.0409201 122.6476768  51.0845061 117.4559074 123.5531589  49.9444329
 124.9759869 114.4238115  60.2689606 125.4941813 115.1599142  59.9436095
 124.6215002 114.7302108  61.1036365 116.5558807 119.2842796  48.3851012
 115.8628051 119.3587151  47.7291048 116.3110558 118.5203140  48.9072529
 125.2272463 110.8438397  55.7890503 125.5074217 110.1761586  56.4150929
 126.0123070 111.0367493  55.2765167 129.0981321 119.2656031  59.5362078
 130.0498744 119.3654129  59.5574302 128.9284772 118.4734300  60.0460162
 127.1195701 116.3511614  59.7221479 126.5245633 116.6316627  59.0267968
 126.8345398 116.8405515  60.4938220 123.4152730 121.3558204  44.6931582
 124.3611835 121.2264412  44.7620000 123.0366975 120.6172866  45.1701010
 131.7263888 119.2773194  58.6962661 131.2102936 118.4931651  58.5092590
 132.6103836 118.9491911  58.8609180 129.3874615 113.0214210  54.6558474
 129.1899436 112.7129298  55.5401805 129.9974320 113.7475849  54.7856403
 123.2991423 125.4075950  66.1532239 124.2194432 125.5854549  66.3472285
 123.2641006 124.4631995  66.0011938 121.5995647 119.2808180  44.6286467
 120.6927103 118.9841293  44.7049181 121.8771628 118.9837998  43.7620753
 112.5173588 120.6014544  55.0785513 112.1976372 119.7479852  54.7859887
 111.9707016 120.8163122  55.8343481 116.2953495 123.3176985  58.7955020
 116.5139505 124.2494092  58.8143054 116.7079269 122.9584959  59.5809824
 123.2157713 113.8245070  50.7830708 122.4058441 113.4792155  51.1585954
 123.9042130 113.5152614  51.3718320 125.1448261 112.9023117  52.4055005
 125.6979300 113.3218570  53.0645028 125.3818348 111.9758865  52.4477961
 121.1681360 118.8910190  68.1857769 121.0678087 119.8404547  68.1169860
 120.9502902 118.5628429  67.3133839 120.3694432 116.1395115  44.7698446
 121.2313596 116.4650014  45.0294263 120.5544776 115.3526611  44.2571512
 112.3861848 124.2217455  57.0478635 111.6925319 123.8071408  56.5348589
 113.1334839 124.2637992  56.4512054 128.5227068 115.0123642  51.9133669
 127.9425737 115.6708446  51.5311722 128.2563001 114.1900987  51.5021087
 126.9730635 114.4128700  54.1154989 127.4730413 114.5245234  53.3069308
 127.6166243 114.1089752  54.7555798 121.0312630 122.3207329  67.0022830
 120.5479712 123.1207689  67.2086719 121.1173570 122.3315274  66.0490274
 114.2998590 124.1535709  54.9244650 114.2769278 124.2523396  53.9726533
 114.6099227 125.0000860  55.2461816 116.9585968 126.2111864  59.0391264
 117.9129222 126.1795806  58.9721196 116.7598492 125.7502488  59.8541490
 117.5485350 124.7812980  61.6062062 118.3678239 125.2757059  61.6296899
 117.8222158 123.8644948  61.5779629 127.3051946 117.1723732  50.9690017
 126.4177801 117.4573383  50.7510212 127.7205935 117.0117496  50.1217294
 130.6566482 117.1970253  54.6844357 131.4326873 117.6866706  54.9568973
 129.9314617 117.6228307  55.1416226 133.0939041 117.9097873  55.7418297
 133.6883532 117.6693608  55.0311605 133.1665625 117.1905003  56.3691834
 115.3136197 131.7531483  56.0561462 115.1790665 130.9931884  55.4899460
 114.8968259 132.4772383  55.5890251 127.2792970 122.6878268  51.1840308
 127.2228171 123.1446820  50.3447940 127.8321313 121.9268953  51.0063150
 131.0897776 118.4768000  52.0090427 130.8334710 118.0764636  52.8398635
 130.4650644 119.1911794  51.8840566 128.0127749 123.8783049  48.4792837
 127.9576553 123.7127321  47.5381281 127.3873805 124.5859082  48.6355026
 112.8020264 119.1151114  62.3054259 113.4479128 118.6050068  62.7941484
 112.5937415 119.8519796  62.8797684 121.3223875 113.3791159  48.0578155
 121.3102545 114.3232998  48.2146426 122.2147297 113.1961304  47.7637616
 125.1375994 109.9733935  52.3124092 124.3708390 109.4192422  52.4580774
 125.5486699 110.0455804  53.1738244 117.1417755 116.2618731  66.4029273
 118.0049217 115.9055536  66.6132598 116.5683166 115.9232626  67.0904677
  50.2716098  -7.7352632  43.9336981  50.9094508  -7.8545884  43.2300321
  50.1536941  -6.7871788  43.9924933  47.0805804  -7.7825203  43.8698506
  46.7424315  -7.8984139  42.9819040  47.9495572  -8.1834038  43.8499512
  47.5625587  -6.6290352  49.8284711  47.5514228  -7.0237553  48.9565215
  47.7246226  -7.3624279  50.4218482  40.4857052  -4.4338535  42.6979617
  41.2778343  -4.7747711  42.2825916  40.7253702  -4.3243560  43.6181770
  48.5192178  -2.2618759  35.1709861  47.8680158  -1.6764679  34.7843875
  49.3136541  -1.7312564  35.2304899  44.2832848  -3.8453240  48.7763895
  43.9922714  -2.9407609  48.6610561  44.9189832  -3.8036712  49.4907965
  45.2089055  -6.4676391  45.3665255  45.8052627  -6.6920369  44.6522218
  45.2664026  -7.2091646  45.9690703  46.8441913  -7.6498703  39.1086510
  46.4800120  -8.1768082  39.8199431  47.7009029  -8.0400234  38.9352995
  49.2422733  -4.1591824  45.7713689  48.9423456  -3.2566786  45.6629496
  48.8973793  -4.4259641  46.6234842  42.6935215  -7.7078028  41.8050393
  41.7685711  -7.8401813  42.0128085  42.9419628  -6.9283808  42.3020336
  44.2243513   2.6052496  38.7384656  44.1467543   3.5560321  38.8173137
  43.6205157   2.2598368  39.3959583  46.7160743 -10.2219639  51.3946023
  45.9394077  -9.6625718  51.3848888  47.3551306  -9.7362856  51.9160893
  44.9707115  -7.4134185  50.9563990  45.7121799  -6.8749141  50.6798814
  44.2644100  -6.7867896  51.1135542  50.4462455  -5.2705045  49.5536152
  50.8545811  -5.7122634  48.8090784  49.7239716  -5.8452417  49.8070345
  46.7993525 -10.3332438  46.9269709  47.6454720  -9.9093024  47.0704358
  46.7392162 -10.9898814  47.6208272  50.7691269  -4.7103854  43.3088441
  50.1400132  -4.5458140  42.6064509  50.3816931  -4.2962245  44.0799405
  54.6480501  -3.7749416  40.6632804  53.9631539  -3.3950515  40.1129838
  54.7324350  -3.1654090  41.3964752  51.9031433  -6.1289457  47.2628148
  52.1148328  -5.4857697  46.5862529  51.8561181  -6.9627141  46.7950078
  46.3219231  -4.9729446  40.5738526  46.7857577  -4.6941743  39.7843148
  46.0576029  -5.8746001  40.3911616  43.2143312  -5.4257965  43.5118289
  43.7844669  -4.9970696  42.8735774  43.8051424  -5.7075380  44.2102475
  53.0177261  -3.2517502  45.4350505  53.8394704  -3.6537315  45.1533187
  53.0139664  -3.3549268  46.3866621  46.7833864  -3.7033459  47.5911216
  46.8478297  -3.2413051  48.4269388  46.0744788  -4.3336094  47.7193526
  46.4981882  -2.0365351  37.4590196  46.3627557  -1.1913815  37.8875044
  47.0391694  -1.8346073  36.6956130  41.7606164  -1.4024157  40.1140874
  41.9372792  -0.4806192  39.9261858  42.5562997  -1.7165738  40.5435254
  48.1250358  -1.4141785  51.5890538  47.6814212  -2.2005406  51.2711443
  48.7867572  -1.2262634  50.9234429  42.8837479   0.1154017  46.1151217
  43.4344905  -0.0128920  45.3428211  42.0448955   0.4148906  45.7646110
  50.2231596  -1.1338985  49.6171939  50.2050072  -0.3130104  49.1252209
  51.1451516  -1.2584909  49.8422081  46.6804650  -3.6194855  50.4595448
  47.2132987  -4.3806567  50.2294756  46.1518732  -3.9121203  51.2019602
  54.7858902  -5.7693823  36.4314698  54.0088345  -6.1082664  35.9869860
  55.4650383  -5.7641200  35.7569663  48.0457363  -4.4908863  37.9714260
  47.5178725  -5.2256103  37.6587497  47.5444866  -3.7134186  37.7254228
  53.0250209  -6.2959842  43.0881306  52.3673884  -5.6060581  43.1761435
  53.8290608  -5.9063410  43.4315293  51.8355668  -7.9415469  41.1385248
  52.3487550  -7.3085478  41.6406958  52.4856892  -8.5414274  40.7728608
  49.0978042   2.0368855  33.8945919  48.4239741   2.3400552  34.5030877
  49.4843864   2.8397935  33.5451376  48.3136499 -10.4666014  43.3843588
  47.3959060 -10.2451067  43.2265277  48.7296642 -10.3919703  42.5255296
  49.0971547  -9.0674598  38.5146269  49.8443366  -8.5553201  38.2053391
  49.3663136  -9.3890546  39.3750662  52.6017464  -2.9609468  39.2664391
  52.1479791  -3.8018558  39.3229581  51.9711431  -2.3248070  39.6039171
  51.0450403  -1.1232971  40.2014209  51.3373378  -0.5627914  39.4826574
  51.5549024  -0.8304410  40.9567368  45.9183091  -8.9587437  41.5983018
  45.9731701  -9.9113601  41.5225495  45.1074293  -8.8027998  42.0824317
  46.0084029  -0.3452620  41.2907662  45.9660207  -0.1191774  40.3616194
  46.9246727  -0.5789246  41.4393463  49.4549662  -9.8768553  48.1888291
  49.8099050  -9.6497080  49.0482757  50.1021794  -9.5450176  47.5665546
  55.1847399  -6.7550117  38.8937620  55.0465298  -6.5648521  37.9658809
  54.8283618  -5.9930734  39.3505671  55.2116779  -4.6873590  43.9048892
  55.6453286  -4.7798301  44.7531946  55.9248360  -4.7116089  43.2668908
  44.1249829  -3.4689591  41.0869625  44.9190428  -3.9639271  40.8852200
  43.4141522  -3.9971728  40.7237330  48.9444674  -1.0871496  45.4381992
  48.9981696  -0.5180559  46.2059708  48.0759455  -0.9169611  45.0736029
  56.0732329  -4.6449889  46.4381777  56.2668219  -3.7404079  46.6841052
  55.9732947  -5.1042470  47.2720362  51.1347437  -4.4943146  52.0122658
  50.9832944  -4.7232595  51.0952741  51.1252117  -3.5372545  52.0254003
  47.9032774  -6.9211234  46.9968924  48.8324834  -6.7700074  46.8237891
  47.4823804  -6.8327213  46.1417571  46.7021105  -2.8960569  44.7667462
  46.5632191  -3.2641785  45.6393400  45.9135702  -2.3812930  44.5951420
  47.2969257   2.2048527  36.1092998  47.4721013   1.7336570  36.9238621
  46.6102045   2.8314293  36.3374259  48.2526321  -3.5178967  42.1556299
  47.9176153  -3.5578197  43.0513949  47.7530266  -4.1834251  41.6826710
  42.2270564  -8.1111337  47.6808881  42.0890362  -8.8431098  48.2820420
  43.1375488  -8.2002436  47.3993068  44.8552865  -8.3991377  47.1692560
  45.5652484  -9.0398185  47.1279179  44.8122173  -8.1478482  48.0918741
  52.8439644  -1.4624024  50.0899140  52.7852190  -2.1464804  49.4229723
  53.2459162  -0.7205034  49.6379766  41.8630343   5.3537890  42.8832858
  42.1026941   5.9856414  43.5611877  41.0199539   5.0025930  43.1698218
  52.8457051  -3.4984440  48.3213119  51.9583830  -3.8358518  48.4439518
  53.4155602  -4.2301409  48.5581885  46.3758205   1.1617012  45.2874362
  46.3028376   1.9671984  45.7993667  45.9335598   1.3608978  44.4622384
  46.1647984   0.3988782  38.7977184  45.3815506   0.9410463  38.8915408
  46.8640729   0.9162762  39.1971425  48.8356888   1.0603846  47.4432521
  49.5484860   1.6951311  47.3708423  48.3446917   1.1567712  46.6272523
  50.5574415  -5.0344901  39.0149813  49.6230694  -4.9143438  38.8454517
  50.7351083  -5.9372434  38.7509823  43.8868802  -1.1901710  48.2638092
  44.5878261  -0.5565227  48.4167486  43.4163917  -0.8486979  47.5033731
  52.0123197  -2.8483760  36.5485999  52.2883041  -2.9627166  37.4579873
  51.1427696  -3.2466275  36.5098172  51.6870088  -8.6357103  46.0890642
  51.0341538  -8.3881195  45.4343095  52.0650467  -9.4492964  45.7553120
  48.6477261   1.4002591  40.1918813  48.8299656   0.5824246  40.6546565
  49.4710247   1.6170283  39.7543703  48.9819427   0.3270776  37.4533861
  49.5107193  -0.1836770  36.8404023  49.2447646   0.0113306  38.3179394
  47.7357661  -7.8937292  52.5756679  47.0598298  -7.9943162  53.2459055
  48.5585294  -8.0498078  53.0392677  39.4836520  -1.6565355  45.1969195
  40.0689956  -2.4021667  45.3297099  39.2861358  -1.3461398  46.0805858
  42.3375175   1.3785892  40.2131637  41.6685550   1.8632020  39.7295677
  42.1988045   1.6255113  41.1275015  46.4780443   3.4129636  46.8114295
  47.0298751   3.5761257  47.5763381  46.8186637   4.0034074  46.1394320
  51.3291318  -1.7609107  52.6662950  51.8731222  -1.1479148  52.1717905
  50.7478163  -1.2029528  53.1829963  49.6148831   1.3611611  43.7977977
  49.4899970   0.5601351  43.2888923  50.2727922   1.8557805  43.3091947
  51.6783739  -0.8379369  45.4257528  50.7314075  -0.9574017  45.3535854
  52.0266512  -1.7256870  45.5083789  48.6830172  -1.0426652  41.6261880
  48.5355135  -1.9709945  41.8069450  49.5083666  -1.0206562  41.1418955
  52.2864294  -0.2198094  42.7126753  53.2110842  -0.4255232  42.5751204
  52.1179598  -0.4681692  43.6216094  52.0759610   0.2987574  38.0688844
  52.2496488  -0.2666004  37.3162696  52.5688502   1.0988469  37.8868334
  53.0634783  -0.3845662  35.1685742  53.7585688   0.2361031  35.3873057
  53.4057933  -1.2350310  35.4438120  54.9626206  -2.9345956  36.6973073
  55.4877530  -2.5958683  35.9722393  54.8748559  -3.8698941  36.5136208
  46.6246255   0.9788117  48.8262950  46.9333381   0.7337264  49.6985649
  47.4221737   1.1834756  48.3381820  46.6466867   3.1326027  41.0568326
  46.2071857   2.6402406  41.7501183  47.3974984   2.5898995  40.8160401
  39.1259206  -0.6762432  41.0592954  39.9517226  -0.9758660  40.6791598
  38.7753258  -1.4454810  41.5082743  44.0940739  -1.3235964  43.1290628
  43.4720748  -1.9865259  42.8292856  44.7645606  -1.2974832  42.4464276
  37.3267811  -2.7576106  42.0181888  36.4899719  -3.1853931  41.8365889
  37.2991456  -2.5643662  42.9552679  54.6520112  -2.3013053  52.0024271
  53.8615656  -2.3188914  51.4628770  54.4153467  -1.7624759  52.7573308
  54.7717987  -5.4520586  49.3157000  54.8215992  -5.6170579  50.2572522
  54.6631911  -6.3193327  48.9254880  56.2736184  -3.0323645  49.5599021
  55.9820992  -2.6693664  50.3962482  55.6608315  -3.7456636  49.3812353
  57.4731866  -5.4670765  42.0801591  58.3078758  -5.0280961  42.2439152
  57.6090995  -5.9432112  41.2609837  54.5223372  -7.9091030  48.0279079
  54.9977494  -7.7163384  47.2197930  53.5988938  -7.8531844  47.7822463
  50.3746911   0.0053240  35.2069418  51.3077584  -0.0601198  35.4102294
  50.2870124   0.8409507  34.7483951  53.0034928  -0.6780890  32.1673366
  52.9248559  -1.0121026  33.0609124  53.8244595  -0.1859122  32.1664838
  47.4235142  -4.8905351  52.8777545  48.3438152  -4.7126752  53.0717592
  47.3884725  -5.8349306  52.7257245  40.4197215  -6.9804316  45.5200327
  40.6383225  -6.0487209  45.5388360  40.8322989  -7.3396342  46.3055130
  45.1556350  -7.9773972  53.7268137  44.6723432  -7.1773612  53.9332026
  45.2417289  -7.9666027  52.7735581  41.0829688  -4.0869437  45.7636571
  42.0372941  -4.1185495  45.6966502  40.8842211  -4.5478813  46.5786797
  41.6729070  -5.5168321  48.3307369  42.4921959  -5.0224242  48.3542206
  41.9465878  -6.4336353  48.3024936  39.4379917   1.4550182  42.7806769
  39.3034385   0.6950583  42.2144767  39.0211979   2.1791082  42.3135558
  51.4036690  -7.6103033  37.9085614  51.3471891  -7.1534481  37.0693247
  51.9565032  -8.3712348  37.7308457  42.5949042   2.3519499  42.9925211
  42.4781427   3.2964932  42.8903902  41.7741489   2.0493061  43.3811011
  52.4825577  -2.9230365  33.8381804  53.3171181  -3.3549166  33.6559279
  52.3209920  -3.0948351  34.7658699  49.4517376  -4.1149340  54.5291706
  50.3208536  -3.9408687  54.1678341  48.9724128  -3.2954923  54.4067436
  43.6203557   3.0047761  46.2081140  44.5230803   3.0371371  46.5247635
  43.3940927   2.0748212  46.2227476  45.3757159   1.7578748  42.8691218
  44.4252790   1.7580609  42.7555591  45.6789645   1.0111482  42.3527253
  61.1109852   7.5939286  43.9336981  61.7488262   7.4746034  43.2300321
  60.9930695   8.5420130  43.9924933  57.9199558   7.5466714  43.8698506
  57.5818070   7.4307779  42.9819040  58.7889327   7.1457879  43.8499512
  53.7786374   9.4002191  39.8595396  53.2151239   9.3092128  39.0911684
  53.6638769   8.5802095  40.3397889  58.4019341   8.7001566  49.8284711
  58.3907982   8.3054364  48.9565215  58.5639981   7.9667639  50.4218482
  51.3250806  10.8953382  42.6979617  52.1172098  10.5544207  42.2825916
  51.5647456  11.0048357  43.6181770  59.3585933  13.0673158  35.1709861
  58.7073913  13.6527239  34.7843875  60.1530296  13.5979353  35.2304899
  53.2841560  10.1562296  35.5696996  54.0572436   9.6091283  35.4309872
  53.6366959  11.0206545  35.7811457  55.1226603  11.4838678  48.7763895
  54.8316468  12.3884309  48.6610561  55.7583587  11.5255205  49.4907965
  56.0482809   8.8615526  45.3665255  56.6446382   8.6371549  44.6522218
  56.1057781   8.1200272  45.9690703  55.6207838   6.3154962  33.2015446
  55.8733358   5.7936483  32.4398909  54.6832397   6.1521107  33.3042129
  60.6651121   5.3190740  41.0090189  61.4514210   4.9010163  40.6580606
  60.9289825   6.2236832  41.1771837  60.8361198  10.7563590  35.7078846
  60.2007031  10.8298217  36.4199750  60.5058604  11.3457189  35.0297925
  66.0659548   5.2565973  41.9123167  66.7984720   4.6865190  42.1460997
  65.3098903   4.8687574  42.3529673  55.3404127   8.2183068  35.4039821
  55.2240385   7.5427971  36.0720905  55.4506386   7.7315442  34.5871974
  57.6835667   7.6793215  39.1086510  57.3193875   7.1523836  39.8199431
  58.5402783   7.2891684  38.9352995  63.5884968  -1.0312453  46.3717776
  63.2568293  -0.1617042  46.1478991  62.9930581  -1.3476169  47.0511806
  57.3241154   2.7083114  34.1047858  57.4915557   3.5763351  34.4718329
  57.1338323   2.8710396  33.1809148  60.0816488  11.1700093  45.7713689
  59.7817211  12.0725132  45.6629496  59.7367547  10.9032277  46.6234842
  53.5328969   7.6213890  41.8050393  52.6079466   7.4890104  42.0128085
  53.7813382   8.4008109  42.3020336  63.4813631   3.6882634  43.4511126
  62.5730509   3.6198042  43.1569887  63.4301227   4.1654578  44.2792952
  57.3030375   5.1640772  35.0894525  57.1830000   5.6097823  35.9280005
  56.6082964   5.5126090  34.5308063  50.8937780   7.2647164  42.6394182
  51.0230161   7.5181643  43.5533594  50.2135231   7.8574872  42.3198837
  55.0637267  17.9344414  38.7384656  54.9861297  18.8852239  38.8173137
  54.4598911  17.5890286  39.3959583  57.5554497   5.1072279  51.3946023
  56.7787831   5.6666199  51.3848888  58.1945060   5.5929062  51.9160893
  65.3475278   1.8899072  45.2289000  64.7049658   2.1831605  44.5828795
  64.8430206   1.7751992  46.0342197  63.0015441   5.6362245  35.9174859
  63.9133298   5.8689632  35.7422557  62.4925089   6.2199289  35.3549938
  55.8100869   7.9157732  50.9563990  56.5515554   8.4542776  50.6798814
  55.1037855   8.5424021  51.1135542  61.2856209  10.0586873  49.5536152
  61.6939565   9.6169283  48.8090784  60.5633471   9.4839500  49.8070345
  57.6387279   4.9959480  46.9269709  58.4848474   5.4198893  47.0704358
  57.5785917   4.3393104  47.6208272  61.6085024  10.6188064  43.3088441
  60.9793886  10.7833778  42.6064509  61.2210686  11.0329673  44.0799405
  65.4874256  11.5542501  40.6632804  64.8025294  11.9341403  40.1129838
  65.5718105  12.1637828  41.3964752  60.7886725   2.6563848  48.5850882
  60.5447656   3.4105909  48.0485158  61.0646655   3.0349196  49.4198129
  62.7425187   9.2002460  47.2628148  62.9542083   9.8434220  46.5862529
  62.6954936   8.3664777  46.7950078  60.3451416   1.8120281  44.1664720
  59.4835895   2.1101535  44.4581458  60.3713851   2.0290680  43.2345753
  57.1612986  10.3562472  40.5738526  57.6251331  10.6350175  39.7843148
  56.8969784   9.4545916  40.3911616  54.0537067   9.9033953  43.5118289
  54.6238424  10.3321222  42.8735774  54.6445179   9.6216538  44.2102475
  56.0981872   6.4785624  37.3828091  56.8005915   6.9306668  37.8502017
  55.7662500   5.8369443  38.0107984  54.5462233   5.0697381  51.7579300
  53.9160894   5.7513661  51.9914697  54.4398321   4.9580462  50.8132439
  49.8407206   4.7369177  42.6845224  49.0506260   4.9926705  42.2085335
  50.3318453   5.5517515  42.7897265  63.8571015  12.0774416  45.4350505
  64.6788459  11.6754603  45.1533187  63.8533418  11.9742650  46.3866621
  51.7921951   5.1013756  39.6428701  50.9953114   5.2132450  40.1612197
  51.5647543   5.4400408  38.7769592  57.6227619  11.6258459  47.5911216
  57.6872051  12.0878866  48.4269388  56.9138543  10.9955824  47.7193526
  48.1244909   4.9899667  45.1160215  48.3752947   5.8746677  45.3817791
  48.6604457   4.8104269  44.3435307  71.9477008   8.4213164  41.7835477
  71.1940717   7.8520562  41.6279481  72.0824549   8.3875829  42.7306111
  57.3375636  13.2926567  37.4590196  57.2021311  14.1378102  37.8875044
  57.8785449  13.4945844  36.6956130  53.8242976  -0.6281854  54.1204551
  53.4309922  -1.1815655  54.7952196  54.6409116  -0.3171275  54.5111069
  50.7905034  10.8102005  38.0318121  51.3029554  11.6045255  38.1823686
  51.4427747  10.1128295  37.9651723  52.5999918  13.9267761  40.1140874
  52.7766547  14.8485726  39.9261858  53.3956752  13.6126180  40.5435254
  56.7410937   0.7876026  51.7124808  57.4820650   1.3883179  51.6329270
  56.9728860   0.0453663  51.1542850  51.8852275   5.9732393  49.9903038
  51.7705790   5.0717650  50.2910137  51.0296793   6.2196090  49.6387854
  58.9644113  13.9150133  51.5890538  58.5207967  13.1286512  51.2711443
  59.6261326  14.1029284  50.9234429  53.7231234  15.4445935  46.1151217
  54.2738659  15.3162998  45.3428211  52.8842710  15.7440824  45.7646110
  61.0625351  14.1952933  49.6171939  61.0443826  15.0161814  49.1252209
  61.9845271  14.0707008  49.8422081  57.5198405  11.7097063  50.4595448
  58.0526742  10.9485351  50.2294756  56.9912486  11.4170714  51.2019602
  60.6868100  -3.1842872  45.9889090  60.3432369  -2.2941230  45.9128200
  61.0547062  -3.3741214  45.1258675  48.7553950   9.1390659  38.8077692
  49.5929172   9.5487667  38.5911399  48.9332218   8.1990101  38.7777886
  60.6518383   6.8065740  34.4961525  60.1365006   7.5770344  34.7349912
  60.3795691   6.1330876  35.1194586  58.2365494   1.6515440  39.5546763
  57.3807090   1.2622291  39.3752402  58.6492445   1.7307401  38.6946549
  59.7664640  -0.8138216  43.9538323  59.2629436  -0.8508081  43.1406128
  60.0595247   0.0954526  44.0134980  56.0107526  -0.7299487  42.9604505
  56.8760523  -0.9256678  42.6010394  56.0785035  -0.9589135  43.8873861
  65.6252657   9.5598094  36.4314698  64.8482100   9.2209254  35.9869860
  66.3044138   9.5650717  35.7569663  60.4404686   4.6792832  36.3221306
  60.1354821   4.9938981  37.1731449  61.3935128   4.7574252  36.3648639
  58.8851118  10.8383055  37.9714260  58.3572479  10.1035815  37.6587497
  58.3838620  11.6157731  37.7254228  63.8643964   9.0332076  43.0881306
  63.2067638   9.7231337  43.1761435  64.6684363   9.4228507  43.4315293
  53.6169845   1.5002721  40.3320871  54.1913597   1.2777903  39.5994064
  54.2040828   1.5691416  41.0849473  62.6749422   7.3876448  41.1385248
  63.1881304   8.0206440  41.6406958  63.3250646   6.7877644  40.7728608
  53.9439432   3.5307182  34.3516757  53.1076745   3.8681869  34.6726031
  53.8044202   3.3956162  33.4143894  55.9192513  -1.6256030  39.0595941
  55.2656925  -1.9407013  38.4352556  55.8772987  -2.2480289  39.7855764
  57.0303718   8.6563265  30.9749233  56.1230780   8.4252519  31.1740382
  57.5274750   7.8600885  31.1623214  59.9371797  17.3660772  33.8945919
  59.2633495  17.6692469  34.5030877  60.3237619  18.1689853  33.5451376
  59.1530253   4.8625904  43.3843588  58.2352815   5.0840851  43.2265277
  59.5690397   4.9372214  42.5255296  59.9365301   6.2617319  38.5146269
  60.6837120   6.7738717  38.2053391  60.2056891   5.9401372  39.3750662
  58.2091951   8.7575860  35.4973223  57.3003171   8.4734893  35.5945693
  58.2387035   9.1774939  34.6376530  63.4411219  12.3682450  39.2664391
  62.9873546  11.5273360  39.3229581  62.8105185  13.0043848  39.6039171
  62.3844138   3.2974436  40.4965058  61.6466895   2.7851822  40.8275301
  62.6370912   2.8574817  39.6848335  61.8844158  14.2058946  40.2014209
  62.1767132  14.7664003  39.4826574  62.3942778  14.4987507  40.9567368
  62.4855766  -3.9249312  41.0906827  62.7914642  -4.7851949  40.8032742
  63.2108370  -3.3331692  40.8905821  48.7780122   6.4781374  39.4788425
  48.5804521   5.8850735  38.7539492  48.2226786   6.1733584  40.1964364
  56.7576845   6.3704481  41.5983018  56.8125455   5.4178317  41.5225495
  55.9468047   6.5263920  42.0824317  57.9068039  10.2984604  32.8361302
  57.4687469   9.5820463  32.3766939  58.6478480  10.5260719  32.2746393
  54.6969205   4.9881540  39.3573397  53.8837071   5.2875711  39.7638589
  55.1928199   4.5937229  40.0747879  56.8477783  14.9839297  41.2907662
  56.8053962  15.2100144  40.3616194  57.7640482  14.7502672  41.4393463
  60.2943417   5.4523365  48.1888291  60.6492805   5.6794838  49.0482757
  60.9415548   5.7841742  47.5665546  66.0241154   8.5741801  38.8937620
  65.8859052   8.7643397  37.9658809  65.6677373   9.3361184  39.3505671
  54.1883280   2.5599896  44.9734632  54.8282659   2.4188655  44.2757595
  53.3560811   2.2734409  44.5973234  66.0510533  10.6418328  43.9048892
  66.4847040  10.5493617  44.7531946  66.7642114  10.6175828  43.2668908
  54.9643584  11.8602326  41.0869625  55.7584182  11.3652647  40.8852200
  54.2535276  11.3320190  40.7237330  59.7838428  14.2420422  45.4381992
  59.8375451  14.8111358  46.2059708  58.9153210  14.4122307  45.0736029
  51.2726347   6.0045408  37.1629377  50.3423935   5.9429864  37.3799339
  51.3683819   5.4821361  36.3666019  51.1911896   2.5300221  39.7507619
  51.4518714   3.4445554  39.6416779  52.0129069   2.0624664  39.9004232
  52.6636822   3.9437978  46.9206443  53.3359875   3.7355340  46.2719092
  51.8366608   3.7460064  46.4811676  66.9126083  10.6842029  46.4381777
  67.1061973  11.5887839  46.6841052  66.8126701  10.2249448  47.2720362
  58.5662394   0.5699919  48.9372104  57.9190309   1.2689869  48.8436581
  59.3363409   1.0036063  49.3048353  61.9741192  10.8348771  52.0122658
  61.8226698  10.6059323  51.0952741  61.9645871  11.7919373  52.0254003
  58.7426528   8.4080684  46.9968924  59.6718588   8.5591844  46.8237891
  58.3217558   8.4964705  46.1417571  57.5414860  12.4331348  44.7667462
  57.4025946  12.0650133  45.6393400  56.7529456  12.9478988  44.5951420
  58.1363012  17.5340445  36.1092998  58.3114768  17.0628488  36.9238621
  57.4495800  18.1606211  36.3374259  59.0920075  11.8112951  42.1556299
  58.7569908  11.7713721  43.0513949  58.5924021  11.1457667  41.6826710
  53.0664319   7.2180581  47.6808881  52.9284117   6.4860820  48.2820420
  53.9769242   7.1289481  47.3993068  62.0279267   9.1568985  32.4293359
  61.4108437   8.4315814  32.3326412  61.5595755   9.9178346  32.0860433
  55.6946620   6.9300540  47.1692560  56.4046238   6.2893733  47.1279179
  55.6515928   7.1813435  48.0918741  63.6833398  13.8667894  50.0899140
  63.6245944  13.1827114  49.4229723  64.0852917  14.6086884  49.6379766
  54.4075554   3.9165758  48.9888200  53.8712911   3.4656497  49.6409796
  53.8192262   4.0511667  48.2458664  52.7024097  20.6829808  42.8832858
  52.9420695  21.3148332  43.5611877  51.8593294  20.3317848  43.1698218
  53.8177813   3.3754410  31.5514663  52.9407279   3.2543211  31.1876910
  54.2935566   2.5840488  31.2993552  63.6850806  11.8307478  48.3213119
  62.7977584  11.4933400  48.4439518  64.2549357  11.0990509  48.5581885
  45.3379953   8.1631569  41.6456171  46.0250993   7.8493300  41.0577186
  45.1828081   9.0672934  41.3723422  50.1414675   3.0521766  46.0741194
  50.0572864   2.4447436  45.3391604  49.3197381   3.5430784  46.0750691
  57.2151959  16.4908930  45.2874362  57.1422130  17.2963902  45.7993667
  56.7729352  16.6900896  44.4622384  57.0041739  15.7280700  38.7977184
  56.2209260  16.2702380  38.8915408  57.7034484  16.2454680  39.1971425
  60.3138389   1.5375330  41.4411389  60.8107088   0.7845292  41.1212460
  59.5425370   1.5739646  40.8754599  68.1668146   7.2415695  43.0829681
  68.1558022   8.1240411  42.7123614  67.2985526   6.8887246  42.8884218
  59.6750643  16.3895764  47.4432521  60.3878615  17.0243229  47.3708423
  59.1840671  16.4859630  46.6272523  61.3968169  10.2947017  39.0149813
  60.4624448  10.4148479  38.8454517  61.5744838   9.3919484  38.7509823
  56.8973357   3.6792713  41.1683074  56.5271145   3.1263753  41.8563980
  57.3932450   3.0750846  40.6158074  64.7840721   6.1364336  39.5499847
  65.2501173   6.9692328  39.4760150  65.2348221   5.6709318  40.2545105
  54.7262556  14.1390208  48.2638092  55.4272016  14.7726691  48.4167486
  54.2557671  14.4804939  47.5033731  62.8516952  12.4808157  36.5485999
  63.1276796  12.3664752  37.4579873  61.9821451  12.0825642  36.5098172
  62.7557384  -1.4955077  43.5890748  61.8420463  -1.2650850  43.7572955
  63.1850485  -1.4116633  44.4404781  62.5263842   6.6934815  46.0890642
  61.8735292   6.9410722  45.4343095  62.9044222   5.8798953  45.7553120
  59.4871016  16.7294508  40.1918813  59.6693410  15.9116164  40.6546565
  60.3104002  16.9462200  39.7543703  59.8213181  15.6562693  37.4533861
  60.3500948  15.1455148  36.8404023  60.0841401  15.3405224  38.3179394
  58.5751415   7.4354626  52.5756679  57.8992052   7.3348755  53.2459055
  59.3979049   7.2793840  53.0392677  50.3230274  13.6726563  45.1969195
  50.9083711  12.9270251  45.3297099  50.1255113  13.9830519  46.0805858
  53.1768929  16.7077810  40.2131637  52.5079305  17.1923938  39.7295677
  53.0381799  16.9547030  41.1275015  44.9147929   6.2432163  43.9173638
  44.9532028   5.7095754  44.7110756  44.4088222   5.7167368  43.2984615
  57.3174198  18.7421554  46.8114295  57.8692506  18.9053175  47.5763381
  57.6580391  19.3325991  46.1394320  52.2938691   1.0896703  47.4136180
  52.3580018   1.9511534  47.0013578  52.2305811   0.4770705  46.6808539
  51.7690964   3.1619836  51.0609214  52.3963002   2.7796913  51.6746739
  50.9118883   2.9434038  51.4264907  62.1685072  13.5682811  52.6662950
  62.7124976  14.1812769  52.1717905  61.5871917  14.1262389  53.1829963
  48.5456506   4.9696265  36.9927569  48.8409947   4.0606943  36.9394623
  47.6444542   4.9484004  36.6708571  60.4542585  16.6903529  43.7977977
  60.3293725  15.8893269  43.2888923  61.1121676  17.1849722  43.3091947
  52.0750753   3.0452262  42.9755118  51.3537339   3.6588229  42.8362591
  52.8644009   3.5810026  42.8971764  62.5177494  14.4912549  45.4257528
  61.5707829  14.3717900  45.3535854  62.8660267  13.6035047  45.5083789
  54.8777067   0.3806688  49.2495769  55.4011469   0.6268985  50.0122079
  54.6589400   1.2126723  48.8298907  50.2744348   2.6510363  37.1166894
  49.9457054   1.7707742  36.9342000  50.6283719   2.5958031  38.0043283
  59.5223927  14.2865265  41.6261880  59.3748889  13.3581973  41.8069450
  60.3477420  14.3085356  41.1418955  53.3886171   2.9383332  37.4842372
  53.7282244   3.4669254  36.7620980  53.8358292   3.2763739  38.2600938
  63.1258049  15.1093824  42.7126753  64.0504596  14.9036685  42.5751204
  62.9573352  14.8610225  43.6216094  56.0829612   1.3220383  46.9345440
  55.7426432   0.5228196  47.3366120  55.3768618   1.6222094  46.3622273
  56.7346084  -1.5930304  45.3872763  57.5572153  -2.0669826  45.2651653
  56.9784147  -0.8139821  45.8871449  55.3754318   1.4357954  35.6835665
  56.0962681   1.8139207  35.1799382  54.7519622   2.1546831  35.7870643
  59.5185441   2.1403103  36.6193997  59.7349056   3.0227741  36.3182825
  59.0379508   1.7489316  35.8899639  54.2584663   5.0988816  43.1964742
  54.1129243   5.4129119  44.0889023  53.7809866   5.7173717  42.6435640
  56.1181045   2.0891364  43.2445631  56.1042614   1.1932458  42.9077929
  56.8353474   2.0962028  43.8783917  57.9707176   2.5228704  45.2898759
  57.7124954   3.4445775  45.2883089  57.4392217   2.1259139  45.9799223
  62.9153365  15.6279492  38.0688844  63.0890242  15.0625914  37.3162696
  63.4082256  16.4280386  37.8868334  48.7330325   7.6394161  46.1352403
  48.1883793   8.4153969  46.2672677  49.6109675   7.9864965  45.9771524
  55.5217941   0.9705745  38.5133201  55.6433853   0.0422391  38.7124089
  55.2319984   0.9844430  37.6011517  58.3909132  -1.3439345  41.6499921
  58.4130829  -1.2800012  40.6951901  58.8077191  -2.1834836  41.8440427
  68.7692756   8.3915915  39.6879144  69.2123902   7.6423240  39.2898267
  67.8919266   8.3826051  39.3052876  63.9028537  14.9446256  35.1685742
  64.5979442  15.5652949  35.3873057  64.2451688  14.0941607  35.4438120
  49.5196347   6.7664057  49.0282560  48.7778083   6.9146692  49.6147190
  49.1989091   7.0272323  48.1649309  65.8019961  12.3945961  36.6973073
  66.3271285  12.7333234  35.9722393  65.7142313  11.4592977  36.5136208
  57.4640009  16.3080035  48.8262950  57.7727136  16.0629182  49.6985649
  58.2615491  16.5126674  48.3381820  57.4860621  18.4617945  41.0568326
  57.0465612  17.9694323  41.7501183  58.2368738  17.9190912  40.8160401
  49.9652960  14.6529486  41.0592954  50.7910980  14.3533258  40.6791598
  49.6147012  13.8837108  41.5082743  54.9334493  14.0055954  43.1290628
  54.3114503  13.3426659  42.8292856  55.6039360  14.0317086  42.4464276
  48.1661565  12.5715812  42.0181888  47.3293474  12.1437986  41.8365889
  48.1385211  12.7648255  42.9552679  55.0059021   2.4837742  52.7223134
  55.0547176   3.3599865  52.3400904  55.5481535   1.9415135  52.1494777
  65.4913867  13.0278865  52.0024271  64.7009410  13.0103004  51.4628770
  65.2547221  13.5667159  52.7573308  65.6111742   9.8771332  49.3157000
  65.6609747   9.7121339  50.2572522  65.5025665   9.0098591  48.9254880
  54.4948000  12.5559877  36.6049088  54.6436121  13.2395342  35.9515761
  55.3014444  12.5364967  37.1198544  62.9015504   5.8602260  50.6316306
  63.8025367   5.7208724  50.3400304  62.9763479   6.0256714  51.5714484
  57.2358309   3.2369114  49.4769493  56.3661619   3.5302680  49.2052081
  57.4717790   3.8209559  50.1976756  67.1129938  12.2968273  49.5599021
  66.8214747  12.6598254  50.3962482  66.5002070  11.5835281  49.3812353
  68.3125621   9.8621153  42.0801591  69.1472512  10.3010957  42.2439152
  68.4484750   9.3859806  41.2609837  65.3617127   7.4200888  48.0279079
  65.8371248   7.6128534  47.2197930  64.4382692   7.4760073  47.7822463
  52.2500633   8.5825055  37.6110157  52.0046675   7.6787385  37.8090367
  52.4196548   8.5842205  36.6689635  59.9397343  -0.5451269  46.9934913
  60.4579287   0.1909758  46.6681402  59.5852476  -0.2387275  47.8281672
  51.5196281   4.3153412  35.1096319  50.8265526   4.3897767  34.4536355
  51.2748033   3.5513756  35.6317836  60.1909937  -4.1250986  42.5135810
  60.4711691  -4.7927797  43.1396236  60.9760544  -3.9321891  42.0010473
  57.9943406  15.0508008  34.0760836  57.4217373  15.6698195  33.6231308
  58.5676200  15.6007369  34.6100758  64.0618796   4.2966648  46.2607385
  65.0136219   4.3964745  46.2819609  63.8922246   3.5044916  46.7705469
  62.0833175   1.3822231  46.4466786  61.4883107   1.6627244  45.7513274
  61.7982872   1.8716132  47.2183527  61.2140666  15.3345158  35.2069418
  62.1471339  15.2690719  35.4102294  61.1263878  16.1701425  34.7483951
  63.8428682  14.6511028  32.1673366  63.7642314  14.3170892  33.0609124
  64.6638349  15.1432796  32.1664838  66.5406874   7.5172767  45.3749684
  66.5083194   6.5788768  45.5609368  67.1507497   7.5956804  44.6415509
  58.3790204   6.3868820  31.4176888  59.3249309   6.2575029  31.4865306
  58.0004449   5.6483482  31.8946317  66.6901362   4.3083811  45.4207968
  66.1740411   3.5242267  45.2337896  67.5741311   3.9802527  45.5854487
  64.3512089  -1.9475174  41.3803780  64.1536910  -2.2560085  42.2647112
  64.9611794  -1.2213535  41.5101710  72.3583423   8.5788774  44.5155721
  73.0886812   8.3174062  45.0763424  71.7490369   7.8417496  44.5557789
  70.4398720   6.7196637  45.1130172  69.7131884   6.5852602  44.5046664
  70.0246007   7.0273465  45.9186890  58.2628897  10.4386567  52.8777545
  59.1831906  10.6165166  53.0717592  58.2278480   9.4942612  52.7257245
  56.5633122   4.3118797  31.3531774  55.6564577   4.0151910  31.4294487
  56.8409103   4.0148615  30.4866060  47.4811062   5.6325160  41.8030820
  47.1613846   4.7790468  41.5105194  46.9344490   5.8473738  42.5588787
  51.2590969   8.3487601  45.5200327  51.4776979   9.2804709  45.5388360
  51.6716743   7.9895576  46.3055130  58.1795187  -1.1444313  37.5076015
  57.3695916  -1.4897229  37.8831261  58.8679604  -1.4536770  38.0963626
  60.1085736  -2.0666267  39.1300312  60.6616774  -1.6470813  39.7890335
  60.3455822  -2.9930519  39.1723268  56.1318835   3.9220807  54.9103075
  56.0315562   4.8715164  54.8415167  55.9140377   3.5939046  54.0379146
  55.3331906   1.1705732  31.4943753  56.1951070   1.4960630  31.7539570
  55.5182250   0.3837228  30.9816819  47.3499322   9.2528072  43.7723942
  46.6562793   8.8382024  43.2593896  48.0972313   9.2948608  43.1757360
  63.4864543   0.0434258  38.6378976  62.9063212   0.7019062  38.2557028
  63.2200475  -0.7788397  38.2266393  61.9368109  -0.5560684  40.8400296
  62.4367887  -0.4444149  40.0314615  62.5803717  -0.8599631  41.4801105
  55.9950105   7.3517946  53.7268137  55.5117187   8.1518306  53.9332026
  56.0811044   7.3625891  52.7735581  49.2636064   9.1846325  41.6489956
  49.2406753   9.2834013  40.6971840  49.5736701  10.0311476  41.9707123
  51.9223442  11.2422480  45.7636571  52.8766696  11.2106423  45.6966502
  51.7235966  10.7813104  46.5786797  52.5122824   9.8123597  48.3307369
  53.3315713  10.3067675  48.3542206  52.7859632   8.8955565  48.3024936
  62.2689421   2.2034349  37.6935324  61.3815276   2.4883999  37.4755519
  62.6843410   2.0428112  36.8462601  65.6203957   2.2280870  41.4089663
  66.3964347   2.7177322  41.6814280  64.8952091   2.6538924  41.8661533
  68.0576515   2.9408489  42.4663604  68.6521006   2.7004225  41.7556912
  68.1303099   2.2215620  43.0937140  50.2773671  16.7842100  42.7806769
  50.1428139  16.0242501  42.2144767  49.8605733  17.5083000  42.3135558
  61.4132634  11.9679024  31.7883344  62.1168484  12.1729026  32.4041000
  60.6895283  12.5355785  32.0532428  62.2430444   7.7188885  37.9085614
  62.1865646   8.1757436  37.0693247  62.7958787   6.9579569  37.7308457
  66.0535250   3.5078617  38.7335734  65.7972185   3.1075252  39.5643941
  65.4288118   4.2222411  38.6085873  70.3647588   6.2474690  41.2407025
  69.8047146   6.3167879  42.0138587  69.7591092   6.0715675  40.5206521
  53.4342797  17.6811417  42.9925211  53.3175181  18.6256849  42.8903902
  52.6135243  17.3784979  43.3811011  63.3219332  12.4061553  33.8381804
  64.1564935  11.9742751  33.6559279  63.1603674  12.2343566  34.7658699
  62.9765224   8.9093666  35.2038143  62.9214027   8.7437937  34.2626587
  62.3511279   9.6169699  35.3600333  47.7657739   4.1461730  49.0299566
  48.4116602   3.6360684  49.5186791  47.5574890   4.8830412  49.6042991
  60.2911131  11.2142578  54.5291706  61.1602290  11.3883230  54.1678341
  59.8117882  12.0336995  54.4067436  56.2861349  -1.5898225  34.7823462
  56.2740019  -0.6456385  34.9391733  57.1784771  -1.7728080  34.4882923
  54.4597311  18.3339679  46.2081140  55.3624558  18.3663289  46.5247635
  54.2334681  17.4040130  46.2227476  56.2150913  17.0870665  42.8691218
  55.2646544  17.0872527  42.7555591  56.5183399  16.3403400  42.3527253
  60.1013469  -4.9955448  39.0369399  59.3345864  -5.5496962  39.1826081
  60.5124174  -4.9233580  39.8983550  52.1055230   1.2929347  53.1274580
  52.9686691   0.9366152  53.3377904  51.5320640   0.9543242  53.8149984
  71.9503607  22.9231204  43.9336981  72.5882017  22.8037951  43.2300321
  71.8324449  23.8712048  43.9924933  68.7593313  22.8758632  43.8698506
  68.4211824  22.7599697  42.9819040  69.6283081  22.4749797  43.8499512
  64.6180129  24.7294108  39.8595396  64.0544994  24.6384045  39.0911684
  64.5032524  23.9094013  40.3397889  69.2413096  24.0293484  49.8284711
  69.2301737  23.6346282  48.9565215  69.4033735  23.2959556  50.4218482
  62.1644561  26.2245300  42.6979617  62.9565852  25.8836125  42.2825916
  62.4041211  26.3340275  43.6181770  70.1979687  28.3965076  35.1709861
  69.5467667  28.9819156  34.7843875  70.9924050  28.9271271  35.2304899
  64.1235314  25.4854213  35.5696996  64.8966190  24.9383200  35.4309872
  64.4760713  26.3498463  35.7811457  65.9620357  26.8130595  48.7763895
  65.6710223  27.7176226  48.6610561  66.5977341  26.8547123  49.4907965
  66.8876564  24.1907444  45.3665255  67.4840136  23.9663466  44.6522218
  66.9451535  23.4492189  45.9690703  66.4601592  21.6446879  33.2015446
  66.7127113  21.1228401  32.4398909  65.5226151  21.4813025  33.3042129
  71.5044875  20.6482658  41.0090189  72.2907964  20.2302081  40.6580606
  71.7683579  21.5528750  41.1771837  71.6754952  26.0855508  35.7078846
  71.0400785  26.1590135  36.4199750  71.3452359  26.6749107  35.0297925
  76.9053302  20.5857891  41.9123167  77.6378474  20.0157108  42.1460997
  76.1492658  20.1979491  42.3529673  66.1797881  23.5474985  35.4039821
  66.0634139  22.8719889  36.0720905  66.2900141  23.0607359  34.5871974
  68.5229422  23.0085132  39.1086510  68.1587629  22.4815753  39.8199431
  69.3796538  22.6183601  38.9352995  74.4278723  14.2979465  46.3717776
  74.0962047  15.1674876  46.1478991  73.8324336  13.9815749  47.0511806
  68.1634909  18.0375032  34.1047858  68.3309311  18.9055268  34.4718329
  67.9732078  18.2002314  33.1809148  70.9210242  26.4992011  45.7713689
  70.6210965  27.4017050  45.6629496  70.5761302  26.2324194  46.6234842
  64.3722724  22.9505808  41.8050393  63.4473220  22.8182022  42.0128085
  64.6207137  23.7300027  42.3020336  74.3207386  19.0174551  43.4511126
  73.4124263  18.9489960  43.1569887  74.2694982  19.4946496  44.2792952
  68.1424130  20.4932690  35.0894525  68.0223755  20.9389740  35.9280005
  67.4476718  20.8418007  34.5308063  61.7331535  22.5939081  42.6394182
  61.8623916  22.8473560  43.5533594  61.0528986  23.1866789  42.3198837
  65.9031022  33.2636331  38.7384656  65.8255052  34.2144156  38.8173137
  65.2992665  32.9182204  39.3959583  68.3948252  20.4364197  51.3946023
  67.6181586  20.9958117  51.3848888  69.0338815  20.9220980  51.9160893
  76.1869032  17.2190990  45.2289000  75.5443413  17.5123523  44.5828795
  75.6823961  17.1043910  46.0342197  73.8409196  20.9654163  35.9174859
  74.7527052  21.1981550  35.7422557  73.3318843  21.5491207  35.3549938
  66.6494624  23.2449650  50.9563990  67.3909308  23.7834694  50.6798814
  65.9431609  23.8715939  51.1135542  72.1249964  25.3878791  49.5536152
  72.5333320  24.9461201  48.8090784  71.4027225  24.8131418  49.8070345
  68.4781034  20.3251397  46.9269709  69.3242229  20.7490811  47.0704358
  68.4179671  19.6685022  47.6208272  72.4478778  25.9479981  43.3088441
  71.8187641  26.1125695  42.6064509  72.0604440  26.3621591  44.0799405
  76.3268010  26.8834419  40.6632804  75.6419048  27.2633320  40.1129838
  76.4111859  27.4929746  41.3964752  71.6280479  17.9855766  48.5850882
  71.3841411  18.7397826  48.0485158  71.9040409  18.3641113  49.4198129
  73.5818942  24.5294378  47.2628148  73.7935837  25.1726138  46.5862529
  73.5348690  23.6956695  46.7950078  71.1845171  17.1412199  44.1664720
  70.3229650  17.4393452  44.4581458  71.2107605  17.3582598  43.2345753
  68.0006740  25.6854389  40.5738526  68.4645086  25.9642092  39.7843148
  67.7363538  24.7837834  40.3911616  64.8930821  25.2325871  43.5118289
  65.4632178  25.6613139  42.8735774  65.4838933  24.9508456  44.2102475
  66.9375626  21.8077542  37.3828091  67.6399670  22.2598585  37.8502017
  66.6056255  21.1661361  38.0107984  65.3855988  20.3989298  51.7579300
  64.7554648  21.0805579  51.9914697  65.2792076  20.2872380  50.8132439
  60.6800960  20.0661094  42.6845224  59.8900014  20.3218623  42.2085335
  61.1712208  20.8809432  42.7897265  74.6964770  27.4066334  45.4350505
  75.5182213  27.0046521  45.1533187  74.6927173  27.3034568  46.3866621
  62.6315706  20.4305674  39.6428701  61.8346869  20.5424368  40.1612197
  62.4041298  20.7692326  38.7769592  68.4621373  26.9550377  47.5911216
  68.5265806  27.4170784  48.4269388  67.7532297  26.3247742  47.7193526
  58.9638663  20.3191585  45.1160215  59.2146702  21.2038595  45.3817791
  59.4998212  20.1396186  44.3435307  82.7870763  23.7505082  41.7835477
  82.0334471  23.1812480  41.6279481  82.9218304  23.7167746  42.7306111
  68.1769391  28.6218484  37.4590196  68.0415066  29.4670020  37.8875044
  68.7179203  28.8237762  36.6956130  64.6636730  14.7010064  54.1204551
  64.2703676  14.1476263  54.7952196  65.4802871  15.0120643  54.5111069
  61.6298788  26.1393922  38.0318121  62.1423309  26.9337173  38.1823686
  62.2821501  25.4420213  37.9651723  63.4393673  29.2559679  40.1140874
  63.6160301  30.1777643  39.9261858  64.2350506  28.9418098  40.5435254
  67.5804691  16.1167943  51.7124808  68.3214405  16.7175096  51.6329270
  67.8122614  15.3745581  51.1542850  62.7246029  21.3024310  49.9903038
  62.6099545  20.4009568  50.2910137  61.8690547  21.5488007  49.6387854
  69.8037867  29.2442051  51.5890538  69.3601721  28.4578429  51.2711443
  70.4655081  29.4321201  50.9234429  64.5624988  30.7737852  46.1151217
  65.1132413  30.6454916  45.3428211  63.7236464  31.0732741  45.7646110
  71.9019105  29.5244851  49.6171939  71.8837581  30.3453732  49.1252209
  72.8239025  29.3998926  49.8422081  68.3592159  27.0388980  50.4595448
  68.8920496  26.2777268  50.2294756  67.8306241  26.7462632  51.2019602
  71.5261854  12.1449046  45.9889090  71.1826124  13.0350688  45.9128200
  71.8940817  11.9550704  45.1258675  59.5947705  24.4682577  38.8077692
  60.4322927  24.8779585  38.5911399  59.7725973  23.5282019  38.7777886
  71.4912137  22.1357657  34.4961525  70.9758761  22.9062262  34.7349912
  71.2189446  21.4622793  35.1194586  69.0759248  16.9807358  39.5546763
  68.2200844  16.5914208  39.3752402  69.4886200  17.0599319  38.6946549
  70.6058395  14.5153701  43.9538323  70.1023190  14.4783836  43.1406128
  70.8989002  15.4246444  44.0134980  66.8501281  14.5992431  42.9604505
  67.7154277  14.4035240  42.6010394  66.9178790  14.3702783  43.8873861
  76.4646411  24.8890012  36.4314698  75.6875854  24.5501171  35.9869860
  77.1437892  24.8942635  35.7569663  71.2798440  20.0084749  36.3221306
  70.9748576  20.3230899  37.1731449  72.2328882  20.0866169  36.3648639
  69.7244872  26.1674973  37.9714260  69.1966234  25.4327732  37.6587497
  69.2232375  26.9449649  37.7254228  74.7037718  24.3623993  43.0881306
  74.0461393  25.0523255  43.1761435  75.5078117  24.7520425  43.4315293
  64.4563600  16.8294639  40.3320871  65.0307352  16.6069820  39.5994064
  65.0434582  16.8983333  41.0849473  73.5143177  22.7168366  41.1385248
  74.0275059  23.3498358  41.6406958  74.1644401  22.1169561  40.7728608
  64.7833187  18.8599100  34.3516757  63.9470499  19.1973787  34.6726031
  64.6437956  18.7248080  33.4143894  66.7586267  13.7035888  39.0595941
  66.1050680  13.3884905  38.4352556  66.7166742  13.0811628  39.7855764
  67.8697472  23.9855183  30.9749233  66.9624534  23.7544436  31.1740382
  68.3668504  23.1892802  31.1623214  70.7765551  32.6952690  33.8945919
  70.1027250  32.9984387  34.5030877  71.1631373  33.4981770  33.5451376
  69.9924008  20.1917821  43.3843588  69.0746569  20.4132768  43.2265277
  70.4084151  20.2664132  42.5255296  70.7759056  21.5909237  38.5146269
  71.5230875  22.1030634  38.2053391  71.0450645  21.2693290  39.3750662
  69.0485706  24.0867778  35.4973223  68.1396925  23.8026811  35.5945693
  69.0780790  24.5066856  34.6376530  74.2804973  27.6974367  39.2664391
  73.8267300  26.8565277  39.3229581  73.6498940  28.3335766  39.6039171
  73.2237893  18.6266353  40.4965058  72.4860650  18.1143740  40.8275301
  73.4764666  18.1866735  39.6848335  72.7237912  29.5350864  40.2014209
  73.0160887  30.0955921  39.4826574  73.2336533  29.8279425  40.9567368
  73.3249520  11.4042605  41.0906827  73.6308397  10.5439969  40.8032742
  74.0502125  11.9960226  40.8905821  59.6173876  21.8073292  39.4788425
  59.4198276  21.2142653  38.7539492  59.0620540  21.5025502  40.1964364
  67.5970600  21.6996398  41.5983018  67.6519210  20.7470235  41.5225495
  66.7861802  21.8555838  42.0824317  68.7461794  25.6276521  32.8361302
  68.3081223  24.9112380  32.3766939  69.4872234  25.8552636  32.2746393
  65.5362960  20.3173458  39.3573397  64.7230825  20.6167629  39.7638589
  66.0321954  19.9229147  40.0747879  67.6871538  30.3131215  41.2907662
  67.6447716  30.5392061  40.3616194  68.6034236  30.0794590  41.4393463
  71.1337171  20.7815283  48.1888291  71.4886559  21.0086756  49.0482757
  71.7809303  21.1133659  47.5665546  76.8634908  23.9033719  38.8937620
  76.7252807  24.0935315  37.9658809  76.5071127  24.6653101  39.3505671
  65.0277034  17.8891814  44.9734632  65.6676414  17.7480573  44.2757595
  64.1954565  17.6026327  44.5973234  76.8904288  25.9710246  43.9048892
  77.3240795  25.8785535  44.7531946  77.6035869  25.9467746  43.2668908
  65.8037338  27.1894244  41.0869625  66.5977937  26.6944564  40.8852200
  65.0929031  26.6612107  40.7237330  70.6232183  29.5712340  45.4381992
  70.6769205  30.1403276  46.2059708  69.7546964  29.7414225  45.0736029
  62.1120102  21.3337326  37.1629377  61.1817690  21.2721781  37.3799339
  62.2077574  20.8113279  36.3666019  62.0305651  17.8592139  39.7507619
  62.2912468  18.7737472  39.6416779  62.8522823  17.3916581  39.9004232
  63.5030576  19.2729896  46.9206443  64.1753630  19.0647258  46.2719092
  62.6760363  19.0751982  46.4811676  77.7519837  26.0133946  46.4381777
  77.9455728  26.9179757  46.6841052  77.6520456  25.5541365  47.2720362
  69.4056148  15.8991837  48.9372104  68.7584063  16.5981786  48.8436581
  70.1757164  16.3327981  49.3048353  72.8134946  26.1640689  52.0122658
  72.6620453  25.9351241  51.0952741  72.8039626  27.1211290  52.0254003
  69.5820283  23.7372602  46.9968924  70.5112343  23.8883761  46.8237891
  69.1611313  23.8256622  46.1417571  68.3808614  27.7623266  44.7667462
  68.2419700  27.3942050  45.6393400  67.5923211  28.2770906  44.5951420
  68.9756766  32.8632363  36.1092998  69.1508522  32.3920406  36.9238621
  68.2889554  33.4898129  36.3374259  69.9313830  27.1404869  42.1556299
  69.5963662  27.1005639  43.0513949  69.4317775  26.4749585  41.6826710
  63.9058073  22.5472499  47.6808881  63.7677871  21.8152738  48.2820420
  64.8162997  22.4581399  47.3993068  72.8673021  24.4860903  32.4293359
  72.2502192  23.7607731  32.3326412  72.3989510  25.2470263  32.0860433
  66.5340374  22.2592458  47.1692560  67.2439993  21.6185650  47.1279179
  66.4909682  22.5105353  48.0918741  74.5227153  29.1959811  50.0899140
  74.4639699  28.5119032  49.4229723  74.9246671  29.9378801  49.6379766
  65.2469308  19.2457676  48.9888200  64.7106665  18.7948414  49.6409796
  64.6586017  19.3803585  48.2458664  63.5417852  36.0121725  42.8832858
  63.7814450  36.6440249  43.5611877  62.6987048  35.6609765  43.1698218
  64.6571567  18.7046327  31.5514663  63.7801033  18.5835128  31.1876910
  65.1329320  17.9132406  31.2993552  74.5244560  27.1599395  48.3213119
  73.6371339  26.8225317  48.4439518  75.0943111  26.4282427  48.5581885
  56.1773707  23.4923487  41.6456171  56.8644747  23.1785217  41.0577186
  56.0221836  24.3964852  41.3723422  60.9808429  18.3813684  46.0741194
  60.8966618  17.7739353  45.3391604  60.1591136  18.8722702  46.0750691
  68.0545713  31.8200848  45.2874362  67.9815885  32.6255819  45.7993667
  67.6123107  32.0192814  44.4622384  67.8435493  31.0572618  38.7977184
  67.0603015  31.5994298  38.8915408  68.5428238  31.5746597  39.1971425
  71.1532143  16.8667247  41.4411389  71.6500843  16.1137210  41.1212460
  70.3819125  16.9031564  40.8754599  79.0061901  22.5707613  43.0829681
  78.9951777  23.4532328  42.7123614  78.1379280  22.2179164  42.8884218
  70.5144397  31.7187682  47.4432521  71.2272369  32.3535147  47.3708423
  70.0234426  31.8151548  46.6272523  72.2361924  25.6238934  39.0149813
  71.3018203  25.7440397  38.8454517  72.4138592  24.7211401  38.7509823
  67.7367112  19.0084630  41.1683074  67.3664899  18.4555671  41.8563980
  68.2326204  18.4042764  40.6158074  75.6234475  21.4656254  39.5499847
  76.0894927  22.2984245  39.4760150  76.0741976  21.0001235  40.2545105
  65.5656311  29.4682125  48.2638092  66.2665770  30.1018608  48.4167486
  65.0951426  29.8096857  47.5033731  73.6910706  27.8100075  36.5485999
  73.9670550  27.6956670  37.4579873  72.8215205  27.4117560  36.5098172
  73.5951138  13.8336841  43.5890748  72.6814218  14.0641068  43.7572955
  74.0244239  13.9175285  44.4404781  73.3657596  22.0226733  46.0890642
  72.7129047  22.2702640  45.4343095  73.7437976  21.2090871  45.7553120
  70.3264770  32.0586426  40.1918813  70.5087165  31.2408082  40.6546565
  71.1497756  32.2754118  39.7543703  70.6606936  30.9854611  37.4533861
  71.1894702  30.4747066  36.8404023  70.9235155  30.6697141  38.3179394
  69.4145170  22.7646544  52.5756679  68.7385807  22.6640673  53.2459055
  70.2372803  22.6085758  53.0392677  61.1624029  29.0018480  45.1969195
  61.7477465  28.2562168  45.3297099  60.9648867  29.3122437  46.0805858
  64.0162684  32.0369728  40.2131637  63.3473059  32.5215855  39.7295677
  63.8775554  32.2838948  41.1275015  55.7541683  21.5724081  43.9173638
  55.7925783  21.0387671  44.7110756  55.2481976  21.0459286  43.2984615
  68.1567952  34.0713471  46.8114295  68.7086260  34.2345093  47.5763381
  68.4974146  34.6617909  46.1394320  63.1332446  16.4188621  47.4136180
  63.1973772  17.2803452  47.0013578  63.0699566  15.8062623  46.6808539
  62.6084718  18.4911754  51.0609214  63.2356757  18.1088831  51.6746739
  61.7512637  18.2725956  51.4264907  73.0078827  28.8974729  52.6662950
  73.5518731  29.5104687  52.1717905  72.4265672  29.4554307  53.1829963
  59.3850261  20.2988183  36.9927569  59.6803702  19.3898861  36.9394623
  58.4838297  20.2775922  36.6708571  71.2936340  32.0195447  43.7977977
  71.1687479  31.2185187  43.2888923  71.9515431  32.5141640  43.3091947
  62.9144508  18.3744179  42.9755118  62.1931094  18.9880147  42.8362591
  63.7037764  18.9101944  42.8971764  73.3571248  29.8204467  45.4257528
  72.4101584  29.7009818  45.3535854  73.7054021  28.9326965  45.5083789
  65.7170821  15.7098606  49.2495769  66.2405223  15.9560902  50.0122079
  65.4983155  16.5418641  48.8298907  61.1138102  17.9802280  37.1166894
  60.7850809  17.0999659  36.9342000  61.4677473  17.9249949  38.0043283
  70.3617681  29.6157183  41.6261880  70.2142644  28.6873890  41.8069450
  71.1871175  29.6377274  41.1418955  64.2279926  18.2675250  37.4842372
  64.5675998  18.7961171  36.7620980  64.6752046  18.6055656  38.2600938
  73.9651803  30.4385742  42.7126753  74.8898351  30.2328603  42.5751204
  73.7967107  30.1902143  43.6216094  66.9223366  16.6512301  46.9345440
  66.5820187  15.8520114  47.3366120  66.2162373  16.9514012  46.3622273
  67.5739838  13.7361613  45.3872763  68.3965908  13.2622091  45.2651653
  67.8177902  14.5152097  45.8871449  66.2148073  16.7649872  35.6835665
  66.9356435  17.1431125  35.1799382  65.5913377  17.4838749  35.7870643
  70.3579196  17.4695021  36.6193997  70.5742810  18.3519659  36.3182825
  69.8773263  17.0781234  35.8899639  65.0978417  20.4280734  43.1964742
  64.9522998  20.7421037  44.0889023  64.6203621  21.0465634  42.6435640
  66.9574800  17.4183282  43.2445631  66.9436369  16.5224375  42.9077929
  67.6747228  17.4253946  43.8783917  68.8100931  17.8520622  45.2898759
  68.5518708  18.7737693  45.2883089  68.2785971  17.4551057  45.9799223
  73.7547119  30.9571409  38.0688844  73.9283997  30.3917832  37.3162696
  74.2476011  31.7572304  37.8868334  59.5724079  22.9686078  46.1352403
  59.0277547  23.7445886  46.2672677  60.4503429  23.3156883  45.9771524
  66.3611696  16.2997662  38.5133201  66.4827607  15.3714308  38.7124089
  66.0713738  16.3136348  37.6011517  69.2302886  13.9852573  41.6499921
  69.2524583  14.0491906  40.6951901  69.6470945  13.1457081  41.8440427
  79.6086511  23.7207832  39.6879144  80.0517657  22.9715157  39.2898267
  78.7313021  23.7117969  39.3052876  74.7422292  30.2738174  35.1685742
  75.4373197  30.8944866  35.3873057  75.0845442  29.4233525  35.4438120
  60.3590101  22.0955975  49.0282560  59.6171837  22.2438610  49.6147190
  60.0382845  22.3564240  48.1649309  76.6413715  27.7237879  36.6973073
  77.1665039  28.0625152  35.9722393  76.5536068  26.7884894  36.5136208
  68.3033764  31.6371953  48.8262950  68.6120890  31.3921100  49.6985649
  69.1009246  31.8418591  48.3381820  68.3254376  33.7909862  41.0568326
  67.8859366  33.2986241  41.7501183  69.0762493  33.2482830  40.8160401
  60.8046715  29.9821403  41.0592954  61.6304735  29.6825175  40.6791598
  60.4540767  29.2129026  41.5082743  65.7728248  29.3347872  43.1290628
  65.1508257  28.6718577  42.8292856  66.4433115  29.3609003  42.4464276
  59.0055320  27.9007730  42.0181888  58.1687228  27.4729904  41.8365889
  58.9778965  28.0940173  42.9552679  65.8452775  17.8129660  52.7223134
  65.8940931  18.6891782  52.3400904  66.3875290  17.2707053  52.1494777
  76.3307621  28.3570783  52.0024271  75.5403165  28.3394922  51.4628770
  76.0940976  28.8959077  52.7573308  76.4505496  25.2063249  49.3157000
  76.5003501  25.0413257  50.2572522  76.3419419  24.3390508  48.9254880
  65.3341755  27.8851795  36.6049088  65.4829875  28.5687259  35.9515761
  66.1408198  27.8656885  37.1198544  73.7409259  21.1894177  50.6316306
  74.6419121  21.0500642  50.3400304  73.8157233  21.3548632  51.5714484
  68.0752064  18.5661032  49.4769493  67.2055373  18.8594598  49.2052081
  68.3111544  19.1501477  50.1976756  77.9523693  27.6260191  49.5599021
  77.6608501  27.9890171  50.3962482  77.3395824  26.9127199  49.3812353
  79.1519375  25.1913070  42.0801591  79.9866267  25.6302875  42.2439152
  79.2878504  24.7151724  41.2609837  76.2010881  22.7492805  48.0279079
  76.6765003  22.9420452  47.2197930  75.2776447  22.8051991  47.7822463
  63.0894388  23.9116973  37.6110157  62.8440430  23.0079303  37.8090367
  63.2590302  23.9134123  36.6689635  70.7791098  14.7840649  46.9934913
  71.2973042  15.5201676  46.6681402  70.4246230  15.0904642  47.8281672
  62.3590035  19.6445330  35.1096319  61.6659280  19.7189685  34.4536355
  62.1141787  18.8805674  35.6317836  71.0303692  11.2040931  42.5135810
  71.3105446  10.5364120  43.1396236  71.8154299  11.3970027  42.0010473
  68.8337160  30.3799925  34.0760836  68.2611127  30.9990112  33.6231308
  69.4069954  30.9299287  34.6100758  74.9012550  19.6258565  46.2607385
  75.8529973  19.7256663  46.2819609  74.7316001  18.8336834  46.7705469
  72.9226930  16.7114149  46.4466786  72.3276862  16.9919161  45.7513274
  72.6376626  17.2008050  47.2183527  72.0534420  30.6637075  35.2069418
  72.9865093  30.5982637  35.4102294  71.9657633  31.4993342  34.7483951
  74.6822437  29.9802946  32.1673366  74.6036068  29.6462809  33.0609124
  75.5032104  30.4724714  32.1664838  77.3800628  22.8464685  45.3749684
  77.3476948  21.9080686  45.5609368  77.9901252  22.9248722  44.6415509
  69.2183959  21.7160738  31.4176888  70.1643064  21.5866946  31.4865306
  68.8398204  20.9775400  31.8946317  77.5295116  19.6375729  45.4207968
  77.0134165  18.8534185  45.2337896  78.4135065  19.3094445  45.5854487
  75.1905843  13.3816744  41.3803780  74.9930665  13.0731832  42.2647112
  75.8005549  14.1078383  41.5101710  83.1977178  23.9080692  44.5155721
  83.9280566  23.6465980  45.0763424  82.5884123  23.1709414  44.5557789
  81.2792475  22.0488555  45.1130172  80.5525639  21.9144519  44.5046664
  80.8639762  22.3565383  45.9186890  69.1022651  25.7678484  52.8777545
  70.0225661  25.9457083  53.0717592  69.0672234  24.8234530  52.7257245
  67.4026876  19.6410714  31.3531774  66.4958331  19.3443827  31.4294487
  67.6802857  19.3440533  30.4866060  58.3204816  20.9617078  41.8030820
  58.0007601  20.1082386  41.5105194  57.7738245  21.1765656  42.5588787
  62.0984724  23.6779519  45.5200327  62.3170734  24.6096627  45.5388360
  62.5110498  23.3187493  46.3055130  69.0188942  14.1847604  37.5076015
  68.2089670  13.8394689  37.8831261  69.7073359  13.8755148  38.0963626
  70.9479490  13.2625651  39.1300312  71.5010529  13.6821104  39.7890335
  71.1849576  12.3361399  39.1723268  66.9712589  19.2512725  54.9103075
  66.8709316  20.2007082  54.8415167  66.7534131  18.9230964  54.0379146
  66.1725661  16.4997650  31.4943753  67.0344825  16.8252548  31.7539570
  66.3576005  15.7129146  30.9816819  58.1893076  24.5819989  43.7723942
  57.4956548  24.1673942  43.2593896  58.9366067  24.6240526  43.1757360
  74.3258297  15.3726176  38.6378976  73.7456966  16.0310980  38.2557028
  74.0594230  14.5503521  38.2266393  72.7761863  14.7731234  40.8400296
  73.2761642  14.8847768  40.0314615  73.4197471  14.4692287  41.4801105
  66.8343859  22.6809863  53.7268137  66.3510941  23.4810224  53.9332026
  66.9204798  22.6917808  52.7735581  60.1029819  24.5138243  41.6489956
  60.0800507  24.6125930  40.6971840  60.4130455  25.3603394  41.9707123
  62.7617197  26.5714398  45.7636571  63.7160450  26.5398341  45.6966502
  62.5629720  26.1105022  46.5786797  63.3516579  25.1415514  48.3307369
  64.1709468  25.6359593  48.3542206  63.6253387  24.2247482  48.3024936
  73.1083175  17.5326267  37.6935324  72.2209030  17.8175917  37.4755519
  73.5237164  17.3720030  36.8462601  76.4597711  17.5572788  41.4089663
  77.2358101  18.0469240  41.6814280  75.7345845  17.9830842  41.8661533
  78.8970270  18.2700407  42.4663604  79.4914761  18.0296143  41.7556912
  78.9696854  17.5507537  43.0937140  61.1167426  32.1134018  42.7806769
  60.9821894  31.3534419  42.2144767  60.6999488  32.8374918  42.3135558
  72.2526389  27.2970941  31.7883344  72.9562239  27.5020944  32.4041000
  71.5289037  27.8647703  32.0532428  73.0824199  23.0480802  37.9085614
  73.0259400  23.5049354  37.0693247  73.6352541  22.2871487  37.7308457
  76.8929005  18.8370534  38.7335734  76.6365939  18.4367170  39.5643941
  76.2681873  19.5514328  38.6085873  81.2041343  21.5766608  41.2407025
  80.6440901  21.6459797  42.0138587  80.5984846  21.4007592  40.5206521
  64.2736551  33.0103335  42.9925211  64.1568936  33.9548767  42.8903902
  63.4528998  32.7076896  43.3811011  74.1613086  27.7353470  33.8381804
  74.9958690  27.3034669  33.6559279  73.9997429  27.5635484  34.7658699
  73.8158978  24.2385584  35.2038143  73.7607782  24.0729855  34.2626587
  73.1905033  24.9461617  35.3600333  58.6051493  19.4753648  49.0299566
  59.2510357  18.9652602  49.5186791  58.3968644  20.2122330  49.6042991
  71.1304885  26.5434496  54.5291706  71.9996045  26.7175148  54.1678341
  70.6511637  27.3628912  54.4067436  67.1255104  13.7393693  34.7823462
  67.1133773  14.6835533  34.9391733  68.0178526  13.5563838  34.4882923
  65.2991066  33.6631597  46.2081140  66.2018312  33.6955207  46.5247635
  65.0728436  32.7332048  46.2227476  67.0544668  32.4162583  42.8691218
  66.1040299  32.4164445  42.7555591  67.3577154  31.6695318  42.3527253
  70.9407223  10.3336469  39.0369399  70.1739619   9.7794956  39.1826081
  71.3517928  10.4058338  39.8983550  62.9448984  16.6221265  53.1274580
  63.8080446  16.2658070  53.3377904  62.3714395  16.2835160  53.8149984
  82.7897361  38.2523122  43.9336981  83.4275771  38.1329869  43.2300321
  82.6718204  39.2003965  43.9924933  79.5987067  38.2050550  43.8698506
  79.2605579  38.0891614  42.9819040  80.4676836  37.8041715  43.8499512
  75.4573883  40.0586026  39.8595396  74.8938748  39.9675963  39.0911684
  75.3426278  39.2385930  40.3397889  80.0806850  39.3585401  49.8284711
  80.0695491  38.9638200  48.9565215  80.2427490  38.6251474  50.4218482
  73.0038315  41.5537218  42.6979617  73.7959607  41.2128042  42.2825916
  73.2434965  41.6632193  43.6181770  81.0373442  43.7256994  35.1709861
  80.3861422  44.3111074  34.7843875  81.8317805  44.2563189  35.2304899
  74.9629069  40.8146131  35.5696996  75.7359945  40.2675118  35.4309872
  75.3154468  41.6790380  35.7811457  76.8014112  42.1422513  48.7763895
  76.5103977  43.0468144  48.6610561  77.4371096  42.1839041  49.4907965
  77.7270318  39.5199362  45.3665255  78.3233891  39.2955384  44.6522218
  77.7845290  38.7784107  45.9690703  77.2995347  36.9738797  33.2015446
  77.5520867  36.4520318  32.4398909  76.3619906  36.8104942  33.3042129
  82.3438630  35.9774575  41.0090189  83.1301719  35.5593999  40.6580606
  82.6077334  36.8820668  41.1771837  82.5148707  41.4147426  35.7078846
  81.8794540  41.4882052  36.4199750  82.1846113  42.0041025  35.0297925
  87.7447057  35.9149809  41.9123167  88.4772229  35.3449025  42.1460997
  86.9886412  35.5271409  42.3529673  77.0191635  38.8766903  35.4039821
  76.9027894  38.2011806  36.0720905  77.1293895  38.3899277  34.5871974
  79.3623176  38.3377050  39.1086510  78.9981384  37.8107671  39.8199431
  80.2190292  37.9475519  38.9352995  85.2672477  29.6271383  46.3717776
  84.9355802  30.4966794  46.1478991  84.6718090  29.3107667  47.0511806
  79.0028663  33.3666950  34.1047858  79.1703066  34.2347186  34.4718329
  78.8125832  33.5294231  33.1809148  81.7603997  41.8283929  45.7713689
  81.4604720  42.7308967  45.6629496  81.4155056  41.5616112  46.6234842
  75.2116478  38.2797726  41.8050393  74.2866975  38.1473940  42.0128085
  75.4600891  39.0591945  42.3020336  85.1601140  34.3466469  43.4511126
  84.2518018  34.2781877  43.1569887  85.1088736  34.8238414  44.2792952
  78.9817884  35.8224607  35.0894525  78.8617509  36.2681658  35.9280005
  78.2870473  36.1709925  34.5308063  72.5725289  37.9230999  42.6394182
  72.7017670  38.1765478  43.5533594  71.8922740  38.5158707  42.3198837
  76.7424776  48.5928249  38.7384656  76.6648806  49.5436074  38.8173137
  76.1386420  48.2474122  39.3959583  79.2342006  35.7656114  51.3946023
  78.4575340  36.3250035  51.3848888  79.8732569  36.2512897  51.9160893
  87.0262787  32.5482907  45.2289000  86.3837167  32.8415440  44.5828795
  86.5217715  32.4335828  46.0342197  84.6802950  36.2946080  35.9174859
  85.5920807  36.5273467  35.7422557  84.1712598  36.8783125  35.3549938
  77.4888378  38.5741568  50.9563990  78.2303063  39.1126612  50.6798814
  76.7825364  39.2007857  51.1135542  82.9643718  40.7170708  49.5536152
  83.3727074  40.2753119  48.8090784  82.2420980  40.1423336  49.8070345
  79.3174788  35.6543315  46.9269709  80.1635983  36.0782729  47.0704358
  79.2573426  34.9976939  47.6208272  83.2872533  41.2771899  43.3088441
  82.6581395  41.4417613  42.6064509  82.8998195  41.6913508  44.0799405
  87.1661765  42.2126337  40.6632804  86.4812803  42.5925238  40.1129838
  87.2505614  42.8221663  41.3964752  82.4674233  33.3147683  48.5850882
  82.2235165  34.0689744  48.0485158  82.7434164  33.6933031  49.4198129
  84.4212696  39.8586296  47.2628148  84.6329591  40.5018056  46.5862529
  84.3742444  39.0248612  46.7950078  82.0238925  32.4704116  44.1664720
  81.1623404  32.7685370  44.4581458  82.0501360  32.6874515  43.2345753
  78.8400495  41.0146307  40.5738526  79.3038840  41.2934010  39.7843148
  78.5757293  40.1129752  40.3911616  75.7324576  40.5617789  43.5118289
  76.3025933  40.9905057  42.8735774  76.3232688  40.2800373  44.2102475
  77.7769381  37.1369459  37.3828091  78.4793424  37.5890503  37.8502017
  77.4450009  36.4953278  38.0107984  76.2249742  35.7281216  51.7579300
  75.5948403  36.4097497  51.9914697  76.1185830  35.6164298  50.8132439
  71.5194715  35.3953012  42.6845224  70.7293769  35.6510541  42.2085335
  72.0105962  36.2101350  42.7897265  85.5358524  42.7358251  45.4350505
  86.3575968  42.3338438  45.1533187  85.5320927  42.6326485  46.3866621
  73.4709460  35.7597591  39.6428701  72.6740623  35.8716286  40.1612197
  73.2435052  36.0984243  38.7769592  79.3015128  42.2842294  47.5911216
  79.3659560  42.7462702  48.4269388  78.5926052  41.6539659  47.7193526
  69.8032418  35.6483502  45.1160215  70.0540456  36.5330512  45.3817791
  70.3391966  35.4688104  44.3435307  93.6264517  39.0797000  41.7835477
  92.8728226  38.5104398  41.6279481  93.7612058  39.0459664  42.7306111
  79.0163145  43.9510402  37.4590196  78.8808820  44.7961938  37.8875044
  79.5572958  44.1529680  36.6956130  75.5030485  30.0301982  54.1204551
  75.1097431  29.4768180  54.7952196  76.3196625  30.3412560  54.5111069
  72.4692543  41.4685840  38.0318121  72.9817063  42.2629090  38.1823686
  73.1215256  40.7712130  37.9651723  74.2787427  44.5851596  40.1140874
  74.4554056  45.5069561  39.9261858  75.0744261  44.2710015  40.5435254
  78.4198446  31.4459861  51.7124808  79.1608159  32.0467014  51.6329270
  78.6516369  30.7037499  51.1542850  73.5639784  36.6316228  49.9903038
  73.4493299  35.7301485  50.2910137  72.7084302  36.8779925  49.6387854
  80.6431622  44.5733968  51.5890538  80.1995476  43.7870347  51.2711443
  81.3048835  44.7613119  50.9234429  75.4018743  46.1029770  46.1151217
  75.9526168  45.9746833  45.3428211  74.5630219  46.4024659  45.7646110
  82.7412860  44.8536768  49.6171939  82.7231335  45.6745649  49.1252209
  83.6632780  44.7290844  49.8422081  79.1985914  42.3680898  50.4595448
  79.7314251  41.6069186  50.2294756  78.6699995  42.0754550  51.2019602
  82.3655609  27.4740964  45.9889090  82.0219878  28.3642606  45.9128200
  82.7334571  27.2842621  45.1258675  70.4341459  39.7974494  38.8077692
  71.2716681  40.2071503  38.5911399  70.6119727  38.8573936  38.7777886
  82.3305892  37.4649575  34.4961525  81.8152515  38.2354180  34.7349912
  82.0583200  36.7914711  35.1194586  79.9153003  32.3099276  39.5546763
  79.0594599  31.9206126  39.3752402  80.3279954  32.3891237  38.6946549
  81.4452149  29.8445619  43.9538323  80.9416945  29.8075754  43.1406128
  81.7382756  30.7538362  44.0134980  77.6895035  29.9284349  42.9604505
  78.5548032  29.7327157  42.6010394  77.7572544  29.6994700  43.8873861
  87.3040166  40.2181930  36.4314698  86.5269608  39.8793089  35.9869860
  87.9831647  40.2234553  35.7569663  82.1192195  35.3376667  36.3221306
  81.8142330  35.6522816  37.1731449  83.0722637  35.4158087  36.3648639
  80.5638627  41.4966890  37.9714260  80.0359988  40.7619650  37.6587497
  80.0626129  42.2741567  37.7254228  85.5431473  39.6915911  43.0881306
  84.8855147  40.3815172  43.1761435  86.3471872  40.0812343  43.4315293
  75.2957354  32.1586557  40.3320871  75.8701106  31.9361738  39.5994064
  75.8828337  32.2275251  41.0849473  84.3536931  38.0460284  41.1385248
  84.8668813  38.6790275  41.6406958  85.0038155  37.4461479  40.7728608
  75.6226941  34.1891018  34.3516757  74.7864254  34.5265704  34.6726031
  75.4831711  34.0539997  33.4143894  77.5980022  29.0327806  39.0595941
  76.9444434  28.7176823  38.4352556  77.5560496  28.4103546  39.7855764
  78.7091227  39.3147101  30.9749233  77.8018289  39.0836354  31.1740382
  79.2062259  38.5184720  31.1623214  81.6159306  48.0244608  33.8945919
  80.9421004  48.3276305  34.5030877  82.0025128  48.8273688  33.5451376
  80.8317762  35.5209739  43.3843588  79.9140324  35.7424686  43.2265277
  81.2477906  35.5956050  42.5255296  81.6152810  36.9201155  38.5146269
  82.3624629  37.4322552  38.2053391  81.8844400  36.5985207  39.3750662
  79.8879460  39.4159695  35.4973223  78.9790679  39.1318728  35.5945693
  79.9174544  39.8358774  34.6376530  85.1198728  43.0266285  39.2664391
  84.6661055  42.1857195  39.3229581  84.4892694  43.6627683  39.6039171
  84.0631647  33.9558271  40.4965058  83.3254404  33.4435657  40.8275301
  84.3158421  33.5158653  39.6848335  83.5631667  44.8642782  40.2014209
  83.8554641  45.4247839  39.4826574  84.0730287  45.1571343  40.9567368
  84.1643275  26.7334523  41.0906827  84.4702151  25.8731886  40.8032742
  84.8895879  27.3252143  40.8905821  70.4567631  37.1365210  39.4788425
  70.2592030  36.5434570  38.7539492  69.9014295  36.8317420  40.1964364
  78.4364354  37.0288316  41.5983018  78.4912964  36.0762152  41.5225495
  77.6255556  37.1847755  42.0824317  79.5855548  40.9568439  32.8361302
  79.1474978  40.2404298  32.3766939  80.3265989  41.1844554  32.2746393
  76.3756714  35.6465376  39.3573397  75.5624580  35.9459546  39.7638589
  76.8715708  35.2521065  40.0747879  78.5265292  45.6423133  41.2907662
  78.4841471  45.8683979  40.3616194  79.4427991  45.4086507  41.4393463
  81.9730926  36.1107200  48.1888291  82.3280314  36.3378673  49.0482757
  82.6203057  36.4425577  47.5665546  87.7028663  39.2325636  38.8937620
  87.5646561  39.4227232  37.9658809  87.3464882  39.9945019  39.3505671
  75.8670789  33.2183731  44.9734632  76.5070168  33.0772490  44.2757595
  75.0348319  32.9318245  44.5973234  87.7298042  41.3002163  43.9048892
  88.1634549  41.2077452  44.7531946  88.4429623  41.2759664  43.2668908
  76.6431093  42.5186162  41.0869625  77.4371691  42.0236482  40.8852200
  75.9322785  41.9904025  40.7237330  81.4625937  44.9004257  45.4381992
  81.5162960  45.4695194  46.2059708  80.5940719  45.0706142  45.0736029
  72.9513856  36.6629244  37.1629377  72.0211444  36.6013699  37.3799339
  73.0471328  36.1405196  36.3666019  72.8699405  33.1884056  39.7507619
  73.1306223  34.1029390  39.6416779  73.6916578  32.7208499  39.9004232
  74.3424331  34.6021814  46.9206443  75.0147384  34.3939176  46.2719092
  73.5154117  34.4043900  46.4811676  88.5913592  41.3425864  46.4381777
  88.7849482  42.2471674  46.6841052  88.4914210  40.8833283  47.2720362
  80.2449903  31.2283754  48.9372104  79.5977818  31.9273704  48.8436581
  81.0150918  31.6619898  49.3048353  83.6528701  41.4932607  52.0122658
  83.5014207  41.2643158  51.0952741  83.6433380  42.4503208  52.0254003
  80.4214037  39.0664519  46.9968924  81.3506097  39.2175679  46.8237891
  80.0005067  39.1548540  46.1417571  79.2202369  43.0915184  44.7667462
  79.0813455  42.7233968  45.6393400  78.4316965  43.6062823  44.5951420
  79.8150521  48.1924280  36.1092998  79.9902277  47.7212323  36.9238621
  79.1283309  48.8190046  36.3374259  80.7707584  42.4696786  42.1556299
  80.4357417  42.4297556  43.0513949  80.2711530  41.8041502  41.6826710
  74.7451828  37.8764416  47.6808881  74.6071626  37.1444655  48.2820420
  75.6556751  37.7873317  47.3993068  83.7066776  39.8152821  32.4293359
  83.0895946  39.0899649  32.3326412  83.2383264  40.5762181  32.0860433
  77.3734129  37.5884376  47.1692560  78.0833747  36.9477568  47.1279179
  77.3303437  37.8397271  48.0918741  85.3620907  44.5251729  50.0899140
  85.3033453  43.8410949  49.4229723  85.7640426  45.2670719  49.6379766
  76.0863063  34.5749594  48.9888200  75.5500420  34.1240332  49.6409796
  75.4979771  34.7095503  48.2458664  75.4965322  34.0338245  31.5514663
  74.6194788  33.9127046  31.1876910  75.9723075  33.2424323  31.2993552
  85.3638315  42.4891313  48.3213119  84.4765093  42.1517235  48.4439518
  85.9336866  41.7574344  48.5581885  67.0167462  38.8215405  41.6456171
  67.7038502  38.5077135  41.0577186  66.8615590  39.7256769  41.3723422
  71.8202184  33.7105601  46.0741194  71.7360373  33.1031271  45.3391604
  70.9984890  34.2014620  46.0750691  78.8939468  47.1492765  45.2874362
  78.8209639  47.9547737  45.7993667  78.4516861  47.3484731  44.4622384
  78.6829248  46.3864535  38.7977184  77.8996769  46.9286216  38.8915408
  79.3821993  46.9038515  39.1971425  81.9925898  32.1959165  41.4411389
  82.4894597  31.4429127  41.1212460  81.2212879  32.2323482  40.8754599
  89.8455655  37.8999530  43.0829681  89.8345531  38.7824246  42.7123614
  88.9773035  37.5471081  42.8884218  81.3538151  47.0479599  47.4432521
  82.0666124  47.6827064  47.3708423  80.8628180  47.1443465  46.6272523
  83.0755678  40.9530852  39.0149813  82.1411957  41.0732315  38.8454517
  83.2532347  40.0503319  38.7509823  78.5760866  34.3376548  41.1683074
  78.2058654  33.7847588  41.8563980  79.0719959  33.7334681  40.6158074
  86.4628230  36.7948171  39.5499847  86.9288682  37.6276163  39.4760150
  86.9135730  36.3293153  40.2545105  76.4050065  44.7974043  48.2638092
  77.1059525  45.4310526  48.4167486  75.9345180  45.1388774  47.5033731
  84.5304461  43.1391993  36.5485999  84.8064305  43.0248587  37.4579873
  83.6608960  42.7409478  36.5098172  84.4344892  29.1628758  43.5890748
  83.5207972  29.3932985  43.7572955  84.8637994  29.2467202  44.4404781
  84.2051351  37.3518650  46.0890642  83.5522801  37.5994558  45.4343095
  84.5831731  36.5382789  45.7553120  81.1658525  47.3878344  40.1918813
  81.3480919  46.5700000  40.6546565  81.9891511  47.6046036  39.7543703
  81.5000690  46.3146529  37.4533861  82.0288457  45.8038983  36.8404023
  81.7628910  45.9989059  38.3179394  80.2538924  38.0938461  52.5756679
  79.5779561  37.9932591  53.2459055  81.0766558  37.9377675  53.0392677
  72.0017783  44.3310398  45.1969195  72.5871220  43.5854086  45.3297099
  71.8042622  44.6414355  46.0805858  74.8556438  47.3661645  40.2131637
  74.1866814  47.8507773  39.7295677  74.7169308  47.6130866  41.1275015
  66.5935438  36.9015998  43.9173638  66.6319537  36.3679589  44.7110756
  66.0875731  36.3751204  43.2984615  78.9961707  49.4005389  46.8114295
  79.5480015  49.5637010  47.5763381  79.3367900  49.9909827  46.1394320
  73.9726200  31.7480539  47.4136180  74.0367527  32.6095370  47.0013578
  73.9093320  31.1354540  46.6808539  73.4478473  33.8203671  51.0609214
  74.0750511  33.4380749  51.6746739  72.5906391  33.6017873  51.4264907
  83.8472581  44.2266646  52.6662950  84.3912485  44.8396605  52.1717905
  83.2659426  44.7846225  53.1829963  70.2244015  35.6280100  36.9927569
  70.5197456  34.7190779  36.9394623  69.3232051  35.6067840  36.6708571
  82.1330094  47.3487364  43.7977977  82.0081234  46.5477104  43.2888923
  82.7909185  47.8433558  43.3091947  73.7538262  33.7036097  42.9755118
  73.0324848  34.3172065  42.8362591  74.5431518  34.2393862  42.8971764
  84.1965003  45.1496385  45.4257528  83.2495338  45.0301736  45.3535854
  84.5447776  44.2618883  45.5083789  76.5564576  31.0390523  49.2495769
  77.0798978  31.2852820  50.0122079  76.3376909  31.8710558  48.8298907
  71.9531857  33.3094198  37.1166894  71.6244563  32.4291577  36.9342000
  72.3071228  33.2541867  38.0043283  81.2011436  44.9449101  41.6261880
  81.0536398  44.0165808  41.8069450  82.0264929  44.9669191  41.1418955
  75.0673680  33.5967168  37.4842372  75.4069753  34.1253089  36.7620980
  75.5145801  33.9347574  38.2600938  84.8045558  45.7677659  42.7126753
  85.7292105  45.5620521  42.5751204  84.6360861  45.5194061  43.6216094
  77.7617121  31.9804219  46.9345440  77.4213941  31.1812032  47.3366120
  77.0556127  32.2805929  46.3622273  78.4133593  29.0653531  45.3872763
  79.2359662  28.5914009  45.2651653  78.6571656  29.8444015  45.8871449
  77.0541827  32.0941789  35.6835665  77.7750190  32.4723042  35.1799382
  76.4307131  32.8130666  35.7870643  81.1972950  32.7986938  36.6193997
  81.4136565  33.6811576  36.3182825  80.7167017  32.4073152  35.8899639
  75.9372172  35.7572652  43.1964742  75.7916752  36.0712955  44.0889023
  75.4597375  36.3757552  42.6435640  77.7968554  32.7475200  43.2445631
  77.7830123  31.8516293  42.9077929  78.5140983  32.7545863  43.8783917
  79.6494685  33.1812540  45.2898759  79.3912463  34.1029610  45.2883089
  79.1179726  32.7842974  45.9799223  84.5940874  46.2863327  38.0688844
  84.7677751  45.7209749  37.3162696  85.0869765  47.0864222  37.8868334
  70.4117834  38.2977996  46.1352403  69.8671302  39.0737804  46.2672677
  71.2897184  38.6448800  45.9771524  77.2005450  31.6289580  38.5133201
  77.3221362  30.7006226  38.7124089  76.9107493  31.6428266  37.6011517
  80.0696641  29.3144490  41.6499921  80.0918338  29.3783823  40.6951901
  80.4864700  28.4748999  41.8440427  90.4480265  39.0499750  39.6879144
  90.8911411  38.3007075  39.2898267  89.5706775  39.0409886  39.3052876
  85.5816046  45.6030091  35.1685742  86.2766951  46.2236784  35.3873057
  85.9239197  44.7525443  35.4438120  71.1983856  37.4247892  49.0282560
  70.4565592  37.5730528  49.6147190  70.8776600  37.6856158  48.1649309
  87.4807470  43.0529797  36.6973073  88.0058794  43.3917070  35.9722393
  87.3929822  42.1176812  36.5136208  79.1427518  46.9663870  48.8262950
  79.4514645  46.7213017  49.6985649  79.9403000  47.1710509  48.3381820
  79.1648130  49.1201780  41.0568326  78.7253121  48.6278159  41.7501183
  79.9156247  48.5774748  40.8160401  71.6440469  45.3113321  41.0592954
  72.4698489  45.0117093  40.6791598  71.2934521  44.5420943  41.5082743
  76.6122002  44.6639789  43.1290628  75.9902012  44.0010494  42.8292856
  77.2826869  44.6900921  42.4464276  69.8449074  43.2299647  42.0181888
  69.0080983  42.8021822  41.8365889  69.8172720  43.4232091  42.9552679
  76.6846530  33.1421577  52.7223134  76.7334685  34.0183700  52.3400904
  77.2269044  32.5998970  52.1494777  87.1701376  43.6862700  52.0024271
  86.3796919  43.6686839  51.4628770  86.9334730  44.2250994  52.7573308
  87.2899251  40.5355167  49.3157000  87.3397256  40.3705174  50.2572522
  87.1813174  39.6682426  48.9254880  76.1735509  43.2143713  36.6049088
  76.3223630  43.8979177  35.9515761  76.9801953  43.1948803  37.1198544
  84.5803013  36.5186095  50.6316306  85.4812876  36.3792560  50.3400304
  84.6550988  36.6840550  51.5714484  78.9145818  33.8952950  49.4769493
  78.0449128  34.1886516  49.2052081  79.1505299  34.4793395  50.1976756
  88.7917447  42.9552108  49.5599021  88.5002256  43.3182089  50.3962482
  88.1789579  42.2419117  49.3812353  89.9913130  40.5204988  42.0801591
  90.8260021  40.9594792  42.2439152  90.1272259  40.0443641  41.2609837
  87.0404636  38.0784723  48.0279079  87.5158757  38.2712369  47.2197930
  86.1170201  38.1343909  47.7822463  73.9288142  39.2408890  37.6110157
  73.6834184  38.3371220  37.8090367  74.0984057  39.2426041  36.6689635
  81.6184852  30.1132567  46.9934913  82.1366796  30.8493593  46.6681402
  81.2639985  30.4196560  47.8281672  73.1983790  34.9737248  35.1096319
  72.5053035  35.0481603  34.4536355  72.9535542  34.2097591  35.6317836
  81.8697446  26.5332849  42.5135810  82.1499200  25.8656038  43.1396236
  82.6548053  26.7261945  42.0010473  79.6730915  45.7091843  34.0760836
  79.1004882  46.3282030  33.6231308  80.2463709  46.2591205  34.6100758
  85.7406305  34.9550483  46.2607385  86.6923728  35.0548581  46.2819609
  85.5709755  34.1628752  46.7705469  83.7620684  32.0406066  46.4466786
  83.1670616  32.3211079  45.7513274  83.4770381  32.5299967  47.2183527
  82.8928175  45.9928993  35.2069418  83.8258848  45.9274555  35.4102294
  82.8051387  46.8285260  34.7483951  85.5216191  45.3094863  32.1673366
  85.4429823  44.9754727  33.0609124  86.3425858  45.8016631  32.1664838
  88.2194382  38.1756603  45.3749684  88.1870703  37.2372604  45.5609368
  88.8295006  38.2540639  44.6415509  80.0577713  37.0452656  31.4176888
  81.0036818  36.9158864  31.4865306  79.6791958  36.3067318  31.8946317
  88.3688871  34.9667646  45.4207968  87.8527920  34.1826103  45.2337896
  89.2528819  34.6386363  45.5854487  86.0299598  28.7108662  41.3803780
  85.8324419  28.4023750  42.2647112  86.6399303  29.4370301  41.5101710
  94.0370932  39.2372610  44.5155721  94.7674321  38.9757898  45.0763424
  93.4277878  38.5001332  44.5557789  92.1186229  37.3780472  45.1130172
  91.3919393  37.2436437  44.5046664  91.7033516  37.6857301  45.9186890
  79.9416406  41.0970402  52.8777545  80.8619415  41.2749001  53.0717592
  79.9065989  40.1526447  52.7257245  78.2420630  34.9702632  31.3531774
  77.3352086  34.6735745  31.4294487  78.5196612  34.6732450  30.4866060
  69.1598571  36.2908996  41.8030820  68.8401355  35.4374304  41.5105194
  68.6131999  36.5057574  42.5588787  72.9378478  39.0071437  45.5200327
  73.1564488  39.9388544  45.5388360  73.3504252  38.6479411  46.3055130
  79.8582696  29.5139522  37.5076015  79.0483425  29.1686607  37.8831261
  80.5467113  29.2047066  38.0963626  81.7873245  28.5917569  39.1300312
  82.3404283  29.0113022  39.7890335  82.0243331  27.6653317  39.1723268
  77.8106344  34.5804642  54.9103075  77.7103071  35.5298999  54.8415167
  77.5927886  34.2522881  54.0379146  77.0119415  31.8289567  31.4943753
  77.8738579  32.1544466  31.7539570  77.1969759  31.0421063  30.9816819
  69.0286831  39.9111907  43.7723942  68.3350302  39.4965860  43.2593896
  69.7759822  39.9532444  43.1757360  85.1652052  30.7018094  38.6378976
  84.5850721  31.3602898  38.2557028  84.8987984  29.8795438  38.2266393
  83.6155618  30.1023152  40.8400296  84.1155396  30.2139686  40.0314615
  84.2591226  29.7984204  41.4801105  77.6737614  38.0101781  53.7268137
  77.1904695  38.8102141  53.9332026  77.7598553  38.0209726  52.7735581
  70.9423573  39.8430161  41.6489956  70.9194262  39.9417848  40.6971840
  71.2524210  40.6895312  41.9707123  73.6010951  41.9006316  45.7636571
  74.5554205  41.8690258  45.6966502  73.4023475  41.4396940  46.5786797
  74.1910333  40.4707432  48.3307369  75.0103222  40.9651511  48.3542206
  74.4647141  39.5539400  48.3024936  83.9476930  32.8618184  37.6935324
  83.0602785  33.1467835  37.4755519  84.3630919  32.7011948  36.8462601
  87.2991466  32.8864705  41.4089663  88.0751856  33.3761158  41.6814280
  86.5739600  33.3122759  41.8661533  89.7364024  33.5992324  42.4663604
  90.3308515  33.3588060  41.7556912  89.8090608  32.8799455  43.0937140
  71.9561180  47.4425935  42.7806769  71.8215648  46.6826336  42.2144767
  71.5393242  48.1666835  42.3135558  83.0920143  42.6262859  31.7883344
  83.7955993  42.8312861  32.4041000  82.3682792  43.1939621  32.0532428
  83.9217953  38.3772720  37.9085614  83.8653155  38.8341272  37.0693247
  84.4746296  37.6163405  37.7308457  87.7322759  34.1662452  38.7335734
  87.4759694  33.7659088  39.5643941  87.1075627  34.8806246  38.6085873
  92.0435097  36.9058525  41.2407025  91.4834655  36.9751715  42.0138587
  91.4378600  36.7299510  40.5206521  85.0006840  43.0645388  33.8381804
  85.8352444  42.6326587  33.6559279  84.8391183  42.8927402  34.7658699
  84.6552733  39.5677501  35.2038143  84.6001536  39.4021773  34.2626587
  84.0298788  40.2753534  35.3600333  69.4445248  34.8045566  49.0299566
  70.0904111  34.2944520  49.5186791  69.2362399  35.5414247  49.6042991
  81.9698640  41.8726413  54.5291706  82.8389799  42.0467066  54.1678341
  81.4905391  42.6920830  54.4067436  77.9648858  29.0685610  34.7823462
  77.9527528  30.0127450  34.9391733  78.8572280  28.8855756  34.4882923
  77.8938422  47.7454501  42.8691218  76.9434053  47.7456362  42.7555591
  78.1970908  46.9987235  42.3527253  81.7800978  25.6628387  39.0369399
  81.0133373  25.1086874  39.1826081  82.1911683  25.7350256  39.8983550
  73.7842739  31.9513183  53.1274580  74.6474200  31.5949988  53.3377904
  73.2108149  31.6127078  53.8149984  93.6291116  53.5815039  43.9336981
  94.2669526  53.4621787  43.2300321  93.5111958  54.5295883  43.9924933
  90.4380822  53.5342467  43.8698506  90.0999333  53.4183532  42.9819040
  91.3070590  53.1333632  43.8499512  86.2967638  55.3877944  39.8595396
  85.7332503  55.2967881  39.0911684  86.1820033  54.5677848  40.3397889
  90.9200605  54.6877319  49.8284711  90.9089246  54.2930117  48.9565215
  91.0821244  53.9543392  50.4218482  83.8432069  56.8829135  42.6979617
  84.6353361  56.5419960  42.2825916  84.0828720  56.9924110  43.6181770
  91.8767196  59.0548911  35.1709861  91.2255176  59.6402992  34.7843875
  92.6711559  59.5855106  35.2304899  85.8022823  56.1438049  35.5696996
  86.5753699  55.5967036  35.4309872  86.1548222  57.0082298  35.7811457
  87.6407866  57.4714431  48.7763895  87.3497732  58.3760062  48.6610561
  88.2764850  57.5130958  49.4907965  88.5664073  54.8491279  45.3665255
  89.1627645  54.6247302  44.6522218  88.6239044  54.1076025  45.9690703
  88.1389101  52.3030715  33.2015446  88.3914622  51.7812236  32.4398909
  87.2013660  52.1396860  33.3042129  93.1832384  51.3066493  41.0090189
  93.9695473  50.8885916  40.6580606  93.4471088  52.2112585  41.1771837
  93.3542461  56.7439343  35.7078846  92.7188294  56.8173970  36.4199750
  93.0239868  57.3332942  35.0297925  98.5840811  51.2441726  41.9123167
  99.3165983  50.6740943  42.1460997  97.8280167  50.8563327  42.3529673
  87.8585390  54.2058821  35.4039821  87.7421648  53.5303724  36.0720905
  87.9687650  53.7191195  34.5871974  90.2016931  53.6668968  39.1086510
  89.8375138  53.1399589  39.8199431  91.0584047  53.2767437  38.9352995
  96.1066232  44.9563300  46.3717776  95.7749556  45.8258711  46.1478991
  95.5111845  44.6399584  47.0511806  89.8422418  48.6958867  34.1047858
  90.0096820  49.5639104  34.4718329  89.6519587  48.8586149  33.1809148
  92.5997751  57.1575846  45.7713689  92.2998474  58.0600885  45.6629496
  92.2548811  56.8908030  46.6234842  86.0510233  53.6089643  41.8050393
  85.1260729  53.4765857  42.0128085  86.2994646  54.3883862  42.3020336
  95.9994895  49.6758387  43.4511126  95.0911772  49.6073795  43.1569887
  95.9482491  50.1530331  44.2792952  89.8211639  51.1516525  35.0894525
  89.7011264  51.5973576  35.9280005  89.1264227  51.5001843  34.5308063
  83.4119044  53.2522917  42.6394182  83.5411425  53.5057396  43.5533594
  82.7316495  53.8450625  42.3198837  87.5818531  63.9220167  38.7384656
  87.5042561  64.8727992  38.8173137  86.9780174  63.5766039  39.3959583
  90.0735761  51.0948032  51.3946023  89.2969095  51.6541952  51.3848888
  90.7126324  51.5804815  51.9160893  97.8656541  47.8774825  45.2289000
  97.2230922  48.1707358  44.5828795  97.3611470  47.7627745  46.0342197
  95.5196705  51.6237998  35.9174859  96.4314561  51.8565385  35.7422557
  95.0106352  52.2075042  35.3549938  88.3282133  53.9033485  50.9563990
  89.0696817  54.4418529  50.6798814  87.6219118  54.5299774  51.1135542
  93.8037473  56.0462626  49.5536152  94.2120829  55.6045036  48.8090784
  93.0814734  55.4715253  49.8070345  90.1568543  50.9835233  46.9269709
  91.0029738  51.4074646  47.0704358  90.0967180  50.3268857  47.6208272
  94.1266287  56.6063817  43.3088441  93.4975150  56.7709531  42.6064509
  93.7391949  57.0205426  44.0799405  98.0055519  57.5418254  40.6632804
  97.3206557  57.9217156  40.1129838  98.0899368  58.1513581  41.3964752
  93.3067988  48.6439601  48.5850882  93.0628920  49.3981662  48.0485158
  93.5827918  49.0224949  49.4198129  95.2606451  55.1878213  47.2628148
  95.4723346  55.8309973  46.5862529  95.2136199  54.3540530  46.7950078
  92.8632680  47.7996034  44.1664720  92.0017159  48.0977288  44.4581458
  92.8895114  48.0166433  43.2345753  89.6794249  56.3438225  40.5738526
  90.1432595  56.6225928  39.7843148  89.4151047  55.4421669  40.3911616
  86.5718330  55.8909706  43.5118289  87.1419687  56.3196975  42.8735774
  87.1626442  55.6092291  44.2102475  88.6163135  52.4661377  37.3828091
  89.3187179  52.9182421  37.8502017  88.2843764  51.8245196  38.0107984
  87.0643497  51.0573134  51.7579300  86.4342157  51.7389415  51.9914697
  86.9579585  50.9456215  50.8132439  82.3588469  50.7244930  42.6845224
  81.5687523  50.9802458  42.2085335  82.8499716  51.5393268  42.7897265
  96.3752279  58.0650169  45.4350505  97.1969722  57.6630356  45.1533187
  96.3714682  57.9618403  46.3866621  84.3103215  51.0889509  39.6428701
  83.5134378  51.2008203  40.1612197  84.0828807  51.4276161  38.7769592
  90.1408882  57.6134212  47.5911216  90.2053315  58.0754619  48.4269388
  89.4319806  56.9831577  47.7193526  80.6426172  50.9775420  45.1160215
  80.8934211  51.8622430  45.3817791  81.1785721  50.7980022  44.3435307
 104.4658272  54.4088917  41.7835477 103.7121980  53.8396315  41.6279481
 104.6005813  54.3751582  42.7306111  89.8556900  59.2802320  37.4590196
  89.7202575  60.1253855  37.8875044  90.3966712  59.4821597  36.6956130
  86.3424239  45.3593899  54.1204551  85.9491185  44.8060098  54.7952196
  87.1590380  45.6704478  54.5111069  83.3086297  56.7977758  38.0318121
  83.8210818  57.5921008  38.1823686  83.9609010  56.1004048  37.9651723
  85.1181182  59.9143514  40.1140874  85.2947810  60.8361479  39.9261858
  85.9138015  59.6001933  40.5435254  89.2592200  46.7751779  51.7124808
  90.0001914  47.3758932  51.6329270  89.4910123  46.0329416  51.1542850
  84.4033538  51.9608146  49.9903038  84.2887054  51.0593403  50.2910137
  83.5478056  52.2071843  49.6387854  93.5806614  60.1828686  49.6171939
  93.5625090  61.0037567  49.1252209  94.5026534  60.0582761  49.8422081
  90.0379668  57.6972816  50.4595448  90.5708005  56.9361104  50.2294756
  89.5093749  57.4046467  51.2019602  93.2049363  42.8032882  45.9889090
  92.8613633  43.6934523  45.9128200  93.5728326  42.6134539  45.1258675
  81.2735214  55.1266412  38.8077692  82.1110436  55.5363420  38.5911399
  81.4513482  54.1865854  38.7777886  93.1699646  52.7941493  34.4961525
  92.6546270  53.5646097  34.7349912  92.8976955  52.1206629  35.1194586
  90.7546757  47.6391193  39.5546763  89.8988353  47.2498044  39.3752402
  91.1673709  47.7183154  38.6946549  92.2845904  45.1737537  43.9538323
  91.7810699  45.1367672  43.1406128  92.5776511  46.0830279  44.0134980
  88.5288790  45.2576266  42.9604505  89.3941786  45.0619075  42.6010394
  88.5966299  45.0286618  43.8873861  98.1433920  55.5473847  36.4314698
  97.3663363  55.2085007  35.9869860  98.8225401  55.5526470  35.7569663
  92.9585949  50.6668585  36.3221306  92.6536085  50.9814734  37.1731449
  93.9116391  50.7450005  36.3648639  91.4032381  56.8258808  37.9714260
  90.8753743  56.0911568  37.6587497  90.9019884  57.6033484  37.7254228
  96.3825227  55.0207829  43.0881306  95.7248902  55.7107090  43.1761435
  97.1865626  55.4104260  43.4315293  86.1351109  47.4878474  40.3320871
  86.7094861  47.2653656  39.5994064  86.7222091  47.5567169  41.0849473
  95.1930686  53.3752201  41.1385248  95.7062568  54.0082193  41.6406958
  95.8431910  52.7753397  40.7728608  86.4620696  49.5182935  34.3516757
  85.6258008  49.8557622  34.6726031  86.3225465  49.3831915  33.4143894
  88.4373776  44.3619723  39.0595941  87.7838189  44.0468740  38.4352556
  88.3954251  43.7395464  39.7855764  89.5484981  54.6439018  30.9749233
  88.6412043  54.4128272  31.1740382  90.0456013  53.8476638  31.1623214
  92.4553060  63.3536525  33.8945919  91.7814759  63.6568222  34.5030877
  92.8418882  64.1565606  33.5451376  91.6711517  50.8501657  43.3843588
  90.7534078  51.0716604  43.2265277  92.0871660  50.9247967  42.5255296
  92.4546565  52.2493072  38.5146269  93.2018383  52.7614470  38.2053391
  92.7238154  51.9277125  39.3750662  90.7273215  54.7451613  35.4973223
  89.8184434  54.4610646  35.5945693  90.7568299  55.1650692  34.6376530
  95.9592482  58.3558203  39.2664391  95.5054809  57.5149113  39.3229581
  95.3286449  58.9919601  39.6039171  94.9025402  49.2850189  40.4965058
  94.1648158  48.7727575  40.8275301  95.1552175  48.8450570  39.6848335
  94.4025421  60.1934699  40.2014209  94.6948396  60.7539756  39.4826574
  94.9124042  60.4863260  40.9567368  95.0037029  42.0626441  41.0906827
  95.3095906  41.2023804  40.8032742  95.7289634  42.6544061  40.8905821
  81.2961385  52.4657127  39.4788425  81.0985785  51.8726488  38.7539492
  80.7408049  52.1609337  40.1964364  89.2758109  52.3580234  41.5983018
  89.3306719  51.4054070  41.5225495  88.4649311  52.5139673  42.0824317
  90.4249303  56.2860357  32.8361302  89.9868732  55.5696216  32.3766939
  91.1659743  56.5136472  32.2746393  87.2150469  50.9757294  39.3573397
  86.4018334  51.2751464  39.7638589  87.7109463  50.5812982  40.0747879
  89.3659047  60.9715050  41.2907662  89.3235225  61.1975897  40.3616194
  90.2821745  60.7378425  41.4393463  92.8124680  51.4399118  48.1888291
  93.1674068  51.6670591  49.0482757  93.4596812  51.7717495  47.5665546
  98.5422417  54.5617554  38.8937620  98.4040316  54.7519150  37.9658809
  98.1858636  55.3236937  39.3505671  86.7064543  48.5475649  44.9734632
  87.3463923  48.4064408  44.2757595  85.8742074  48.2610162  44.5973234
  98.5691797  56.6294081  43.9048892  99.0028304  56.5369370  44.7531946
  99.2823378  56.6051581  43.2668908  87.4824847  57.8478079  41.0869625
  88.2765446  57.3528400  40.8852200  86.7716540  57.3195943  40.7237330
  92.3019692  60.2296175  45.4381992  92.3556714  60.7987111  46.2059708
  91.4334473  60.3998060  45.0736029  83.7907611  51.9921161  37.1629377
  82.8605199  51.9305617  37.3799339  83.8865083  51.4697114  36.3666019
  83.7093160  48.5175974  39.7507619  83.9699977  49.4321307  39.6416779
  84.5310332  48.0500417  39.9004232  85.1818085  49.9313731  46.9206443
  85.8541139  49.7231093  46.2719092  84.3547872  49.7335817  46.4811676
  99.4307346  56.6717782  46.4381777  99.6243237  57.5763592  46.6841052
  99.3307965  56.2125201  47.2720362  91.0843657  46.5575672  48.9372104
  90.4371572  47.2565622  48.8436581  91.8544673  46.9911816  49.3048353
  94.4922455  56.8224524  52.0122658  94.3407962  56.5935076  51.0952741
  94.4827135  57.7795126  52.0254003  91.2607792  54.3956437  46.9968924
  92.1899852  54.5467597  46.8237891  90.8398822  54.4840458  46.1417571
  90.0596123  58.4207101  44.7667462  89.9207209  58.0525886  45.6393400
  89.2710720  58.9354741  44.5951420  90.6544275  63.5216198  36.1092998
  90.8296031  63.0504241  36.9238621  89.9677063  64.1481964  36.3374259
  91.6101338  57.7988704  42.1556299  91.2751171  57.7589474  43.0513949
  91.1105284  57.1333420  41.6826710  85.5845582  53.2056334  47.6808881
  85.4465380  52.4736573  48.2820420  86.4950506  53.1165234  47.3993068
  94.5460530  55.1444738  32.4293359  93.9289701  54.4191567  32.3326412
  94.0777019  55.9054099  32.0860433  88.2127883  52.9176294  47.1692560
  88.9227502  52.2769486  47.1279179  88.1697191  53.1689188  48.0918741
  96.2014662  59.8543647  50.0899140  96.1427208  59.1702867  49.4229723
  96.6034180  60.5962637  49.6379766  86.9256817  49.9041511  48.9888200
  86.3894174  49.4532250  49.6409796  86.3373526  50.0387420  48.2458664
  85.2205361  66.6705561  42.8832858  85.4601959  67.3024085  43.5611877
  84.3774557  66.3193601  43.1698218  86.3359076  49.3630163  31.5514663
  85.4588542  49.2418964  31.1876910  86.8116829  48.5716241  31.2993552
  96.2032069  57.8183231  48.3213119  95.3158848  57.4809153  48.4439518
  96.7730620  57.0866262  48.5581885  77.8561216  54.1507323  41.6456171
  78.5432256  53.8369053  41.0577186  77.7009345  55.0548687  41.3723422
  82.6595938  49.0397519  46.0741194  82.5754127  48.4323189  45.3391604
  81.8378645  49.5306537  46.0750691  89.5223002  61.7156453  38.7977184
  88.7390524  62.2578133  38.8915408  90.2215747  62.2330433  39.1971425
  92.8319652  47.5251083  41.4411389  93.3288352  46.7721045  41.1212460
  92.0606634  47.5615399  40.8754599 100.6849410  53.2291448  43.0829681
 100.6739286  54.1116164  42.7123614  99.8166789  52.8762999  42.8884218
  92.1931906  62.3771517  47.4432521  92.9059878  63.0118982  47.3708423
  91.7021935  62.4735383  46.6272523  93.9149433  56.2822770  39.0149813
  92.9805712  56.4024232  38.8454517  94.0926101  55.3795237  38.7509823
  89.4154621  49.6668466  41.1683074  89.0452408  49.1139506  41.8563980
  89.9113713  49.0626599  40.6158074  97.3021984  52.1240089  39.5499847
  97.7682436  52.9568081  39.4760150  97.7529485  51.6585071  40.2545105
  95.3698215  58.4683910  36.5485999  95.6458059  58.3540505  37.4579873
  94.5002714  58.0701395  36.5098172  95.2738647  44.4920676  43.5890748
  94.3601727  44.7224903  43.7572955  95.7031748  44.5759120  44.4404781
  95.0445105  52.6810568  46.0890642  94.3916556  52.9286476  45.4343095
  95.4225485  51.8674706  45.7553120  92.0052279  62.7170261  40.1918813
  92.1874674  61.8991917  40.6546565  92.8285265  62.9337954  39.7543703
  92.3394445  61.6438446  37.4533861  92.8682211  61.1330901  36.8404023
  92.6022664  61.3280977  38.3179394  91.0932678  53.4230379  52.5756679
  90.4173316  53.3224508  53.2459055  91.9160312  53.2669593  53.0392677
  82.8411538  59.6602316  45.1969195  83.4264974  58.9146004  45.3297099
  82.6436376  59.9706272  46.0805858  85.6950193  62.6953563  40.2131637
  85.0260568  63.1799691  39.7295677  85.5563062  62.9422784  41.1275015
  84.8119955  47.0772456  47.4136180  84.8761281  47.9387287  47.0013578
  84.7487075  46.4646458  46.6808539  84.2872227  49.1495589  51.0609214
  84.9144266  48.7672666  51.6746739  83.4300146  48.9309791  51.4264907
  81.0637770  50.9572018  36.9927569  81.3591211  50.0482696  36.9394623
  80.1625806  50.9359757  36.6708571  92.9723849  62.6779282  43.7977977
  92.8474988  61.8769022  43.2888923  93.6302940  63.1725475  43.3091947
  84.5932017  49.0328015  42.9755118  83.8718603  49.6463982  42.8362591
  85.3825273  49.5685779  42.8971764  95.0358757  60.4788302  45.4257528
  94.0889093  60.3593653  45.3535854  95.3841530  59.5910800  45.5083789
  87.3958330  46.3682441  49.2495769  87.9192732  46.6144738  50.0122079
  87.1770664  47.2002476  48.8298907  82.7925611  48.6386116  37.1166894
  82.4638318  47.7583495  36.9342000  83.1464982  48.5833784  38.0043283
  92.0405190  60.2741018  41.6261880  91.8930153  59.3457726  41.8069450
  92.8658684  60.2961109  41.1418955  85.9067435  48.9259085  37.4842372
  86.2463507  49.4545007  36.7620980  86.3539555  49.2639492  38.2600938
  95.6439312  61.0969577  42.7126753  96.5685860  60.8912438  42.5751204
  95.4754616  60.8485978  43.6216094  88.6010875  47.3096136  46.9345440
  88.2607696  46.5103949  47.3366120  87.8949882  47.6097847  46.3622273
  89.2527347  44.3945449  45.3872763  90.0753417  43.9205927  45.2651653
  89.4965411  45.1735932  45.8871449  87.8935582  47.4233707  35.6835665
  88.6143944  47.8014960  35.1799382  87.2700886  48.1422584  35.7870643
  92.0366705  48.1278856  36.6193997  92.2530319  49.0103494  36.3182825
  91.5560772  47.7365069  35.8899639  86.7765926  51.0864569  43.1964742
  86.6310507  51.4004872  44.0889023  86.2991130  51.7049470  42.6435640
  88.6362309  48.0767117  43.2445631  88.6223878  47.1808211  42.9077929
  89.3534737  48.0837781  43.8783917  90.4888440  48.5104457  45.2898759
  90.2306217  49.4321528  45.2883089  89.9573480  48.1134892  45.9799223
  95.4334628  61.6155245  38.0688844  95.6071506  61.0501667  37.3162696
  95.9263520  62.4156139  37.8868334  81.2511588  53.6269914  46.1352403
  80.7065056  54.4029722  46.2672677  82.1290938  53.9740718  45.9771524
  88.0399205  46.9581498  38.5133201  88.1615116  46.0298144  38.7124089
  87.7501247  46.9720184  37.6011517  90.9090395  44.6436408  41.6499921
  90.9312092  44.7075741  40.6951901  91.3258454  43.8040917  41.8440427
 101.2874020  54.3791668  39.6879144 101.7305166  53.6298993  39.2898267
 100.4100530  54.3701804  39.3052876  96.4209801  60.9322009  35.1685742
  97.1160706  61.5528702  35.3873057  96.7632951  60.0817360  35.4438120
  82.0377610  52.7539810  49.0282560  81.2959346  52.9022445  49.6147190
  81.7170354  53.0148076  48.1649309  98.3201224  58.3821715  36.6973073
  98.8452548  58.7208987  35.9722393  98.2323577  57.4468730  36.5136208
  90.0041885  64.4493698  41.0568326  89.5646875  63.9570076  41.7501183
  90.7550002  63.9066665  40.8160401  82.4834224  60.6405239  41.0592954
  83.3092244  60.3409011  40.6791598  82.1328276  59.8712861  41.5082743
  87.4515757  59.9931707  43.1290628  86.8295766  59.3302412  42.8292856
  88.1220624  60.0192839  42.4464276  80.6842829  58.5591565  42.0181888
  79.8474737  58.1313739  41.8365889  80.6566474  58.7524008  42.9552679
  87.5240284  48.4713495  52.7223134  87.5728440  49.3475618  52.3400904
  88.0662799  47.9290888  52.1494777  98.0095130  59.0154618  52.0024271
  97.2190674  58.9978757  51.4628770  97.7728485  59.5542912  52.7573308
  98.1293005  55.8647085  49.3157000  98.1791010  55.6997092  50.2572522
  98.0206928  54.9974344  48.9254880  87.0129264  58.5435630  36.6049088
  87.1617384  59.2271095  35.9515761  87.8195707  58.5240720  37.1198544
  95.4196768  51.8478013  50.6316306  96.3206630  51.7084477  50.3400304
  95.4944742  52.0132467  51.5714484  89.7539573  49.2244867  49.4769493
  88.8842882  49.5178433  49.2052081  89.9899053  49.8085312  50.1976756
  99.6311202  58.2844026  49.5599021  99.3396010  58.6474007  50.3962482
  99.0183333  57.5711034  49.3812353 100.8306884  55.8496906  42.0801591
 101.6653776  56.2886710  42.2439152 100.9666013  55.3735559  41.2609837
  97.8798390  53.4076641  48.0279079  98.3552512  53.6004287  47.2197930
  96.9563956  53.4635827  47.7822463  84.7681897  54.5700808  37.6110157
  84.5227939  53.6663138  37.8090367  84.9377811  54.5717958  36.6689635
  92.4578607  45.4424484  46.9934913  92.9760551  46.1785511  46.6681402
  92.1033739  45.7488478  47.8281672  84.0377544  50.3029165  35.1096319
  83.3446789  50.3773520  34.4536355  83.7929296  49.5389509  35.6317836
  92.7091201  41.8624767  42.5135810  92.9892955  41.1947956  43.1396236
  93.4941808  42.0553862  42.0010473  90.5124669  61.0383761  34.0760836
  89.9398636  61.6573948  33.6231308  91.0857463  61.5883122  34.6100758
  96.5800059  50.2842401  46.2607385  97.5317482  50.3840498  46.2819609
  96.4103510  49.4920669  46.7705469  94.6014439  47.3697984  46.4466786
  94.0064371  47.6502997  45.7513274  94.3164135  47.8591885  47.2183527
  93.7321929  61.3220911  35.2069418  94.6652602  61.2566472  35.4102294
  93.6445142  62.1577178  34.7483951  96.3609946  60.6386781  32.1673366
  96.2823577  60.3046645  33.0609124  97.1819613  61.1308549  32.1664838
  99.0588137  53.5048520  45.3749684  99.0264457  52.5664521  45.5609368
  99.6688761  53.5832557  44.6415509  90.8971468  52.3744573  31.4176888
  91.8430573  52.2450782  31.4865306  90.5185713  51.6359235  31.8946317
  99.2082625  50.2959564  45.4207968  98.6921674  49.5118021  45.2337896
 100.0922574  49.9678281  45.5854487  96.8693352  44.0400579  41.3803780
  96.6718174  43.7315668  42.2647112  97.4793058  44.7662218  41.5101710
 104.8764687  54.5664527  44.5155721 105.6068075  54.3049815  45.0763424
 104.2671632  53.8293249  44.5557789 102.9579984  52.7072390  45.1130172
 102.2313148  52.5728355  44.5046664 102.5427271  53.0149218  45.9186890
  90.7810160  56.4262320  52.8777545  91.7013170  56.6040919  53.0717592
  90.7459743  55.4818365  52.7257245  89.0814385  50.2994550  31.3531774
  88.1745840  50.0027663  31.4294487  89.3590366  50.0024368  30.4866060
  79.9992325  51.6200913  41.8030820  79.6795110  50.7666221  41.5105194
  79.4525754  51.8349491  42.5588787  83.7772233  54.3363354  45.5200327
  83.9958243  55.2680462  45.5388360  84.1898007  53.9771329  46.3055130
  90.6976451  44.8431440  37.5076015  89.8877179  44.4978525  37.8831261
  91.3860868  44.5338983  38.0963626  92.6266999  43.9209486  39.1300312
  93.1798038  44.3404940  39.7890335  92.8637085  42.9945234  39.1723268
  88.6500098  49.9096560  54.9103075  88.5496825  50.8590917  54.8415167
  88.4321640  49.5814799  54.0379146  87.8513170  47.1581485  31.4943753
  88.7132334  47.4836383  31.7539570  88.0363514  46.3712981  30.9816819
  79.8680585  55.2403825  43.7723942  79.1744057  54.8257778  43.2593896
  80.6153576  55.2824361  43.1757360  96.0045806  46.0310011  38.6378976
  95.4244475  46.6894816  38.2557028  95.7381739  45.2087356  38.2266393
  94.4549372  45.4315069  40.8400296  94.9549151  45.5431604  40.0314615
  95.0984980  45.1276122  41.4801105  88.5131368  53.3393699  53.7268137
  88.0298450  54.1394059  53.9332026  88.5992307  53.3501644  52.7735581
  81.7817328  55.1722079  41.6489956  81.7588016  55.2709766  40.6971840
  82.0917964  56.0187229  41.9707123  84.4404706  57.2298234  45.7636571
  85.3947959  57.1982176  45.6966502  84.2417229  56.7688857  46.5786797
  85.0304088  55.7999350  48.3307369  85.8496977  56.2943428  48.3542206
  85.3040896  54.8831318  48.3024936  94.7870684  48.1910102  37.6935324
  93.8996539  48.4759753  37.4755519  95.2024673  48.0303865  36.8462601
  98.1385220  48.2156623  41.4089663  98.9145610  48.7053075  41.6814280
  97.4133354  48.6414677  41.8661533 100.5757779  48.9284242  42.4663604
 101.1702270  48.6879978  41.7556912 100.6484363  48.2091373  43.0937140
  82.7954935  62.7717853  42.7806769  82.6609402  62.0118254  42.2144767
  82.3786997  63.4958753  42.3135558  93.9313898  57.9554777  31.7883344
  94.6349748  58.1604779  32.4041000  93.2076546  58.5231538  32.0532428
  94.7611708  53.7064638  37.9085614  94.7046909  54.1633189  37.0693247
  95.3140050  52.9455322  37.7308457  98.5716514  49.4954370  38.7335734
  98.3153448  49.0951005  39.5643941  97.9469382  50.2098164  38.6085873
 102.8828852  52.2350443  41.2407025 102.3228410  52.3043632  42.0138587
 102.2772355  52.0591428  40.5206521  85.9524060  63.6687170  42.9925211
  85.8356445  64.6132603  42.8903902  85.1316507  63.3660732  43.3811011
  95.8400595  58.3937306  33.8381804  96.6746199  57.9618504  33.6559279
  95.6784938  58.2219319  34.7658699  95.4946487  54.8969419  35.2038143
  95.4395291  54.7313690  34.2626587  94.8692542  55.6045452  35.3600333
  80.2839002  50.1337483  49.0299566  80.9297866  49.6236437  49.5186791
  80.0756153  50.8706165  49.6042991  92.8092394  57.2018331  54.5291706
  93.6783554  57.3758983  54.1678341  92.3299146  58.0212748  54.4067436
  88.8042613  44.3977528  34.7823462  88.7921282  45.3419368  34.9391733
  89.6966034  44.2147673  34.4882923  88.7332177  63.0746418  42.8691218
  87.7827808  63.0748280  42.7555591  89.0364663  62.3279153  42.3527253
  92.6194732  40.9920305  39.0369399  91.8527128  40.4378791  39.1826081
  93.0305437  41.0642173  39.8983550  84.6236493  47.2805101  53.1274580
  85.4867955  46.9241905  53.3377904  84.0501904  46.9418995  53.8149984
 104.4684870  68.9106957  43.9336981 105.1063280  68.7913704  43.2300321
 104.3505713  69.8587801  43.9924933 101.2774576  68.8634385  43.8698506
 100.9393088  68.7475450  42.9819040 102.1464345  68.4625550  43.8499512
  97.1361392  70.7169861  39.8595396  96.5726257  70.6259798  39.0911684
  97.0213787  69.8969766  40.3397889  94.6825824  72.2121053  42.6979617
  95.4747116  71.8711878  42.2825916  94.9222474  72.3216028  43.6181770
  96.6416578  71.4729966  35.5696996  97.4147454  70.9258953  35.4309872
  96.9941977  72.3374216  35.7811457  98.9782856  67.6322632  33.2015446
  99.2308376  67.1104154  32.4398909  98.0407415  67.4688778  33.3042129
 104.0226139  66.6358411  41.0090189 104.8089228  66.2177834  40.6580606
 104.2864843  67.5404503  41.1771837 109.4234566  66.5733644  41.9123167
 110.1559738  66.0032861  42.1460997 108.6673921  66.1855244  42.3529673
  98.6979144  69.5350738  35.4039821  98.5815403  68.8595642  36.0720905
  98.8081404  69.0483112  34.5871974 101.0410685  68.9960885  39.1086510
 100.6768893  68.4691506  39.8199431 101.8977801  68.6059354  38.9352995
 106.9459986  60.2855218  46.3717776 106.6143311  61.1550629  46.1478991
 106.3505599  59.9691502  47.0511806 100.6816172  64.0250785  34.1047858
 100.8490575  64.8931022  34.4718329 100.4913341  64.1878067  33.1809148
  96.8903987  68.9381561  41.8050393  95.9654484  68.8057775  42.0128085
  97.1388400  69.7175780  42.3020336 106.8388649  65.0050304  43.4511126
 105.9305527  64.9365713  43.1569887 106.7876245  65.4822249  44.2792952
 100.6605393  66.4808443  35.0894525 100.5405018  66.9265493  35.9280005
  99.9657982  66.8293760  34.5308063  94.2512798  68.5814834  42.6394182
  94.3805179  68.8349313  43.5533594  93.5710249  69.1742542  42.3198837
 100.9129515  66.4239950  51.3946023 100.1362849  66.9833870  51.3848888
 101.5520078  66.9096733  51.9160893 108.7050296  63.2066743  45.2289000
 108.0624676  63.4999276  44.5828795 108.2005224  63.0919663  46.0342197
 106.3590459  66.9529916  35.9174859 107.2708316  67.1857303  35.7422557
 105.8500106  67.5366960  35.3549938 100.9962297  66.3127150  46.9269709
 101.8423492  66.7366564  47.0704358 100.9360935  65.6560775  47.6208272
 104.9660042  71.9355734  43.3088441 104.3368904  72.1001448  42.6064509
 104.5785704  72.3497344  44.0799405 104.1461742  63.9731519  48.5850882
 103.9022674  64.7273579  48.0485158 104.4221673  64.3516866  49.4198129
 106.1000205  70.5170131  47.2628148 106.3117100  71.1601891  46.5862529
 106.0529953  69.6832448  46.7950078 103.7026434  63.1287952  44.1664720
 102.8410913  63.4269205  44.4581458 103.7288869  63.3458351  43.2345753
  97.4112085  71.2201624  43.5118289  97.9813442  71.6488892  42.8735774
  98.0020197  70.9384209  44.2102475  99.4556890  67.7953295  37.3828091
 100.1580933  68.2474338  37.8502017  99.1237518  67.1537114  38.0107984
  93.1982224  66.0536847  42.6845224  92.4081278  66.3094376  42.2085335
  93.6893471  66.8685185  42.7897265  95.1496969  66.4181427  39.6428701
  94.3528132  66.5300121  40.1612197  94.9222561  66.7568079  38.7769592
  91.4819927  66.3067338  45.1160215  91.7327965  67.1914348  45.3817791
  92.0179475  66.1271939  44.3435307 115.3052026  69.7380835  41.7835477
 114.5515735  69.1688233  41.6279481 115.4399567  69.7043500  42.7306111
  97.1817994  60.6885817  54.1204551  96.7884939  60.1352016  54.7952196
  97.9984134  60.9996396  54.5111069  94.1480052  72.1269675  38.0318121
  94.6604572  72.9212926  38.1823686  94.8002764  71.4295966  37.9651723
  95.9574936  75.2435432  40.1140874  96.1341565  76.1653396  39.9261858
  96.7531770  74.9293851  40.5435254 100.0985955  62.1043696  51.7124808
 100.8395668  62.7050849  51.6329270 100.3303878  61.3621334  51.1542850
  95.2427293  67.2900064  49.9903038  95.1280808  66.3885321  50.2910137
  94.3871811  67.5363760  49.6387854  97.0806252  76.7613605  46.1151217
  97.6313677  76.6330669  45.3428211  96.2417728  77.0608494  45.7646110
 104.0443118  58.1324799  45.9889090 103.7007387  59.0226441  45.9128200
 104.4122080  57.9426457  45.1258675  92.1128968  70.4558330  38.8077692
  92.9504190  70.8655338  38.5911399  92.2907236  69.5157772  38.7777886
 104.0093401  68.1233410  34.4961525 103.4940024  68.8938015  34.7349912
 103.7370709  67.4498546  35.1194586 101.5940512  62.9683111  39.5546763
 100.7382108  62.5789961  39.3752402 102.0067463  63.0475072  38.6946549
 103.1239658  60.5029454  43.9538323 102.6204454  60.4659590  43.1406128
 103.4170265  61.4122197  44.0134980  99.3682544  60.5868184  42.9604505
 100.2335541  60.3910993  42.6010394  99.4360053  60.3578536  43.8873861
 108.9827675  70.8765765  36.4314698 108.2057117  70.5376924  35.9869860
 109.6619156  70.8818388  35.7569663 103.7979704  65.9960502  36.3221306
 103.4929839  66.3106652  37.1731449 104.7510146  66.0741922  36.3648639
 107.2218982  70.3499746  43.0881306 106.5642656  71.0399008  43.1761435
 108.0259381  70.7396178  43.4315293  96.9744863  62.8170392  40.3320871
  97.5488615  62.5945573  39.5994064  97.5615846  62.8859087  41.0849473
 106.0324440  68.7044119  41.1385248 106.5456322  69.3374111  41.6406958
 106.6825664  68.1045314  40.7728608  97.3014450  64.8474853  34.3516757
  96.4651763  65.1849540  34.6726031  97.1619220  64.7123833  33.4143894
  99.2767531  59.6911641  39.0595941  98.6231943  59.3760658  38.4352556
  99.2348005  59.0687381  39.7855764 100.3878736  69.9730936  30.9749233
  99.4805798  69.7420189  31.1740382 100.8849768  69.1768555  31.1623214
 102.5105271  66.1793574  43.3843588 101.5927833  66.4008521  43.2265277
 102.9265415  66.2539885  42.5255296 103.2940319  67.5784990  38.5146269
 104.0412138  68.0906387  38.2053391 103.5631909  67.2569043  39.3750662
 101.5666969  70.0743531  35.4973223 100.6578188  69.7902564  35.5945693
 101.5962053  70.4942609  34.6376530 105.7419156  64.6142106  40.4965058
 105.0041913  64.1019493  40.8275301 105.9945930  64.1742488  39.6848335
 105.8430783  57.3918358  41.0906827 106.1489660  56.5315722  40.8032742
 106.5683388  57.9835979  40.8905821  92.1355140  67.7949045  39.4788425
  91.9379539  67.2018406  38.7539492  91.5801804  67.4901255  40.1964364
 100.1151863  67.6872151  41.5983018 100.1700473  66.7345988  41.5225495
  99.3043065  67.8431591  42.0824317  98.0544223  66.3049211  39.3573397
  97.2412089  66.6043382  39.7638589  98.5503217  65.9104900  40.0747879
 103.6518435  66.7691036  48.1888291 104.0067823  66.9962509  49.0482757
 104.2990566  67.1009412  47.5665546 109.3816172  69.8909472  38.8937620
 109.2434070  70.0811068  37.9658809 109.0252391  70.6528854  39.3505671
  97.5458298  63.8767567  44.9734632  98.1857677  63.7356326  44.2757595
  96.7135828  63.5902080  44.5973234 109.4085551  71.9585999  43.9048892
 109.8422058  71.8661288  44.7531946 110.1217132  71.9343499  43.2668908
  98.3218602  73.1769997  41.0869625  99.1159200  72.6820317  40.8852200
  97.6110294  72.6487860  40.7237330  94.6301365  67.3213079  37.1629377
  93.6998953  67.2597534  37.3799339  94.7258837  66.7989032  36.3666019
  94.5486914  63.8467892  39.7507619  94.8093732  64.7613225  39.6416779
  95.3704087  63.3792334  39.9004232  96.0211840  65.2605649  46.9206443
  96.6934893  65.0523011  46.2719092  95.1941626  65.0627735  46.4811676
 110.2701101  72.0009699  46.4381777 110.4636991  72.9055510  46.6841052
 110.1701719  71.5417118  47.2720362 101.9237412  61.8867590  48.9372104
 101.2765327  62.5857539  48.8436581 102.6938427  62.3203734  49.3048353
 100.8989878  73.7499019  44.7667462 100.7600964  73.3817804  45.6393400
 100.1104474  74.2646659  44.5951420 102.4495093  73.1280622  42.1556299
 102.1144926  73.0881392  43.0513949 101.9499039  72.4625338  41.6826710
 105.3854285  70.4736656  32.4293359 104.7683455  69.7483484  32.3326412
 104.9170773  71.2346016  32.0860433  97.7650572  65.2333429  48.9888200
  97.2287929  64.7824168  49.6409796  97.1767280  65.3679338  48.2458664
  97.1752831  64.6922080  31.5514663  96.2982297  64.5710881  31.1876910
  97.6510584  63.9008159  31.2993552  88.6954971  69.4799240  41.6456171
  89.3826011  69.1660970  41.0577186  88.5403099  70.3840605  41.3723422
  93.4989693  64.3689437  46.0741194  93.4147882  63.7615106  45.3391604
  92.6772399  64.8598455  46.0750691 103.6713407  62.8543000  41.4411389
 104.1682106  62.1012963  41.1212460 102.9000388  62.8907317  40.8754599
 111.5243164  68.5583366  43.0829681 111.5133040  69.4408081  42.7123614
 110.6560544  68.2054917  42.8884218 100.2548375  64.9960383  41.1683074
  99.8846163  64.4431424  41.8563980 100.7507468  64.3918517  40.6158074
 108.1415739  67.4532007  39.5499847 108.6076191  68.2859998  39.4760150
 108.5923239  66.9876988  40.2545105 106.1132401  59.8212594  43.5890748
 105.1995481  60.0516821  43.7572955 106.5425503  59.9051038  44.4404781
 105.8838860  68.0102486  46.0890642 105.2310310  68.2578393  45.4343095
 106.2619240  67.1966624  45.7553120  93.6805292  74.9894233  45.1969195
  94.2658729  74.2437921  45.3297099  93.4830131  75.2998190  46.0805858
  88.2722947  67.5599834  43.9173638  88.3107046  67.0263424  44.7110756
  87.7663240  67.0335039  43.2984615  95.6513709  62.4064374  47.4136180
  95.7155036  63.2679205  47.0013578  95.5880829  61.7938376  46.6808539
  95.1265982  64.4787507  51.0609214  95.7538020  64.0964584  51.6746739
  94.2693900  64.2601709  51.4264907  91.9031524  66.2863936  36.9927569
  92.1984965  65.3774614  36.9394623  91.0019560  66.2651675  36.6708571
  95.4325771  64.3619932  42.9755118  94.7112357  64.9755900  42.8362591
  96.2219027  64.8977697  42.8971764  98.2352085  61.6974359  49.2495769
  98.7586487  61.9436655  50.0122079  98.0164418  62.5294394  48.8298907
  93.6319366  63.9678033  37.1166894  93.3032072  63.0875412  36.9342000
  93.9858737  63.9125702  38.0043283  96.7461189  64.2551003  37.4842372
  97.0857262  64.7836924  36.7620980  97.1933310  64.5931409  38.2600938
  99.4404630  62.6388054  46.9345440  99.1001450  61.8395867  47.3366120
  98.7343636  62.9389765  46.3622273 100.0921102  59.7237366  45.3872763
 100.9147171  59.2497845  45.2651653 100.3359165  60.5027850  45.8871449
  98.7329336  62.7525625  35.6835665  99.4537699  63.1306878  35.1799382
  98.1094640  63.4714502  35.7870643 102.8760459  63.4570774  36.6193997
 103.0924074  64.3395412  36.3182825 102.3954526  63.0656987  35.8899639
  97.6159681  66.4156487  43.1964742  97.4704261  66.7296790  44.0889023
  97.1384884  67.0341387  42.6435640  99.4756063  63.4059035  43.2445631
  99.4617632  62.5100128  42.9077929 100.1928492  63.4129699  43.8783917
 101.3282194  63.8396375  45.2898759 101.0699972  64.7613446  45.2883089
 100.7967234  63.4426810  45.9799223  92.0905343  68.9561831  46.1352403
  91.5458811  69.7321639  46.2672677  92.9684693  69.3032636  45.9771524
  98.8792959  62.2873415  38.5133201  99.0008871  61.3590061  38.7124089
  98.5895002  62.3012101  37.6011517 101.7484150  59.9728326  41.6499921
 101.7705847  60.0367659  40.6951901 102.1652209  59.1332834  41.8440427
 112.1267774  69.7083585  39.6879144 112.5698920  68.9590910  39.2898267
 111.2494284  69.6993722  39.3052876  93.3227978  75.9697156  41.0592954
  94.1485998  75.6700928  40.6791598  92.9722030  75.2004779  41.5082743
  98.2909511  75.3223625  43.1290628  97.6689521  74.6594330  42.8292856
  98.9614378  75.3484756  42.4464276  91.5236583  73.8883483  42.0181888
  90.6868492  73.4605657  41.8365889  91.4960229  74.0815926  42.9552679
  98.3634039  63.8005413  52.7223134  98.4122194  64.6767535  52.3400904
  98.9056553  63.2582806  52.1494777 100.5933327  64.5536785  49.4769493
  99.7236637  64.8470351  49.2052081 100.8292808  65.1377230  50.1976756
 111.6700639  71.1788824  42.0801591 112.5047530  71.6178628  42.2439152
 111.8059768  70.7027477  41.2609837 108.7192145  68.7368558  48.0279079
 109.1946266  68.9296205  47.2197930 107.7957710  68.7927744  47.7822463
  95.6075651  69.8992726  37.6110157  95.3621693  68.9955056  37.8090367
  95.7771566  69.9009876  36.6689635 103.2972361  60.7716402  46.9934913
 103.8154305  61.5077429  46.6681402 102.9427494  61.0780395  47.8281672
  94.8771299  65.6321083  35.1096319  94.1840544  65.7065438  34.4536355
  94.6323051  64.8681427  35.6317836 103.5484955  57.1916684  42.5135810
 103.8286709  56.5239874  43.1396236 104.3335562  57.3845780  42.0010473
 107.4193814  65.6134318  46.2607385 108.3711237  65.7132416  46.2819609
 107.2497264  64.8212587  46.7705469 105.4408193  62.6989902  46.4466786
 104.8458125  62.9794914  45.7513274 105.1557890  63.1883803  47.2183527
 107.2003700  75.9678699  32.1673366 107.1217332  75.6338562  33.0609124
 108.0213367  76.4600467  32.1664838 109.8981891  68.8340438  45.3749684
 109.8658212  67.8956439  45.5609368 110.5082515  68.9124475  44.6415509
 101.7365222  67.7036491  31.4176888 102.6824327  67.5742699  31.4865306
 101.3579467  66.9651153  31.8946317 110.0476380  65.6251482  45.4207968
 109.5315429  64.8409938  45.2337896 110.9316328  65.2970198  45.5854487
 107.7087107  59.3692497  41.3803780 107.5111928  59.0607585  42.2647112
 108.3186812  60.0954136  41.5101710 115.7158441  69.8956445  44.5155721
 116.4461830  69.6341733  45.0763424 115.1065387  69.1585167  44.5557789
 113.7973738  68.0364308  45.1130172 113.0706902  67.9020272  44.5046664
 113.3821025  68.3441136  45.9186890  99.9208139  65.6286467  31.3531774
  99.0139595  65.3319580  31.4294487 100.1984120  65.3316286  30.4866060
  90.8386080  66.9492831  41.8030820  90.5188864  66.0958139  41.5105194
  90.2919508  67.1641409  42.5588787 101.5370205  60.1723357  37.5076015
 100.7270934  59.8270442  37.8831261 102.2254622  59.8630901  38.0963626
 103.4660753  59.2501404  39.1300312 104.0191792  59.6696857  39.7890335
 103.7030840  58.3237152  39.1723268  98.6906924  62.4873403  31.4943753
  99.5526088  62.8128301  31.7539570  98.8757268  61.7004899  30.9816819
  90.7074340  70.5695742  43.7723942  90.0137811  70.1549695  43.2593896
  91.4547331  70.6116279  43.1757360 106.8439561  61.3601929  38.6378976
 106.2638230  62.0186733  38.2557028 106.5775493  60.5379274  38.2266393
 105.2943127  60.7606987  40.8400296 105.7942905  60.8723521  40.0314615
 105.9378735  60.4568040  41.4801105  92.6211082  70.5013996  41.6489956
  92.5981770  70.6001683  40.6971840  92.9311719  71.3479147  41.9707123
 105.6264439  63.5202020  37.6935324 104.7390294  63.8051670  37.4755519
 106.0418428  63.3595783  36.8462601 108.9778975  63.5448541  41.4089663
 109.7539365  64.0344993  41.6814280 108.2527109  63.9706595  41.8661533
 111.4151533  64.2576160  42.4663604 112.0096024  64.0171896  41.7556912
 111.4878117  63.5383290  43.0937140  93.6348689  78.1009771  42.7806769
  93.5003157  77.3410172  42.2144767  93.2180751  78.8250671  42.3135558
 105.6005462  69.0356555  37.9085614 105.5440664  69.4925107  37.0693247
 106.1533805  68.2747240  37.7308457 109.4110268  64.8246287  38.7335734
 109.1547202  64.4242923  39.5643941 108.7863136  65.5390081  38.6085873
 113.7222606  67.5642361  41.2407025 113.1622164  67.6335550  42.0138587
 113.1166109  67.3883345  40.5206521  96.7917815  78.9979088  42.9925211
  96.6750199  79.9424520  42.8903902  95.9710261  78.6952649  43.3811011
  99.6436367  59.7269446  34.7823462  99.6315037  60.6711286  34.9391733
 100.5359789  59.5439591  34.4882923  99.5725931  78.4038336  42.8691218
  98.6221562  78.4040198  42.7555591  99.8758417  77.6571071  42.3527253
 103.4588487  56.3212222  39.0369399 102.6920882  55.7670709  39.1826081
 103.8699192  56.3934091  39.8983550  95.4630248  62.6097018  53.1274580
  96.3261709  62.2533823  53.3377904  94.8895658  62.2710913  53.8149984
 115.3078625  84.2398875  43.9336981 115.9457035  84.1205622  43.2300321
 115.1899467  85.1879718  43.9924933 112.1168331  84.1926303  43.8698506
 111.7786842  84.0767367  42.9819040 112.9858099  83.7917468  43.8499512
 107.9755147  86.0461779  39.8595396 107.4120012  85.9551716  39.0911684
 107.8607542  85.2261684  40.3397889 105.5219578  87.5412971  42.6979617
 106.3140870  87.2003795  42.2825916 105.7616229  87.6507946  43.6181770
 113.5554705  89.7132747  35.1709861 112.9042685  90.2986827  34.7843875
 114.3499068  90.2438942  35.2304899 107.4810332  86.8021884  35.5696996
 108.2541208  86.2550871  35.4309872 107.8335731  87.6666133  35.7811457
 109.8176610  82.9614550  33.2015446 110.0702131  82.4396071  32.4398909
 108.8801169  82.7980695  33.3042129 114.8619893  81.9650328  41.0090189
 115.6482982  81.5469752  40.6580606 115.1258597  82.8696421  41.1771837
 115.0329970  87.4023179  35.7078846 114.3975803  87.4757805  36.4199750
 114.7027377  87.9916778  35.0297925 120.2628320  81.9025562  41.9123167
 120.9953492  81.3324778  42.1460997 119.5067676  81.5147162  42.3529673
 109.5372899  84.8642656  35.4039821 109.4209157  84.1887559  36.0720905
 109.6475159  84.3775030  34.5871974 111.8804440  84.3252803  39.1086510
 111.5162647  83.7983424  39.8199431 112.7371556  83.9351272  38.9352995
 117.7853741  75.6147136  46.3717776 117.4537065  76.4842547  46.1478991
 117.1899354  75.2983420  47.0511806 111.5209927  79.3542703  34.1047858
 111.6884329  80.2222939  34.4718329 111.3307096  79.5169984  33.1809148
 114.2785260  87.8159682  45.7713689 113.9785983  88.7184720  45.6629496
 113.9336320  87.5491865  46.6234842 107.7297742  84.2673479  41.8050393
 106.8048238  84.1349693  42.0128085 107.9782155  85.0467698  42.3020336
 111.4999148  81.8100360  35.0894525 111.3798773  82.2557411  35.9280005
 110.8051736  82.1585678  34.5308063 105.0906553  83.9106752  42.6394182
 105.2198934  84.1641231  43.5533594 104.4104004  84.5034460  42.3198837
 109.2606040  94.5804002  38.7384656 109.1830070  95.5311827  38.8173137
 108.6567683  94.2349875  39.3959583 119.5444050  78.5358660  45.2289000
 118.9018430  78.8291193  44.5828795 119.0398979  78.4211581  46.0342197
 117.1984214  82.2821833  35.9174859 118.1102070  82.5149220  35.7422557
 116.6893861  82.8658878  35.3549938 115.4824982  86.7046461  49.5536152
 115.8908338  86.2628872  48.8090784 114.7602243  86.1299089  49.8070345
 115.8053796  87.2647652  43.3088441 115.1762659  87.4293366  42.6064509
 115.4179458  87.6789261  44.0799405 119.6843028  88.2002090  40.6632804
 118.9994066  88.5800991  40.1129838 119.7686877  88.8097416  41.3964752
 116.9393960  85.8462049  47.2628148 117.1510855  86.4893809  46.5862529
 116.8923708  85.0124365  46.7950078 111.3581758  87.0022060  40.5738526
 111.8220104  87.2809763  39.7843148 111.0938556  86.1005505  40.3911616
 108.2505839  86.5493542  43.5118289 108.8207196  86.9780810  42.8735774
 108.8413951  86.2676126  44.2102475 110.2950644  83.1245212  37.3828091
 110.9974687  83.5766256  37.8502017 109.9631273  82.4829031  38.0107984
 118.0539788  88.7234004  45.4350505 118.8757231  88.3214191  45.1533187
 118.0502191  88.6202238  46.3866621 105.9890723  81.7473344  39.6428701
 105.1921887  81.8592039  40.1612197 105.7616316  82.0859996  38.7769592
 126.1445781  85.0672753  41.7835477 125.3909489  84.4980151  41.6279481
 126.2793322  85.0335417  42.7306111 111.5344409  89.9386155  37.4590196
 111.3990084  90.7837691  37.8875044 112.0754221  90.1405433  36.6956130
 104.9873806  87.4561593  38.0318121 105.4998327  88.2504843  38.1823686
 105.6396519  86.7587883  37.9651723 106.7968691  90.5727349  40.1140874
 106.9735319  91.4945314  39.9261858 107.5925524  90.2585769  40.5435254
 113.1612885  90.5609722  51.5890538 112.7176739  89.7746100  51.2711443
 113.8230099  90.7488872  50.9234429 107.9200006  92.0905523  46.1151217
 108.4707431  91.9622586  45.3428211 107.0811482  92.3900412  45.7646110
 115.2594123  90.8412521  49.6171939 115.2412599  91.6621402  49.1252209
 116.1814043  90.7166597  49.8422081 114.8836872  73.4616717  45.9889090
 114.5401142  74.3518359  45.9128200 115.2515835  73.2718375  45.1258675
 102.9522723  85.7850247  38.8077692 103.7897945  86.1947256  38.5911399
 103.1300991  84.8449689  38.7777886 114.8487155  83.4525328  34.4961525
 114.3333778  84.2229933  34.7349912 114.5764464  82.7790464  35.1194586
 112.4334266  78.2975029  39.5546763 111.5775862  77.9081879  39.3752402
 112.8461218  78.3766990  38.6946549 113.9633413  75.8321372  43.9538323
 113.4598208  75.7951507  43.1406128 114.2564020  76.7414115  44.0134980
 119.8221429  86.2057683  36.4314698 119.0450872  85.8668842  35.9869860
 120.5012910  86.2110306  35.7569663 114.6373458  81.3252420  36.3221306
 114.3323594  81.6398569  37.1731449 115.5903900  81.4033840  36.3648639
 113.0819890  87.4842643  37.9714260 112.5541252  86.7495403  37.6587497
 112.5807393  88.2617320  37.7254228 118.0612736  85.6791664  43.0881306
 117.4036411  86.3690925  43.1761435 118.8653135  86.0688096  43.4315293
 116.8718195  84.0336037  41.1385248 117.3850077  84.6666028  41.6406958
 117.5219419  83.4337232  40.7728608 108.1408205  80.1766771  34.3516757
 107.3045517  80.5141457  34.6726031 108.0012974  80.0415750  33.4143894
 111.2272490  85.3022854  30.9749233 110.3199552  85.0712107  31.1740382
 111.7243522  84.5060473  31.1623214 114.1340569  94.0120361  33.8945919
 113.4602268  94.3152058  34.5030877 114.5206391  94.8149441  33.5451376
 114.1334074  82.9076908  38.5146269 114.8805892  83.4198305  38.2053391
 114.4025663  82.5860961  39.3750662 112.4060724  85.4035449  35.4973223
 111.4971943  85.1194481  35.5945693 112.4355807  85.8234527  34.6376530
 117.6379991  89.0142038  39.2664391 117.1842318  88.1732948  39.3229581
 117.0073958  89.6503436  39.6039171 116.5812911  79.9434024  40.4965058
 115.8435667  79.4311410  40.8275301 116.8339684  79.5034406  39.6848335
 116.0812930  90.8518535  40.2014209 116.3735905  91.4123592  39.4826574
 116.5911551  91.1447096  40.9567368 116.6824538  72.7210276  41.0906827
 116.9883415  71.8607639  40.8032742 117.4077143  73.3127896  40.8905821
 110.9545618  83.0164069  41.5983018 111.0094228  82.0637906  41.5225495
 110.1436820  83.1723508  42.0824317 112.1036811  86.9444192  32.8361302
 111.6656241  86.2280051  32.3766939 112.8447252  87.1720307  32.2746393
 108.8937978  81.6341129  39.3573397 108.0805843  81.9335299  39.7638589
 109.3896972  81.2396818  40.0747879 111.0446556  91.6298886  41.2907662
 111.0022734  91.8559732  40.3616194 111.9609254  91.3962260  41.4393463
 120.2209926  85.2201389  38.8937620 120.0827825  85.4102985  37.9658809
 119.8646145  85.9820772  39.3505671 120.2479306  87.2877916  43.9048892
 120.6815813  87.1953205  44.7531946 120.9610887  87.2635417  43.2668908
 109.1612356  88.5061915  41.0869625 109.9552955  88.0112235  40.8852200
 108.4504049  87.9779778  40.7237330 113.9807201  90.8880010  45.4381992
 114.0344223  91.4570947  46.2059708 113.1121982  91.0581895  45.0736029
 121.1094855  87.3301617  46.4381777 121.3030746  88.2347427  46.6841052
 121.0095474  86.8709036  47.2720362 116.1709964  87.4808360  52.0122658
 116.0195471  87.2518911  51.0952741 116.1614644  88.4378961  52.0254003
 111.7383632  89.0790937  44.7667462 111.5994718  88.7109721  45.6393400
 110.9498229  89.5938576  44.5951420 112.3331784  94.1800033  36.1092998
 112.5083540  93.7088076  36.9238621 111.6464572  94.8065799  36.3374259
 113.2888847  88.4572539  42.1556299 112.9538680  88.4173309  43.0513949
 112.7892793  87.7917255  41.6826710 116.2248039  85.8028574  32.4293359
 115.6077210  85.0775402  32.3326412 115.7564528  86.5637934  32.0860433
 117.8802171  90.5127482  50.0899140 117.8214717  89.8286702  49.4229723
 118.2821689  91.2546472  49.6379766 106.8992870  97.3289396  42.8832858
 107.1389468  97.9607920  43.5611877 106.0562066  96.9777436  43.1698218
 108.0146585  80.0213998  31.5514663 107.1376051  79.9002799  31.1876910
 108.4904338  79.2300076  31.2993552 117.8819578  88.4767066  48.3213119
 116.9946357  88.1392988  48.4439518 118.4518129  87.7450097  48.5581885
 111.4120731  93.1368518  45.2874362 111.3390903  93.9423490  45.7993667
 110.9698125  93.3360484  44.4622384 111.2010511  92.3740289  38.7977184
 110.4178033  92.9161969  38.8915408 111.9003256  92.8914268  39.1971425
 114.5107161  78.1834918  41.4411389 115.0075861  77.4304880  41.1212460
 113.7394143  78.2199235  40.8754599 122.3636919  83.8875283  43.0829681
 122.3526795  84.7699999  42.7123614 121.4954298  83.5346834  42.8884218
 113.8719415  93.0355353  47.4432521 114.5847387  93.6702817  47.3708423
 113.3809444  93.1319218  46.6272523 115.5936942  86.9406605  39.0149813
 114.6593221  87.0608068  38.8454517 115.7713610  86.0379072  38.7509823
 111.0942130  80.3252301  41.1683074 110.7239917  79.7723341  41.8563980
 111.5901222  79.7210434  40.6158074 118.9809493  82.7823924  39.5499847
 119.4469945  83.6151916  39.4760150 119.4316994  82.3168906  40.2545105
 117.0485724  89.1267746  36.5485999 117.3245568  89.0124340  37.4579873
 116.1790223  88.7285231  36.5098172 116.9526156  75.1504511  43.5890748
 116.0389236  75.3808738  43.7572955 117.3819257  75.2342956  44.4404781
 113.6839788  93.3754097  40.1918813 113.8662183  92.5575753  40.6546565
 114.5072774  93.5921789  39.7543703 114.0181954  92.3022282  37.4533861
 114.5469720  91.7914736  36.8404023 114.2810173  91.9864812  38.3179394
 104.5199047  90.3186151  45.1969195 105.1052483  89.5729839  45.3297099
 104.3223885  90.6290108  46.0805858 107.3737702  93.3537398  40.2131637
 106.7048077  93.8383526  39.7295677 107.2350571  93.6006619  41.1275015
 111.5142970  95.3881142  46.8114295 112.0661278  95.5512763  47.5763381
 111.8549164  95.9785580  46.1394320 116.3653845  90.2142399  52.6662950
 116.9093749  90.8272358  52.1717905 115.7840690  90.7721978  53.1829963
 114.6511358  93.3363117  43.7977977 114.5262497  92.5352857  43.2888923
 115.3090449  93.8309311  43.3091947 116.7146266  91.1372138  45.4257528
 115.7676602  91.0177489  45.3535854 117.0629039  90.2494636  45.5083789
 113.7192699  90.9324854  41.6261880 113.5717662  90.0041561  41.8069450
 114.5446193  90.9544944  41.1418955 107.5854944  79.5842921  37.4842372
 107.9251016  80.1128842  36.7620980 108.0327064  79.9223327  38.2600938
 117.3226821  91.7553412  42.7126753 118.2473369  91.5496274  42.5751204
 117.1542125  91.5069814  43.6216094 109.5723091  78.0817542  35.6835665
 110.2931453  78.4598795  35.1799382 108.9488395  78.8006419  35.7870643
 113.7154214  78.7862691  36.6193997 113.9317828  79.6687329  36.3182825
 113.2348281  78.3948905  35.8899639 108.4553435  81.7448405  43.1964742
 108.3098016  82.0588708  44.0889023 107.9778639  82.3633305  42.6435640
 117.1122137  92.2739080  38.0688844 117.2859015  91.7085502  37.3162696
 117.6051029  93.0739975  37.8868334 102.9299097  84.2853749  46.1352403
 102.3852565  85.0613557  46.2672677 103.8078447  84.6324554  45.9771524
 109.7186714  77.6165333  38.5133201 109.8402625  76.6881979  38.7124089
 109.4288756  77.6304019  37.6011517 112.5877904  75.3020243  41.6499921
 112.6099601  75.3659576  40.6951901 113.0045963  74.4624752  41.8440427
 122.9661529  85.0375503  39.6879144 123.4092675  84.2882828  39.2898267
 122.0888039  85.0285639  39.3052876 118.0997310  91.5905844  35.1685742
 118.7948214  92.2112537  35.3873057 118.4420460  90.7401196  35.4438120
 119.9988733  89.0405550  36.6973073 120.5240057  89.3792823  35.9722393
 119.9111086  88.1052565  36.5136208 111.6608782  92.9539624  48.8262950
 111.9695908  92.7088770  49.6985649 112.4584264  93.1586262  48.3381820
 111.6829394  95.1077533  41.0568326 111.2434384  94.6153912  41.7501183
 112.4337511  94.5650501  40.8160401 104.1621733  91.2989074  41.0592954
 104.9879753  90.9992846  40.6791598 103.8115785  90.5296696  41.5082743
 109.1303266  90.6515542  43.1290628 108.5083275  89.9886247  42.8292856
 109.8008133  90.6776674  42.4464276 102.3630338  89.2175400  42.0181888
 101.5262246  88.7897575  41.8365889 102.3353983  89.4107844  42.9552679
 119.6882639  89.6738454  52.0024271 118.8978183  89.6562592  51.4628770
 119.4515994  90.2126747  52.7573308 119.8080514  86.5230920  49.3157000
 119.8578519  86.3580927  50.2572522 119.6994437  85.6558179  48.9254880
 108.6916773  89.2019466  36.6049088 108.8404893  89.8854930  35.9515761
 109.4983216  89.1824556  37.1198544 121.3098711  88.9427861  49.5599021
 121.0183519  89.3057842  50.3962482 120.6970842  88.2294870  49.3812353
 122.5094393  86.5080741  42.0801591 123.3441285  86.9470545  42.2439152
 122.6453522  86.0319394  41.2609837 119.5585899  84.0660476  48.0279079
 120.0340021  84.2588122  47.2197930 118.6351465  84.1219662  47.7822463
 106.4469406  85.2284643  37.6110157 106.2015448  84.3246973  37.8090367
 106.6165320  85.2301794  36.6689635 114.1366116  76.1008320  46.9934913
 114.6548060  76.8369347  46.6681402 113.7821248  76.4072313  47.8281672
 105.7165053  80.9613001  35.1096319 105.0234298  81.0357356  34.4536355
 105.4716805  80.1973344  35.6317836 114.3878710  72.5208602  42.5135810
 114.6680464  71.8531791  43.1396236 115.1729317  72.7137698  42.0010473
 112.1912178  91.6967596  34.0760836 111.6186145  92.3157783  33.6231308
 112.7644972  92.2466958  34.6100758 115.4109438  91.9804746  35.2069418
 116.3440111  91.9150308  35.4102294 115.3232651  92.8161013  34.7483951
 118.0397455  91.2970617  32.1673366 117.9611086  90.9630480  33.0609124
 118.8607122  91.7892384  32.1664838 120.7375646  84.1632356  45.3749684
 120.7051966  83.2248357  45.5609368 121.3476270  84.2416393  44.6415509
 112.5758977  83.0328409  31.4176888 113.5218082  82.9034617  31.4865306
 112.1973222  82.2943071  31.8946317 120.8870134  80.9543399  45.4207968
 120.3709183  80.1701856  45.2337896 121.7710083  80.6262116  45.5854487
 118.5480861  74.6984415  41.3803780 118.3505682  74.3899503  42.2647112
 119.1580567  75.4246054  41.5101710 126.5552196  85.2248363  44.5155721
 127.2855584  84.9633651  45.0763424 125.9459141  84.4877085  44.5557789
 124.6367493  83.3656225  45.1130172 123.9100657  83.2312190  44.5046664
 124.2214780  83.6733054  45.9186890 110.7601894  80.9578385  31.3531774
 109.8533349  80.6611498  31.4294487 111.0377875  80.6608203  30.4866060
 105.4559742  84.9947190  45.5200327 105.6745752  85.9264297  45.5388360
 105.8685516  84.6355164  46.3055130 112.3763960  75.5015275  37.5076015
 111.5664688  75.1562360  37.8831261 113.0648377  75.1922819  38.0963626
 114.3054508  74.5793322  39.1300312 114.8585547  74.9988775  39.7890335
 114.5424594  73.6529070  39.1723268 109.5300679  77.8165320  31.4943753
 110.3919843  78.1420219  31.7539570 109.7151023  77.0296816  30.9816819
 117.6833315  76.6893847  38.6378976 117.1031984  77.3478651  38.2557028
 117.4169248  75.8671191  38.2266393 116.1336881  76.0898905  40.8400296
 116.6336660  76.2015439  40.0314615 116.7772489  75.7859957  41.4801105
 103.4604837  85.8305914  41.6489956 103.4375525  85.9293601  40.6971840
 103.7705473  86.6771065  41.9707123 106.1192215  87.8882069  45.7636571
 107.0735468  87.8566011  45.6966502 105.9204738  87.4272693  46.5786797
 116.4658193  78.8493937  37.6935324 115.5784048  79.1343588  37.4755519
 116.8812182  78.6887701  36.8462601 119.8172729  78.8740458  41.4089663
 120.5933119  79.3636911  41.6814280 119.0920863  79.2998512  41.8661533
 122.2545288  79.5868077  42.4663604 122.8489779  79.3463813  41.7556912
 122.3271872  78.8675208  43.0937140 104.4742444  93.4301688  42.7806769
 104.3396911  92.6702089  42.2144767 104.0574506  94.1542588  42.3135558
 115.6101407  88.6138612  31.7883344 116.3137257  88.8188614  32.4041000
 114.8864055  89.1815374  32.0532428 116.4399217  84.3648473  37.9085614
 116.3834418  84.8217025  37.0693247 116.9927559  83.6039158  37.7308457
 120.2504023  80.1538205  38.7335734 119.9940957  79.7534841  39.5643941
 119.6256891  80.8681999  38.6085873 124.5616361  82.8934278  41.2407025
 124.0015919  82.9627468  42.0138587 123.9559864  82.7175263  40.5206521
 107.6311569  94.3271005  42.9925211 107.5143954  95.2716438  42.8903902
 106.8104016  94.0244567  43.3811011 117.5188104  89.0521141  33.8381804
 118.3533708  88.6202340  33.6559279 117.3572447  88.8803155  34.7658699
 117.1733996  85.5553254  35.2038143 117.1182800  85.3897526  34.2626587
 116.5480051  86.2629287  35.3600333 110.4830122  75.0561363  34.7823462
 110.4708791  76.0003203  34.9391733 111.3753543  74.8731509  34.4882923
 108.6566084  94.9799267  46.2081140 109.5593330  95.0122878  46.5247635
 108.4303454  94.0499718  46.2227476 110.4119686  93.7330254  42.8691218
 109.4615317  93.7332115  42.7555591 110.7152172  92.9862988  42.3527253
 114.2982241  71.6504140  39.0369399 113.5314637  71.0962627  39.1826081
 114.7092946  71.7226009  39.8983550 126.1472379  99.5690792  43.9336981
 126.7850789  99.4497540  43.2300321 126.0293222 100.5171636  43.9924933
 122.9562085  99.5218220  43.8698506 122.6180597  99.4059285  42.9819040
 123.8251854  99.1209385  43.8499512 118.8148901 101.3753697  39.8595396
 118.2513766 101.2843634  39.0911684 118.7001296 100.5553601  40.3397889
 123.4381868 100.6753072  49.8284711 123.4270509 100.2805870  48.9565215
 123.6002508  99.9419145  50.4218482 116.3613333 102.8704888  42.6979617
 117.1534625 102.5295713  42.2825916 116.6009983 102.9799863  43.6181770
 124.3948460 105.0424664  35.1709861 123.7436439 105.6278745  34.7843875
 125.1892823 105.5730859  35.2304899 118.3204087 102.1313802  35.5696996
 119.0934963 101.5842789  35.4309872 118.6729486 102.9958051  35.7811457
 120.1589129 103.4590184  48.7763895 119.8678995 104.3635815  48.6610561
 120.7946114 103.5006711  49.4907965 121.0845336 100.8367032  45.3665255
 121.6808909 100.6123055  44.6522218 121.1420308 100.0951778  45.9690703
 120.6570365  98.2906468  33.2015446 120.9095885  97.7687989  32.4398909
 119.7194924  98.1272613  33.3042129 125.7013648  97.2942246  41.0090189
 126.4876737  96.8761669  40.6580606 125.9652352  98.1988338  41.1771837
 125.8723725 102.7315096  35.7078846 125.2369558 102.8049723  36.4199750
 125.5421131 103.3208695  35.0297925 131.1022075  97.2317479  41.9123167
 131.8347247  96.6616696  42.1460997 130.3461430  96.8439080  42.3529673
 120.3766653 100.1934574  35.4039821 120.2602912  99.5179477  36.0720905
 120.4868913  99.7066948  34.5871974 122.7198194  99.6544721  39.1086510
 122.3556402  99.1275342  39.8199431 123.5765310  99.2643190  38.9352995
 128.6247495  90.9439053  46.3717776 128.2930820  91.8134464  46.1478991
 128.0293108  90.6275337  47.0511806 122.3603681  94.6834620  34.1047858
 122.5278084  95.5514857  34.4718329 122.1700850  94.8461902  33.1809148
 125.1179015 103.1451599  45.7713689 124.8179738 104.0476638  45.6629496
 124.7730074 102.8783783  46.6234842 118.5691496  99.5965396  41.8050393
 117.6441992  99.4641610  42.0128085 118.8175909 100.3759615  42.3020336
 128.5176158  95.6634140  43.4511126 127.6093036  95.5949548  43.1569887
 128.4663754  96.1406084  44.2792952 122.3392902  97.1392278  35.0894525
 122.2192527  97.5849329  35.9280005 121.6445491  97.4877596  34.5308063
 115.9300307  99.2398670  42.6394182 116.0592688  99.4933149  43.5533594
 115.2497758  99.8326378  42.3198837 120.0999794 109.9095920  38.7384656
 120.0223824 110.8603745  38.8173137 119.4961438 109.5641792  39.3959583
 122.5917024  97.0823785  51.3946023 121.8150358  97.6417705  51.3848888
 123.2307587  97.5680568  51.9160893 130.3837805  93.8650578  45.2289000
 129.7412185  94.1583111  44.5828795 129.8792733  93.7503498  46.0342197
 128.0377968  97.6113751  35.9174859 128.9495825  97.8441138  35.7422557
 127.5287615  98.1950795  35.3549938 120.8463396  99.8909239  50.9563990
 121.5878081 100.4294282  50.6798814 120.1400382 100.5175527  51.1135542
 126.3218736 102.0338379  49.5536152 126.7302092 101.5920789  48.8090784
 125.5995998 101.4591006  49.8070345 122.6749806  96.9710986  46.9269709
 123.5211001  97.3950399  47.0704358 122.6148444  96.3144610  47.6208272
 126.6447551 102.5939570  43.3088441 126.0156413 102.7585284  42.6064509
 126.2573213 103.0081179  44.0799405 130.5236783 103.5294007  40.6632804
 129.8387821 103.9092909  40.1129838 130.6080632 104.1389334  41.3964752
 125.8249251  94.6315354  48.5850882 125.5810183  95.3857415  48.0485158
 126.1009182  95.0100702  49.4198129 127.7787714 101.1753966  47.2628148
 127.9904609 101.8185726  46.5862529 127.7317462 100.3416283  46.7950078
 125.3813943  93.7871787  44.1664720 124.5198422  94.0853041  44.4581458
 125.4076378  94.0042186  43.2345753 122.1975513 102.3313978  40.5738526
 122.6613858 102.6101681  39.7843148 121.9332311 101.4297422  40.3911616
 119.0899594 101.8785459  43.5118289 119.6600951 102.3072728  42.8735774
 119.6807705 101.5968044  44.2102475 121.1344399  98.4537130  37.3828091
 121.8368442  98.9058174  37.8502017 120.8025027  97.8120949  38.0107984
 119.5824760  97.0448887  51.7579300 118.9523421  97.7265168  51.9914697
 119.4760848  96.9331968  50.8132439 114.8769733  96.7120683  42.6845224
 114.0868787  96.9678211  42.2085335 115.3680980  97.5269021  42.7897265
 128.8933542 104.0525922  45.4350505 129.7150986 103.6506109  45.1533187
 128.8895945 103.9494156  46.3866621 116.8284478  97.0765262  39.6428701
 116.0315641  97.1883956  40.1612197 116.6010070  97.4151914  38.7769592
 122.6590146 103.6009965  47.5911216 122.7234578 104.0630372  48.4269388
 121.9501069 102.9707330  47.7193526 113.1607436  96.9651173  45.1160215
 113.4115474  97.8498183  45.3817791 113.6966984  96.7855775  44.3435307
 136.9839535 100.3964670  41.7835477 136.2303244  99.8272068  41.6279481
 137.1187076 100.3627335  42.7306111 122.3738163 105.2678073  37.4590196
 122.2383838 106.1129608  37.8875044 122.9147976 105.4697350  36.6956130
 118.8605503  91.3469653  54.1204551 118.4672448  90.7935851  54.7952196
 119.6771643  91.6580231  54.5111069 115.8267561 102.7853511  38.0318121
 116.3392081 103.5796761  38.1823686 116.4790273 102.0879801  37.9651723
 117.6362445 105.9019267  40.1140874 117.8129074 106.8237232  39.9261858
 118.4319279 105.5877686  40.5435254 121.7773464  92.7627532  51.7124808
 122.5183177  93.3634685  51.6329270 122.0091387  92.0205169  51.1542850
 116.9214802  97.9483899  49.9903038 116.8068317  97.0469156  50.2910137
 116.0659320  98.1947596  49.6387854 124.0006640 105.8901639  51.5890538
 123.5570494 105.1038018  51.2711443 124.6623853 106.0780790  50.9234429
 118.7593761 107.4197441  46.1151217 119.3101186 107.2914504  45.3428211
 117.9205237 107.7192330  45.7646110 126.0987878 106.1704439  49.6171939
 126.0806353 106.9913320  49.1252209 127.0207798 106.0458514  49.8422081
 122.5560932 103.6848569  50.4595448 123.0889269 102.9236857  50.2294756
 122.0275013 103.3922220  51.2019602 125.7230627  88.7908635  45.9889090
 125.3794896  89.6810276  45.9128200 126.0909589  88.6010292  45.1258675
 113.7916477 101.1142165  38.8077692 114.6291699 101.5239173  38.5911399
 113.9694745 100.1741607  38.7777886 125.6880910  98.7817246  34.4961525
 125.1727533  99.5521850  34.7349912 125.4158218  98.1082382  35.1194586
 123.2728021  93.6266946  39.5546763 122.4169617  93.2373797  39.3752402
 123.6854972  93.7058907  38.6946549 124.8027167  91.1613290  43.9538323
 124.2991963  91.1243425  43.1406128 125.0957774  92.0706032  44.0134980
 121.0470053  91.2452019  42.9604505 121.9123050  91.0494828  42.6010394
 121.1147562  91.0162371  43.8873861 130.6615184 101.5349600  36.4314698
 129.8844626 101.1960760  35.9869860 131.3406665 101.5402223  35.7569663
 125.4767213  96.6544338  36.3221306 125.1717348  96.9690487  37.1731449
 126.4297655  96.7325758  36.3648639 123.9213645 102.8134561  37.9714260
 123.3935006 102.0787321  37.6587497 123.4201147 103.5909237  37.7254228
 128.9006491 101.0083582  43.0881306 128.2430165 101.6982843  43.1761435
 129.7046890 101.3980013  43.4315293 118.6532372  93.4754227  40.3320871
 119.2276124  93.2529409  39.5994064 119.2403355  93.5442922  41.0849473
 127.7111949  99.3627954  41.1385248 128.2243831  99.9957946  41.6406958
 128.3613173  98.7629150  40.7728608 118.9801959  95.5058688  34.3516757
 118.1439272  95.8433375  34.6726031 118.8406729  95.3707668  33.4143894
 120.9555040  90.3495476  39.0595941 120.3019452  90.0344493  38.4352556
 120.9135514  89.7271217  39.7855764 122.0666245 100.6314771  30.9749233
 121.1593306 100.4004025  31.1740382 122.5637277  99.8352391  31.1623214
 124.9734324 109.3412279  33.8945919 124.2996022 109.6443975  34.5030877
 125.3600146 110.1441359  33.5451376 124.1892780  96.8377410  43.3843588
 123.2715342  97.0592357  43.2265277 124.6052924  96.9123720  42.5255296
 124.9727828  98.2368825  38.5146269 125.7199647  98.7490223  38.2053391
 125.2419418  97.9152878  39.3750662 123.2454478 100.7327366  35.4973223
 122.3365697 100.4486399  35.5945693 123.2749562 101.1526445  34.6376530
 128.4773746 104.3433956  39.2664391 128.0236073 103.5024866  39.3229581
 127.8467712 104.9795354  39.6039171 127.4206665  95.2725942  40.4965058
 126.6829422  94.7603328  40.8275301 127.6733439  94.8326323  39.6848335
 126.9206685 106.1810452  40.2014209 127.2129659 106.7415509  39.4826574
 127.4305305 106.4739013  40.9567368 127.5218292  88.0502194  41.0906827
 127.8277169  87.1899557  40.8032742 128.2470897  88.6419814  40.8905821
 113.8142649  98.4532880  39.4788425 113.6167048  97.8602241  38.7539492
 113.2589313  98.1485091  40.1964364 121.7939372  98.3455987  41.5983018
 121.8487982  97.3929823  41.5225495 120.9830574  98.5015426  42.0824317
 122.9430566 102.2736110  32.8361302 122.5049996 101.5571969  32.3766939
 123.6841007 102.5012225  32.2746393 119.7331732  96.9633047  39.3573397
 118.9199598  97.2627217  39.7638589 120.2290726  96.5688735  40.0747879
 121.8840310 106.9590803  41.2907662 121.8416489 107.1851650  40.3616194
 122.8003009 106.7254178  41.4393463 125.3305944  97.4274871  48.1888291
 125.6855332  97.6546344  49.0482757 125.9778075  97.7593248  47.5665546
 131.0603681 100.5493307  38.8937620 130.9221579 100.7394903  37.9658809
 130.7039900 101.3112690  39.3505671 119.2245807  94.5351402  44.9734632
 119.8645186  94.3940161  44.2757595 118.3923337  94.2485915  44.5973234
 131.0873060 102.6169834  43.9048892 131.5209567 102.5245123  44.7531946
 131.8004641 102.5927334  43.2668908 120.0006111 103.8353832  41.0869625
 120.7946709 103.3404153  40.8852200 119.2897803 103.3071696  40.7237330
 124.8200955 106.2171928  45.4381992 124.8737978 106.7862864  46.2059708
 123.9515737 106.3873813  45.0736029 116.3088874  97.9796914  37.1629377
 115.3786462  97.9181370  37.3799339 116.4046346  97.4572867  36.3666019
 116.2274423  94.5051727  39.7507619 116.4881241  95.4197060  39.6416779
 117.0491596  94.0376170  39.9004232 117.6999349  95.9189484  46.9206443
 118.3722402  95.7106846  46.2719092 116.8729135  95.7211570  46.4811676
 131.9488610 102.6593535  46.4381777 132.1424500 103.5639345  46.6841052
 131.8489228 102.2000954  47.2720362 123.6024921  92.5451425  48.9372104
 122.9552836  93.2441375  48.8436581 124.3725936  92.9787569  49.3048353
 127.0103719 102.8100277  52.0122658 126.8589225 102.5810829  51.0952741
 127.0008398 103.7670879  52.0254003 123.7789055 100.3832190  46.9968924
 124.7081115 100.5343350  46.8237891 123.3580085 100.4716211  46.1417571
 122.5777387 104.4082854  44.7667462 122.4388472 104.0401639  45.6393400
 121.7891983 104.9230494  44.5951420 123.1725539 109.5091951  36.1092998
 123.3477294 109.0379994  36.9238621 122.4858327 110.1357717  36.3374259
 124.1282602 103.7864457  42.1556299 123.7932435 103.7465227  43.0513949
 123.6286548 103.1209173  41.6826710 118.1026846  99.1932087  47.6808881
 117.9646644  98.4612326  48.2820420 119.0131769  99.1040987  47.3993068
 127.0641794 101.1320492  32.4293359 126.4470964 100.4067320  32.3326412
 126.5958282 101.8929852  32.0860433 120.7309147  98.9052047  47.1692560
 121.4408765  98.2645239  47.1279179 120.6878455  99.1564941  48.0918741
 128.7195925 105.8419400  50.0899140 128.6608471 105.1578620  49.4229723
 129.1215444 106.5838390  49.6379766 119.4438081  95.8917264  48.9888200
 118.9075438  95.4408003  49.6409796 118.8554789  96.0263173  48.2458664
 117.7386624 112.6581314  42.8832858 117.9783222 113.2899838  43.5611877
 116.8955821 112.3069354  43.1698218 118.8540340  95.3505916  31.5514663
 117.9769806  95.2294717  31.1876910 119.3298093  94.5591994  31.2993552
 128.7213333 103.8058984  48.3213119 127.8340111 103.4684906  48.4439518
 129.2911884 103.0742015  48.5581885 110.3742480 100.1383076  41.6456171
 111.0613519  99.8244806  41.0577186 110.2190608 101.0424440  41.3723422
 115.1777202  95.0273272  46.0741194 115.0935391  94.4198942  45.3391604
 114.3559908  95.5182290  46.0750691 122.2514486 108.4660436  45.2874362
 122.1784657 109.2715408  45.7993667 121.8091879 108.6652402  44.4622384
 122.0404266 107.7032206  38.7977184 121.2571787 108.2453886  38.8915408
 122.7397011 108.2206186  39.1971425 125.3500916  93.5126836  41.4411389
 125.8469615  92.7596798  41.1212460 124.5787897  93.5491152  40.8754599
 133.2030673  99.2167201  43.0829681 133.1920549 100.0991917  42.7123614
 132.3348052  98.8638752  42.8884218 124.7113169 108.3647270  47.4432521
 125.4241142 108.9994735  47.3708423 124.2203198 108.4611136  46.6272523
 126.4330696 102.2698523  39.0149813 125.4986975 102.3899985  38.8454517
 126.6107365 101.3670990  38.7509823 121.9335884  95.6544219  41.1683074
 121.5633672  95.1015259  41.8563980 122.4294977  95.0502352  40.6158074
 129.8203248  98.1115842  39.5499847 130.2863700  98.9443834  39.4760150
 130.2710748  97.6460824  40.2545105 119.7625083 106.1141714  48.2638092
 120.4634542 106.7478197  48.4167486 119.2920198 106.4556445  47.5033731
 127.8879479 104.4559663  36.5485999 128.1639323 104.3416258  37.4579873
 127.0183978 104.0577148  36.5098172 127.7919910  90.4796429  43.5890748
 126.8782990  90.7100656  43.7572955 128.2213012  90.5634873  44.4404781
 127.5626369  98.6686321  46.0890642 126.9097819  98.9162229  45.4343095
 127.9406749  97.8550459  45.7553120 124.5233543 108.7046014  40.1918813
 124.7055937 107.8867670  40.6546565 125.3466529 108.9213707  39.7543703
 124.8575708 107.6314199  37.4533861 125.3863475 107.1206654  36.8404023
 125.1203928 107.3156730  38.3179394 123.6113942  99.4106132  52.5756679
 122.9354579  99.3100261  53.2459055 124.4341576  99.2545346  53.0392677
 115.3592801 105.6478069  45.1969195 115.9446238 104.9021757  45.3297099
 115.1617639 105.9582025  46.0805858 118.2131456 108.6829316  40.2131637
 117.5441832 109.1675444  39.7295677 118.0744326 108.9298537  41.1275015
 109.9510456  98.2183669  43.9173638 109.9894555  97.6847260  44.7110756
 109.4450749  97.6918874  43.2984615 122.3536725 110.7173060  46.8114295
 122.9055033 110.8804681  47.5763381 122.6942918 111.3077497  46.1394320
 117.3301218  93.0648209  47.4136180 117.3942545  93.9263040  47.0013578
 117.2668338  92.4522211  46.6808539 116.8053491  95.1371342  51.0609214
 117.4325529  94.7548419  51.6746739 115.9481409  94.9185544  51.4264907
 127.2047599 105.5434317  52.6662950 127.7487503 106.1564275  52.1717905
 126.6234444 106.1013896  53.1829963 113.5819033  96.9447771  36.9927569
 113.8772474  96.0358449  36.9394623 112.6807069  96.9235511  36.6708571
 125.4905112 108.6655035  43.7977977 125.3656252 107.8644775  43.2888923
 126.1484203 109.1601229  43.3091947 117.1113280  95.0203768  42.9755118
 116.3899866  95.6339735  42.8362591 117.9006536  95.5561532  42.8971764
 127.5540021 106.4664055  45.4257528 126.6070356 106.3469406  45.3535854
 127.9022794 105.5786553  45.5083789 119.9139594  92.3558194  49.2495769
 120.4373996  92.6020491  50.0122079 119.6951927  93.1878229  48.8298907
 115.3106875  94.6261869  37.1166894 114.9819581  93.7459248  36.9342000
 115.6646246  94.5709537  38.0043283 124.5586454 106.2616771  41.6261880
 124.4111416 105.3333479  41.8069450 125.3839947 106.2836862  41.1418955
 118.4248698  94.9134839  37.4842372 118.7644771  95.4420760  36.7620980
 118.8720819  95.2515245  38.2600938 128.1620576 107.0845330  42.7126753
 129.0867123 106.8788192  42.5751204 127.9935879 106.8361731  43.6216094
 121.1192139  93.2971889  46.9345440 120.7788959  92.4979702  47.3366120
 120.4131145  93.5973600  46.3622273 121.7708611  90.3821202  45.3872763
 122.5934680  89.9081680  45.2651653 122.0146674  91.1611685  45.8871449
 120.4116845  93.4109460  35.6835665 121.1325208  93.7890713  35.1799382
 119.7882149  94.1298337  35.7870643 124.5547968  94.1154609  36.6193997
 124.7711583  94.9979247  36.3182825 124.0742035  93.7240822  35.8899639
 119.2947190  97.0740322  43.1964742 119.1491770  97.3880625  44.0889023
 118.8172393  97.6925223  42.6435640 121.1543572  94.0642870  43.2445631
 121.1405141  93.1683964  42.9077929 121.8716000  94.0713534  43.8783917
 123.0069703  94.4980210  45.2898759 122.7487481  95.4197281  45.2883089
 122.4754743  94.1010645  45.9799223 127.9515892 107.6030998  38.0688844
 128.1252769 107.0377420  37.3162696 128.4444783 108.4031893  37.8868334
 113.7692852  99.6145667  46.1352403 113.2246320 100.3905475  46.2672677
 114.6472202  99.9616471  45.9771524 120.5580468  92.9457251  38.5133201
 120.6796380  92.0173897  38.7124089 120.2682511  92.9595937  37.6011517
 123.4271659  90.6312161  41.6499921 123.4493356  90.6951494  40.6951901
 123.8439718  89.7916670  41.8440427 133.8055283 100.3667421  39.6879144
 134.2486429  99.6174746  39.2898267 132.9281793 100.3577557  39.3052876
 128.9391064 106.9197762  35.1685742 129.6341969 107.5404455  35.3873057
 129.2814214 106.0693113  35.4438120 114.5558874  98.7415563  49.0282560
 113.8140610  98.8898198  49.6147190 114.2351618  99.0023829  48.1649309
 130.8382487 104.3697468  36.6973073 131.3633812 104.7084740  35.9722393
 130.7504840 103.4344483  36.5136208 122.5002536 108.2831541  48.8262950
 122.8089663 108.0380688  49.6985649 123.2978018 108.4878180  48.3381820
 122.5223148 110.4369451  41.0568326 122.0828139 109.9445830  41.7501183
 123.2731265 109.8942418  40.8160401 115.0015487 106.6280992  41.0592954
 115.8273507 106.3284764  40.6791598 114.6509539 105.8588614  41.5082743
 119.9697020 105.9807460  43.1290628 119.3477030 105.3178165  42.8292856
 120.6401887 106.0068592  42.4464276 113.2024092 104.5467318  42.0181888
 112.3656001 104.1189493  41.8365889 113.1747738 104.7399761  42.9552679
 120.0421548  94.4589248  52.7223134 120.0909703  95.3351371  52.3400904
 120.5844062  93.9166641  52.1494777 130.5276394 105.0030371  52.0024271
 129.7371937 104.9854510  51.4628770 130.2909748 105.5418665  52.7573308
 130.6474269 101.8522838  49.3157000 130.6972274 101.6872845  50.2572522
 130.5388192 100.9850097  48.9254880 119.5310527 104.5311383  36.6049088
 119.6798648 105.2146848  35.9515761 120.3376971 104.5116473  37.1198544
 127.9378031  97.8353766  50.6316306 128.8387894  97.6960230  50.3400304
 128.0126005  98.0008220  51.5714484 122.2720836  95.2120620  49.4769493
 121.4024146  95.5054186  49.2052081 122.5080317  95.7961065  50.1976756
 132.1492465 104.2719779  49.5599021 131.8577274 104.6349760  50.3962482
 131.5364597 103.5586787  49.3812353 133.3488148 101.8372659  42.0801591
 134.1835039 102.2762463  42.2439152 133.4847277 101.3611312  41.2609837
 130.3979654  99.3952394  48.0279079 130.8733775  99.5880040  47.2197930
 129.4745219  99.4511580  47.7822463 117.2863160 100.5576561  37.6110157
 117.0409202  99.6538891  37.8090367 117.4559075 100.5593711  36.6689635
 124.9759870  91.4300237  46.9934913 125.4941814  92.1661264  46.6681402
 124.6215003  91.7364231  47.8281672 116.5558808  96.2904918  35.1096319
 115.8628053  96.3649273  34.4536355 116.3110560  95.5265262  35.6317836
 125.2272464  87.8500520  42.5135810 125.5074218  87.1823709  43.1396236
 126.0123071  88.0429615  42.0010473 123.0305933 107.0259514  34.0760836
 122.4579900 107.6449701  33.6231308 123.6038726 107.5758875  34.6100758
 129.0981323  96.2718154  46.2607385 130.0498746  96.3716251  46.2819609
 128.9284773  95.4796422  46.7705469 127.1195702  93.3573737  46.4466786
 126.5245634  93.6378750  45.7513274 126.8345399  93.8467638  47.2183527
 126.2503193 107.3096664  35.2069418 127.1833866 107.2442226  35.4102294
 126.1626405 108.1452931  34.7483951 128.8791209 106.6262534  32.1673366
 128.8004841 106.2922398  33.0609124 129.7000876 107.1184302  32.1664838
 131.5769400  99.4924273  45.3749684 131.5445721  98.5540274  45.5609368
 132.1870024  99.5708310  44.6415509 123.4152731  98.3620326  31.4176888
 124.3611836  98.2326535  31.4865306 123.0366976  97.6234988  31.8946317
 131.7263889  96.2835317  45.4207968 131.2102938  95.4993774  45.2337896
 132.6103837  95.9554034  45.5854487 129.3874616  90.0276332  41.3803780
 129.1899437  89.7191421  42.2647112 129.9974321  90.7537971  41.5101710
 135.4761247  98.6948143  45.1130172 134.7494411  98.5604108  44.5046664
 135.0608534  99.0024972  45.9186890 123.2991424 102.4138073  52.8777545
 124.2194433 102.5916672  53.0717592 123.2641007 101.4694118  52.7257245
 121.5995648  96.2870303  31.3531774 120.6927104  95.9903416  31.4294487
 121.8771629  95.9900121  30.4866060 112.5173589  97.6076666  41.8030820
 112.1976373  96.7541974  41.5105194 111.9707017  97.8225244  42.5588787
 116.2953496 100.3239107  45.5200327 116.5139506 101.2556215  45.5388360
 116.7079270  99.9647082  46.3055130 123.2157714  90.8307193  37.5076015
 122.4058442  90.4854278  37.8831261 123.9042131  90.5214736  38.0963626
 125.1448262  89.9085239  39.1300312 125.6979301  90.3280693  39.7890335
 125.3818349  88.9820987  39.1723268 121.1681362  95.8972313  54.9103075
 121.0678089  96.8466670  54.8415167 120.9502904  95.5690552  54.0379146
 120.3694433  93.1457238  31.4943753 121.2313597  93.4712136  31.7539570
 120.5544777  92.3588734  30.9816819 112.3861849 101.2279578  43.7723942
 111.6925320 100.8133531  43.2593896 113.1334840 101.2700114  43.1757360
 128.5227070  92.0185765  38.6378976 127.9425739  92.6770569  38.2557028
 128.2563002  91.1963109  38.2266393 126.9730636  91.4190822  40.8400296
 127.4730414  91.5307357  40.0314615 127.6166244  91.1151875  41.4801105
 121.0312632  99.3269452  53.7268137 120.5479713 100.1269812  53.9332026
 121.1173571  99.3377397  52.7735581 114.2998591 101.1597832  41.6489956
 114.2769279 101.2585519  40.6971840 114.6099228 102.0062982  41.9707123
 116.9585969 103.2173987  45.7636571 117.9129223 103.1857929  45.6966502
 116.7598493 102.7564610  46.5786797 117.5485351 101.7875103  48.3307369
 118.3678240 102.2819181  48.3542206 117.8222159 100.8707071  48.3024936
 127.3051948  94.1785855  37.6935324 126.4177803  94.4635506  37.4755519
 127.7205937  94.0179618  36.8462601 130.6566484  94.2032376  41.4089663
 131.4326874  94.6928828  41.6814280 129.9314618  94.6290430  41.8661533
 133.0939042  94.9159995  42.4663604 133.6883533  94.6755731  41.7556912
 133.1665626  94.1967126  43.0937140 115.3136198 108.7593606  42.7806769
 115.1790666 107.9994007  42.2144767 114.8968260 109.4834506  42.3135558
 126.4495161 103.9430530  31.7883344 127.1531011 104.1480532  32.4041000
 125.7257810 104.5107291  32.0532428 127.2792971  99.6940391  37.9085614
 127.2228173 100.1508942  37.0693247 127.8321314  98.9331075  37.7308457
 131.0897777  95.4830123  38.7335734 130.8334711  95.0826758  39.5643941
 130.4650645  96.1973917  38.6085873 135.4010115  98.2226196  41.2407025
 134.8409673  98.2919385  42.0138587 134.7953618  98.0467181  40.5206521
 118.4705324 109.6562923  42.9925211 118.3537708 110.6008356  42.8903902
 117.6497770 109.3536485  43.3811011 128.3581858 104.3813059  33.8381804
 129.1927462 103.9494257  33.6559279 128.1966201 104.2095072  34.7658699
 128.0127751 100.8845172  35.2038143 127.9576554 100.7189444  34.2626587
 127.3873806 101.5921205  35.3600333 112.8020266  96.1213236  49.0299566
 113.4479129  95.6112190  49.5186791 112.5937417  96.8581918  49.6042991
 125.3273658 103.1894084  54.5291706 126.1964817 103.3634736  54.1678341
 124.8480409 104.0088501  54.4067436 121.3223876  90.3853281  34.7823462
 121.3102546  91.3295121  34.9391733 122.2147298  90.2023427  34.4882923
 119.4959838 110.3091185  46.2081140 120.3987085 110.3414795  46.5247635
 119.2697208 109.3791636  46.2227476 121.2513440 109.0622172  42.8691218
 120.3009071 109.0624033  42.7555591 121.5545926 108.3154906  42.3527253
 125.1375996  86.9796058  39.0369399 124.3708391  86.4254544  39.1826081
 125.5486701  87.0517926  39.8983550 117.1417757  93.2680854  53.1274580
 118.0049218  92.9117658  53.3377904 116.5683167  92.9294748  53.8149984
 133.7955840 114.8510138  43.8698506 133.4574351 114.7351203  42.9819040
 134.6645608 114.4501303  43.8499512 129.6542656 116.7045614  39.8595396
 129.0907521 116.6135551  39.0911684 129.5395051 115.8845519  40.3397889
 134.2775623 116.0044990  49.8284711 134.2664264 115.6097788  48.9565215
 134.4396262 115.2711062  50.4218482 127.2007087 118.1996806  42.6979617
 127.9928379 117.8587631  42.2825916 127.4403738 118.3091781  43.6181770
 130.9982884 118.7882102  48.7763895 130.7072750 119.6927732  48.6610561
 131.6339868 118.8298629  49.4907965 131.9239091 116.1658950  45.3665255
 132.5202663 115.9414972  44.6522218 131.9814062 115.4243696  45.9690703
 136.5407402 112.6234164  41.0090189 137.3270491 112.2053587  40.6580606
 136.8046106 113.5280256  41.1771837 133.5591949 114.9836638  39.1086510
 133.1950156 114.4567259  39.8199431 134.4159065 114.5935107  38.9352995
 129.4085251 114.9257314  41.8050393 128.4835747 114.7933528  42.0128085
 129.6569664 115.7051533  42.3020336 126.7694062 114.5690587  42.6394182
 126.8986443 114.8225066  43.5533594 126.0891513 115.1618295  42.3198837
 133.4310779 112.4115703  51.3946023 132.6544113 112.9709623  51.3848888
 134.0701342 112.8972486  51.9160893 131.6857151 115.2201156  50.9563990
 132.4271835 115.7586200  50.6798814 130.9794136 115.8467445  51.1135542
 137.1612491 117.3630297  49.5536152 137.5695847 116.9212707  48.8090784
 136.4389752 116.7882924  49.8070345 133.5143561 112.3002903  46.9269709
 134.3604756 112.7242317  47.0704358 133.4542198 111.6436528  47.6208272
 136.6643006 109.9607272  48.5850882 136.4203938 110.7149332  48.0485158
 136.9402936 110.3392619  49.4198129 136.2207698 109.1163705  44.1664720
 135.3592177 109.4144958  44.4581458 136.2470132 109.3334104  43.2345753
 133.0369267 117.6605895  40.5738526 133.5007613 117.9393598  39.7843148
 132.7726065 116.7589340  40.3911616 129.9293348 117.2077377  43.5118289
 130.4994705 117.6364645  42.8735774 130.5201460 116.9259962  44.2102475
 131.9738153 113.7829048  37.3828091 132.6762196 114.2350091  37.8502017
 131.6418782 113.1412867  38.0107984 130.4218515 112.3740804  51.7579300
 129.7917175 113.0557085  51.9914697 130.3154603 112.2623886  50.8132439
 125.7163487 112.0412600  42.6845224 124.9262541 112.2970129  42.2085335
 126.2074734 112.8560938  42.7897265 127.6678232 112.4057180  39.6428701
 126.8709396 112.5175874  40.1612197 127.4403825 112.7443832  38.7769592
 133.4983900 118.9301883  47.5911216 133.5628333 119.3922290  48.4269388
 132.7894824 118.2999248  47.7193526 124.0001190 112.2943091  45.1160215
 124.2509228 113.1790101  45.3817791 124.5360738 112.1147692  44.3435307
 129.6999257 106.6761570  54.1204551 129.3066203 106.1227769  54.7952196
 130.5165398 106.9872149  54.5111069 126.6661315 118.1145428  38.0318121
 127.1785836 118.9088679  38.1823686 127.3184028 117.4171719  37.9651723
 132.6167218 108.0919449  51.7124808 133.3576932 108.6926602  51.6329270
 132.8485141 107.3497087  51.1542850 127.7608556 113.2775817  49.9903038
 127.6462072 112.3761074  50.2910137 126.9053074 113.5239513  49.6387854
 129.5987515 122.7489358  46.1151217 130.1494940 122.6206422  45.3428211
 128.7598991 123.0484247  45.7646110 133.3954686 119.0140486  50.4595448
 133.9283023 118.2528774  50.2294756 132.8668767 118.7214138  51.2019602
 136.5624381 104.1200552  45.9889090 136.2188651 105.0102194  45.9128200
 136.9303344 103.9302210  45.1258675 124.6310232 116.4434083  38.8077692
 125.4685454 116.8531091  38.5911399 124.8088500 115.5033525  38.7777886
 134.1121775 108.9558864  39.5546763 133.2563371 108.5665715  39.3752402
 134.5248727 109.0350825  38.6946549 135.6420922 106.4905207  43.9538323
 135.1385717 106.4535343  43.1406128 135.9351529 107.3997950  44.0134980
 131.8863808 106.5743937  42.9604505 132.7516804 106.3786746  42.6010394
 131.9541316 106.3454289  43.8873861 129.4926127 108.8046145  40.3320871
 130.0669879 108.5821327  39.5994064 130.0797109 108.8734840  41.0849473
 131.7948794 105.6787394  39.0595941 131.1413207 105.3636411  38.4352556
 131.7529269 105.0563134  39.7855764 135.0286535 112.1669327  43.3843588
 134.1109096 112.3884274  43.2265277 135.4446678 112.2415638  42.5255296
 124.6536403 113.7824798  39.4788425 124.4560803 113.1894159  38.7539492
 124.0983067 113.4777008  40.1964364 132.6333127 113.6747904  41.5983018
 132.6881736 112.7221741  41.5225495 131.8224329 113.8307344  42.0824317
 130.5725487 112.2924964  39.3573397 129.7593352 112.5919135  39.7638589
 131.0684481 111.8980653  40.0747879 136.1699698 112.7566789  48.1888291
 136.5249086 112.9838262  49.0482757 136.8171830 113.0885165  47.5665546
 130.0639561 109.8643320  44.9734632 130.7038941 109.7232079  44.2757595
 129.2317092 109.5777833  44.5973234 130.8399865 119.1645750  41.0869625
 131.6340464 118.6696070  40.8852200 130.1291558 118.6363613  40.7237330
 127.1482629 113.3088832  37.1629377 126.2180217 113.2473287  37.3799339
 127.2440101 112.7864785  36.3666019 127.0668178 109.8343645  39.7507619
 127.3274995 110.7488978  39.6416779 127.8885350 109.3668087  39.9004232
 128.5393103 111.2481402  46.9206443 129.2116157 111.0398764  46.2719092
 127.7122890 111.0503488  46.4811676 134.4418675 107.8743343  48.9372104
 133.7946590 108.5733292  48.8436581 135.2119691 108.3079487  49.3048353
 134.6182810 115.7124108  46.9968924 135.5474870 115.8635267  46.8237891
 134.1973840 115.8008129  46.1417571 133.4171141 119.7374772  44.7667462
 133.2782227 119.3693557  45.6393400 132.6285738 120.2522412  44.5951420
 134.9676356 119.1156375  42.1556299 134.6326189 119.0757145  43.0513949
 134.4680302 118.4501091  41.6826710 128.9420600 114.5224005  47.6808881
 128.8040398 113.7904244  48.2820420 129.8525524 114.4332905  47.3993068
 131.5702901 114.2343964  47.1692560 132.2802520 113.5937156  47.1279179
 131.5272209 114.4856859  48.0918741 130.2831835 111.2209182  48.9888200
 129.7469192 110.7699921  49.6409796 129.6948543 111.3555091  48.2458664
 121.2136234 115.4674993  41.6456171 121.9007274 115.1536723  41.0577186
 121.0584363 116.3716358  41.3723422 126.0170956 110.3565190  46.0741194
 125.9329145 109.7490859  45.3391604 125.1953663 110.8474208  46.0750691
 136.1894670 108.8418753  41.4411389 136.6863370 108.0888716  41.1212460
 135.4181652 108.8783070  40.8754599 132.7729639 110.9836136  41.1683074
 132.4027426 110.4307177  41.8563980 133.2688731 110.3794270  40.6158074
 134.4507696 114.7398050  52.5756679 133.7748333 114.6392179  53.2459055
 135.2735330 114.5837264  53.0392677 126.1986556 120.9769986  45.1969195
 126.7839992 120.2313674  45.3297099 126.0011394 121.2873943  46.0805858
 120.7904210 113.5475587  43.9173638 120.8288310 113.0139177  44.7110756
 120.2844503 113.0210792  43.2984615 128.1694973 108.3940127  47.4136180
 128.2336299 109.2554958  47.0013578 128.1062093 107.7814129  46.6808539
 127.6447245 110.4663260  51.0609214 128.2719284 110.0840337  51.6746739
 126.7875164 110.2477462  51.4264907 124.4212788 112.2739689  36.9927569
 124.7166229 111.3650367  36.9394623 123.5200824 112.2527428  36.6708571
 127.9507035 110.3495685  42.9755118 127.2293621 110.9631653  42.8362591
 128.7400291 110.8853450  42.8971764 130.7533348 107.6850112  49.2495769
 131.2767750 107.9312408  50.0122079 130.5345682 108.5170147  48.8298907
 126.1500629 109.9553786  37.1166894 125.8213336 109.0751165  36.9342000
 126.5040000 109.9001455  38.0043283 129.2642453 110.2426756  37.4842372
 129.6038525 110.7712677  36.7620980 129.7114573 110.5807162  38.2600938
 131.9585893 108.6263807  46.9345440 131.6182714 107.8271620  47.3366120
 131.2524900 108.9265518  46.3622273 132.6102365 105.7113119  45.3872763
 133.4328435 105.2373598  45.2651653 132.8540429 106.4903603  45.8871449
 131.2510600 108.7401378  35.6835665 131.9718962 109.1182631  35.1799382
 130.6275904 109.4590255  35.7870643 135.3941723 109.4446527  36.6193997
 135.6105337 110.3271165  36.3182825 134.9135790 109.0532740  35.8899639
 130.1340944 112.4032240  43.1964742 129.9885525 112.7172543  44.0889023
 129.6566148 113.0217140  42.6435640 131.9937327 109.3934788  43.2445631
 131.9798896 108.4975881  42.9077929 132.7109755 109.4005452  43.8783917
 133.8463458 109.8272128  45.2898759 133.5881235 110.7489199  45.2883089
 133.3148498 109.4302563  45.9799223 124.6086606 114.9437584  46.1352403
 124.0640074 115.7197392  46.2672677 125.4865956 115.2908389  45.9771524
 131.3974223 108.2749168  38.5133201 131.5190134 107.3465814  38.7124089
 131.1076265 108.2887854  37.6011517 134.2665413 105.9604079  41.6499921
 134.2887110 106.0243412  40.6951901 134.6833472 105.1208587  41.8440427
 125.3952628 114.0707481  49.0282560 124.6534364 114.2190116  49.6147190
 125.0745372 114.3315746  48.1649309 125.8409242 121.9572909  41.0592954
 126.6667262 121.6576681  40.6791598 125.4903294 121.1880532  41.5082743
 130.8090775 121.3099378  43.1290628 130.1870784 120.6470083  42.8292856
 131.4795642 121.3360509  42.4464276 124.0417847 119.8759236  42.0181888
 123.2049755 119.4481410  41.8365889 124.0141492 120.0691679  42.9552679
 130.8815302 109.7881166  52.7223134 130.9303458 110.6643288  52.3400904
 131.4237817 109.2458559  52.1494777 133.1114591 110.5412538  49.4769493
 132.2417900 110.8346104  49.2052081 133.3474071 111.1252983  50.1976756
 128.1256915 115.8868479  37.6110157 127.8802957 114.9830809  37.8090367
 128.2952829 115.8885629  36.6689635 135.8153625 106.7592155  46.9934913
 136.3335568 107.4953182  46.6681402 135.4608757 107.0656148  47.8281672
 127.3952562 111.6196836  35.1096319 126.7021807 111.6941191  34.4536355
 127.1504314 110.8557180  35.6317836 136.0666219 103.1792437  42.5135810
 136.3467973 102.5115627  43.1396236 136.8516826 103.3721533  42.0010473
 134.1385178 117.7429990  52.8777545 135.0588188 117.9208589  53.0717592
 134.1034761 116.7986036  52.7257245 123.3567343 112.9368584  41.8030820
 123.0370128 112.0833892  41.5105194 122.8100772 113.1517162  42.5588787
 127.1347251 115.6531025  45.5200327 127.3533261 116.5848133  45.5388360
 127.5473025 115.2938999  46.3055130 134.0551469 106.1599110  37.5076015
 133.2452197 105.8146195  37.8831261 134.7435886 105.8506654  38.0963626
 135.9842017 105.2377157  39.1300312 136.5373056 105.6572610  39.7890335
 136.2212103 104.3112905  39.1723268 132.0075116 111.2264231  54.9103075
 131.9071843 112.1758588  54.8415167 131.7896658 110.8982470  54.0379146
 123.2255603 116.5571495  43.7723942 122.5319075 116.1425448  43.2593896
 123.9728594 116.5992032  43.1757360 131.8706386 114.6561370  53.7268137
 131.3873468 115.4561730  53.9332026 131.9567325 114.6669314  52.7735581
 125.1392346 116.4889749  41.6489956 125.1163034 116.5877436  40.6971840
 125.4492982 117.3354900  41.9707123 127.7979724 118.5465904  45.7636571
 128.7522977 118.5149847  45.6966502 127.5992247 118.0856528  46.5786797
 128.3879106 117.1167020  48.3307369 129.2071995 117.6111099  48.3542206
 128.6615914 116.1998988  48.3024936 126.1529953 124.0885524  42.7806769
 126.0184420 123.3285925  42.2144767 125.7362015 124.8126424  42.3135558
 123.6414020 111.4505154  49.0299566 124.2872884 110.9404108  49.5186791
 123.4331171 112.1873836  49.6042991 132.1617631 105.7145199  34.7823462
 132.1496300 106.6587039  34.9391733 133.0541052 105.5315344  34.4882923
 135.9769750 102.3087975  39.0369399 135.2102146 101.7546462  39.1826081
 136.3880455 102.3809844  39.8983550 127.9811511 108.5972771  53.1274580
 128.8442973 108.2409576  53.3377904 127.4076922 108.2586666  53.8149984
  59.6750644  -6.6042113  34.1677828  60.3878616  -5.9694648  34.0953729
  59.1840672  -6.5078247  33.3517830  57.3174199  -4.2516324  33.5359602
  57.8692507  -4.0884702  34.3008687  57.6580393  -3.6611886  32.8639627
  57.4640010  -6.6857842  35.5508256  57.7727137  -6.9308695  36.4230956
  58.2615493  -6.4811204  35.0627127  71.9503608  -0.0706674  30.6582287
  72.5882018  -0.1899926  29.9545628  71.8324451   0.8774170  30.7170240
  68.7593314  -0.1179245  30.5943812  68.4211826  -0.2338181  29.7064347
  69.6283082  -0.5188080  30.5744818  69.2413097   1.0355606  36.5530018
  69.2301738   0.6408405  35.6810521  69.4033737   0.3021679  37.1463789
  62.1644562   3.2307423  29.4224924  62.9565854   2.8898247  29.0071223
  62.4041212   3.3402398  30.3427077  70.1979689   5.4027199  21.8955168
  69.5467668   5.9881279  21.5089182  70.9924051   5.9333394  21.9550205
  65.9620358   3.8192718  35.5009202  65.6710224   4.7238349  35.3855868
  66.5977343   3.8609246  36.2153271  66.8876565   1.1969567  32.0910561
  67.4840137   0.9725589  31.3767524  66.9451537   0.4554312  32.6936009
  68.5229423   0.0147255  25.8331816  68.1587630  -0.5122124  26.5444738
  69.3796539  -0.3754276  25.6598302  70.9210243   3.5054134  32.4958995
  70.6210966   4.4079172  32.3874803  70.5761303   3.2386317  33.3480148
  64.3722725  -0.0432070  28.5295700  63.4473221  -0.1755855  28.7373392
  64.6207138   0.7362150  29.0265642  61.7331536  -0.3998796  29.3639489
  61.8623917  -0.1464317  30.2778901  61.0528987   0.1928912  29.0444144
  65.9031023  10.2698454  25.4629963  65.8255053  11.2206279  25.5418444
  65.2992667   9.9244326  26.1204889  68.3948253  -2.5573681  38.1191330
  67.6181587  -1.9979761  38.1094195  69.0338816  -2.0716898  38.6406200
  66.6494625   0.2511773  37.6809297  67.3909310   0.7896817  37.4044121
  65.9431611   0.8778061  37.8380849  72.1249965   2.3940913  36.2781458
  72.5333321   1.9523324  35.5336091  71.4027226   1.8193541  36.5315651
  68.4781035  -2.6686480  33.6515015  69.3242230  -2.2447066  33.7949664
  68.4179673  -3.3252856  34.3453578  72.4478780   2.9542104  30.0333747
  71.8187642   3.1187818  29.3309815  72.0604442   3.3683713  30.8044711
  76.3268011   3.8896542  27.3878111  75.6419050   4.2695443  26.8375144
  76.4111861   4.4991868  28.1210059  73.5818943   1.5356501  33.9873455
  73.7935838   2.1788261  33.3107836  73.5348691   0.7018817  33.5195385
  68.0006741   2.6916512  27.2983832  68.4645087   2.9704215  26.5088455
  67.7363539   1.7899956  27.1156923  64.8930822   2.2387993  30.2363596
  65.4632180   2.6675262  29.5981080  65.4838934   1.9570578  30.9347781
  65.3855989  -2.5948579  38.4824607  64.7554650  -1.9132298  38.7160004
  65.2792077  -2.7065498  37.5377745  74.6964771   4.4128456  32.1595812
  75.5182215   4.0108643  31.8778494  74.6927174   4.3096690  33.1111928
  68.4621374   3.9612499  34.3156522  68.5265807   4.4232907  35.1514694
  67.7532298   3.3309864  34.4438832  58.9638664  -2.6746293  31.8405522
  59.2146703  -1.7899283  32.1063098  59.4998213  -2.8541691  31.0680614
  68.1769392   5.6280607  24.1835503  68.0415067   6.4732143  24.6120351
  68.7179205   5.8299885  23.4201437  63.4393674   6.2621801  26.8386181
  63.6160302   7.1839766  26.6507165  64.2350508   5.9480220  27.2680561
  62.7246031  -1.6913567  36.7148344  62.6099546  -2.5928310  37.0155443
  61.8690548  -1.4449870  36.3633161  69.8037868   6.2504173  38.3135845
  69.3601723   5.4640552  37.9956749  70.4655082   6.4383324  37.6479736
  64.5624990   7.7799975  32.8396523  65.1132415   7.6517038  32.0673517
  63.7236466   8.0794864  32.4891416  71.9019107   6.5306973  36.3417246
  71.8837582   7.3515854  35.8497515  72.8239027   6.4061049  36.5667387
  68.3592161   4.0451103  37.1840754  68.8920497   3.2839391  36.9540062
  67.8306242   3.7524755  37.9264909  76.4646412   1.8952135  23.1560005
  75.6875855   1.5563294  22.7115167  77.1437893   1.9004758  22.4814970
  69.7244873   3.1737095  24.6959566  69.1966235   2.4389855  24.3832804
  69.2232376   3.9511772  24.4499535  74.7037719   1.3686116  29.8126613
  74.0461394   2.0585377  29.9006741  75.5078119   1.7582548  30.1560599
  73.5143178  -0.2769512  27.8630555  74.0275060   0.3560480  28.3652264
  74.1644402  -0.8768316  27.4973915  70.7765552   9.7014813  20.6191226
  70.1027251  10.0046509  21.2276184  71.1631374  10.5043893  20.2696683
  69.9924009  -2.8020056  30.1088895  69.0746570  -2.5805109  29.9510583
  70.4084153  -2.7273746  29.2500602  70.7759057  -1.4028640  25.2391575
  71.5230876  -0.8907243  24.9298697  71.0450646  -1.7244588  26.0995969
  74.2804974   4.7036490  25.9909697  73.8267302   3.8627400  26.0474888
  73.6498941   5.3397888  26.3284477  72.7237914   6.5412987  26.9259515
  73.0160888   7.1018044  26.2071881  73.2336534   6.8341548  27.6812674
  67.5970601  -1.2941479  28.3228325  67.6519211  -2.2467643  28.2470802
  66.7861803  -1.1382040  28.8069623  67.6871539   7.3193338  28.0152969
  67.6447718   7.5454184  27.0861501  68.6034238   7.0856712  28.1638770
  71.1337173  -2.2122595  34.9133598  71.4886560  -1.9851122  35.7728063
  71.7809304  -1.8804218  34.2910853  76.8634910   0.9095841  25.6182927
  76.7252808   1.0997437  24.6904116  76.5071128   1.6715224  26.0750978
  76.8904289   2.9772368  30.6294198  77.3240796   2.8847657  31.4777252
  77.6035870   2.9529869  29.9914214  65.8037340   4.1956367  27.8114931
  66.5977938   3.7006687  27.6097506  65.0929032   3.6674230  27.4482637
  70.6232184   6.5774462  32.1627299  70.6769206   7.1465399  32.9305015
  69.7546965   6.7476347  31.7981336  63.5030577  -3.7207982  33.6451750
  64.1753631  -3.9290619  32.9964399  62.6760364  -3.9185896  33.2056982
  77.7519839   3.0196069  33.1627084  77.9455729   3.9241879  33.4086359
  77.6520457   2.5603488  33.9965669  72.8134947   3.1702812  38.7367964
  72.6620454   2.9413363  37.8198048  72.8039627   4.1273413  38.7499309
  69.5820284   0.7434724  33.7214231  70.5112344   0.8945884  33.5483198
  69.1611314   0.8318745  32.8662877  68.3808616   4.7685389  31.4912768
  68.2419701   4.4004173  32.3638706  67.5923212   5.2833028  31.3196726
  68.9756768   9.8694485  22.8338305  69.1508523   9.3982528  23.6483928
  68.2889556  10.4960251  23.0619566  69.9313831   4.1466991  28.8801606
  69.5963663   4.1067761  29.7759256  69.4317776   3.4811707  28.4072016
  63.9058075  -0.4465379  34.4054187  63.7677873  -1.1785140  35.0065726
  64.8162998  -0.5356478  34.1238375  66.5340375  -0.7345419  33.8937867
  67.2439994  -1.3752227  33.8524485  66.4909684  -0.4832524  34.8164048
  74.5227154   6.2021934  36.8144446  74.4639700   5.5181154  36.1475029
  74.9246672   6.9440924  36.3625072  65.2469309  -3.7480201  35.7133506
  64.7106666  -4.1989463  36.3655103  64.6586018  -3.6134293  34.9703971
  63.5417853  13.0183848  29.6078165  63.7814451  13.6502372  30.2857184
  62.6987049  12.6671888  29.8943524  74.5244561   4.1661518  35.0458426
  73.6371340   3.8287440  35.1684825  75.0943112   3.4344549  35.2827191
  60.9808431  -4.6124194  32.7986501  60.8966619  -5.2198524  32.0636911
  60.1591137  -4.1215175  32.7995997  68.0545715   8.8262970  32.0119669
  67.9815886   9.6317942  32.5238974  67.6123108   9.0254936  31.1867690
  67.8435494   8.0634740  25.5222491  67.0603016   8.6056421  25.6160715
  68.5428240   8.5808720  25.9216732  70.5144398   8.7249804  34.1677828
  71.2272370   9.3597269  34.0953729  70.0234427   8.8213670  33.3517830
  72.2361925   2.6301057  25.7395119  71.3018204   2.7502520  25.5699824
  72.4138594   1.7273524  25.4755129  65.5656312   6.4744248  34.9883399
  66.2665771   7.1080731  35.1412793  65.0951427   6.8158979  34.2279038
  73.6910708   4.8162198  23.2731306  73.9670552   4.7018792  24.1825180
  72.8215206   4.4179683  23.2343479  73.3657598  -0.9711145  32.8135949
  72.7129048  -0.7235237  32.1588402  73.7437978  -1.7847006  32.4798426
  70.3264772   9.0648548  26.9164119  70.5087166   8.2470204  27.3791871
  71.1497758   9.2816241  26.4789009  70.6606937   7.9916734  24.1779168
  71.1894704   7.4809188  23.5649330  70.9235157   7.6759264  25.0424701
  69.4145171  -0.2291334  39.3001986  68.7385808  -0.3297204  39.9704361
  70.2372805  -0.3852120  39.7637983  61.1624030   6.0080603  31.9214501
  61.7477467   5.2624291  32.0542405  60.9648868   6.3184560  32.8051165
  64.0162685   9.0431850  26.9376944  63.3473060   9.5277978  26.4540984
  63.8775555   9.2901071  27.8520322  68.1567954  11.0775594  33.5359602
  68.7086262  11.2407215  34.3008687  68.4974147  11.6680032  32.8639627
  62.6084719  -4.5026124  37.7854521  63.2356758  -4.8849047  38.3992045
  61.7512638  -4.7211922  38.1510213  73.0078828   5.9036851  39.3908256
  73.5518732   6.5166810  38.8963211  72.4265673   6.4616430  39.9075269
  71.2936341   9.0257569  30.5223284  71.1687480   8.2247309  30.0134230
  71.9515432   9.5203763  30.0337254  73.3571249   6.8266589  32.1502834
  72.4101585   6.7071941  32.0781161  73.7054022   5.9389087  32.2329096
  70.3617683   6.6219306  28.3507186  70.2142645   5.6936013  28.5314756
  71.1871176   6.6439396  27.8664262  73.9651804   7.4447864  29.4372059
  74.8898352   7.2390726  29.2996510  73.7967108   7.1964266  30.3461401
  65.0978418  -2.5657143  29.9210048  64.9522999  -2.2516840  30.8134330
  64.6203622  -1.9472243  29.3680947  73.7547121   7.9633532  24.7934151
  73.9283998   7.3979954  24.0408003  74.2476012   8.7634427  24.6113641
  59.5724080  -0.0251799  32.8597709  59.0277549   0.7508009  32.9917984
  60.4503430   0.3219005  32.7016831  74.7422293   7.2800296  21.8931049
  75.4373198   7.9006989  22.1118364  75.0845443   6.4295647  22.1683427
  60.3590102  -0.8981903  35.7527866  59.6171838  -0.7499267  36.3392497
  60.0382847  -0.6373637  34.8894616  76.6413716   4.7300002  23.4218380
  77.1665040   5.0687275  22.6967700  76.5536069   3.7947017  23.2381514
  68.3033765   8.6434075  35.5508256  68.6120891   8.3983222  36.4230956
  69.1009247   8.8480714  35.0627127  68.3254377  10.7971985  27.7813633
  67.8859367  10.3048364  28.4746490  69.0762494  10.2544953  27.5405708
  60.8046716   6.9883526  27.7838261  61.6304736   6.6887298  27.4036904
  60.4540768   6.2191148  28.2328050  65.7728249   6.3409994  29.8535935
  65.1508258   5.6780699  29.5538162  66.4433116   6.3671126  29.1709582
  59.0055321   4.9069852  28.7427195  58.1687229   4.4792027  28.5611196
  58.9778966   5.1002296  29.6797986  76.3307622   5.3632905  38.7269578
  75.5403166   5.3457044  38.1874077  76.0940977   5.9021199  39.4818614
  76.4505497   2.2125372  36.0402306  76.5003502   2.0475379  36.9817829
  76.3419421   1.3452631  35.6500187  77.9523694   4.6322313  36.2844328
  77.6608503   4.9952294  37.1207789  77.3395826   3.9189322  36.1057660
  79.1519377   2.1975193  28.8046898  79.9866268   2.6364997  28.9684458
  79.2878505   1.7213846  27.9855144  76.2010882  -0.2445072  34.7524386
  76.6765004  -0.0517426  33.9443237  75.2776448  -0.1885886  34.5067769
  72.0534421   7.6699198  21.9314725  72.9865095   7.6044760  22.1347600
  71.9657634   8.5055465  21.4729257  74.6822438   6.9865068  18.8918672
  74.6036070   6.6524932  19.7854430  75.5032105   7.4786836  18.8910145
  69.1022653   2.7740607  39.6022852  70.0225662   2.9519206  39.7962898
  69.0672236   1.8296652  39.4502551  62.0984725   0.6841641  32.2445633
  62.3170735   1.6158749  32.2633667  62.5110499   0.3249616  33.0300437
  66.9712591  -3.7425153  41.6348382  66.8709317  -2.7930796  41.5660473
  66.7534133  -4.0706914  40.7624452  58.1893078   1.5882112  30.4969248
  57.4956549   1.1736065  29.9839203  58.9366069   1.6302648  29.9002667
  66.8343861  -0.3128014  40.4513444  66.3510942   0.4872346  40.6577333
  66.9204800  -0.3020069  39.4980888  62.7617198   3.5776521  32.4881877
  63.7160452   3.5460463  32.4211809  62.5629722   3.1167145  33.3032103
  63.3516580   2.1477637  35.0552675  64.1709469   2.6421715  35.0787512
  63.6253388   1.2309605  35.0270243  61.1167427   9.1196140  29.5052075
  60.9821895   8.3596541  28.9390073  60.6999489   9.8437040  29.0380864
  73.0824200   0.0542925  24.6330921  73.0259402   0.5111476  23.7938553
  73.6352543  -0.7066390  24.4553764  64.2736553  10.0165457  29.7170518
  64.1568937  10.9610890  29.6149208  63.4528999   9.7139019  30.1056317
  74.1613087   4.7415593  20.5627111  74.9958691   4.3096791  20.3804586
  73.9997430   4.5697607  21.4904005  58.6051494  -3.5184229  35.7544872
  59.2510358  -4.0285275  36.2432097  58.3968646  -2.7815548  36.3288297
  71.1304887   3.5496618  41.2537013  71.9996046   3.7237270  40.8923648
  70.6511638   4.3691035  41.1312742  65.2991067  10.6693719  32.9326446
  66.2018314  10.7017329  33.2492941  65.0728437   9.7394170  32.9472782
  67.0544669   9.4224706  29.5936525  66.1040300   9.4226567  29.4800897
  67.3577155   8.6757440  29.0772560  82.7897362  15.2585244  30.6582287
  83.4275772  15.1391991  29.9545628  82.6718205  16.2066088  30.7170240
  79.5987069  15.2112672  30.5943812  79.2605580  15.0953737  29.7064347
  80.4676837  14.8103837  30.5744818  75.4573884  17.0648149  26.5840703
  74.8938749  16.9738086  25.8156991  75.3426279  16.2448053  27.0643196
  80.0806852  16.3647524  36.5530018  80.0695492  15.9700322  35.6810521
  80.2427491  15.6313597  37.1463789  73.0038316  18.5599340  29.4224924
  73.7959608  18.2190165  29.0071223  73.2434966  18.6694315  30.3427077
  81.0373443  20.7319116  21.8955168  80.3861423  21.3173197  21.5089182
  81.8317806  21.2625311  21.9550205  74.9629070  17.8208253  22.2942302
  75.7359946  17.2737241  22.1555178  75.3154469  18.6852503  22.5056764
  76.8014113  19.1484636  35.5009202  76.5103979  20.0530267  35.3855868
  77.4371097  19.1901163  36.2153271  77.7270320  16.5261484  32.0910561
  78.3233892  16.3017507  31.3767524  77.7845291  15.7846230  32.6936009
  77.2995348  13.9800920  19.9260752  77.5520869  13.4582441  19.1644215
  76.3619907  13.8167065  20.0287436  82.3438631  12.9836698  27.7335495
  83.1301720  12.5656121  27.3825913  82.6077335  13.8882790  27.9017144
  82.5148708  18.4209548  22.4324152  81.8794541  18.4944175  23.1445057
  82.1846115  19.0103147  21.7543232  87.7447058  12.9211931  28.6368474
  88.4772230  12.3511148  28.8706303  86.9886414  12.5333532  29.0774980
  77.0191637  15.8829026  22.1285127  76.9027895  15.2073929  22.7966212
  77.1293897  15.3961399  21.3117280  79.3623178  15.3439173  25.8331816
  78.9981385  14.8169794  26.5444738  80.2190294  14.9537642  25.6598302
  85.2672478   6.6333505  33.0963083  84.9355803   7.5028916  32.8724298
  84.6718092   6.3169789  33.7757113  79.0028665  10.3729072  20.8293165
  79.1703067  11.2409309  21.1963636  78.8125834  10.5356354  19.9054454
  81.7603998  18.8346051  32.4958995  81.4604721  19.7371090  32.3874803
  81.4155057  18.5678234  33.3480148  75.2116479  15.2859848  28.5295700
  74.2866976  15.1536062  28.7373392  75.4600893  16.0654067  29.0265642
  85.1601142  11.3528591  30.1756433  84.2518019  11.2844000  29.8815194
  85.1088737  11.8300536  31.0038258  78.9817886  12.8286730  21.8139832
  78.8617511  13.2743781  22.6525312  78.2870474  13.1772048  21.2553370
  72.5725290  14.9293122  29.3639489  72.7017672  15.1827601  30.2778901
  71.8922742  15.5220830  29.0444144  76.7424778  25.5990372  25.4629963
  76.6648807  26.5498197  25.5418444  76.1386421  25.2536244  26.1204889
  79.2342007  12.7718237  38.1191330  78.4575341  13.3312157  38.1094195
  79.8732570  13.2575020  38.6406200  87.0262788   9.5545030  31.9534307
  86.3837168   9.8477563  31.3074101  86.5217717   9.4397950  32.7587503
  84.6802952  13.3008203  22.6420166  85.5920808  13.5335590  22.4667863
  84.1712599  13.8845247  22.0795244  77.4888380  15.5803690  37.6809297
  78.2303064  16.1188734  37.4044121  76.7825365  16.2069979  37.8380849
  82.9643719  17.7232831  36.2781458  83.3727075  17.2815241  35.5336091
  82.2420981  17.1485458  36.5315651  79.3174789  12.6605438  33.6515015
  80.1635985  13.0844851  33.7949664  79.2573427  12.0039062  34.3453578
  83.2872534  18.2834021  30.0333747  82.6581396  18.4479736  29.3309815
  82.8998196  18.6975631  30.8044711  87.1661766  19.2188459  27.3878111
  86.4812804  19.5987361  26.8375144  87.2505615  19.8283786  28.1210059
  82.4674235  10.3209806  35.3096189  82.2235167  11.0751867  34.7730465
  82.7434165  10.6995154  36.1443436  84.4212698  16.8648418  33.9873455
  84.6329593  17.5080178  33.3107836  84.3742446  16.0310735  33.5195385
  82.0238926   9.4766239  30.8910027  81.1623405   9.7747493  31.1826764
  82.0501361   9.6936638  29.9591059  78.8400496  18.0208430  27.2983832
  79.3038841  18.2996133  26.5088455  78.5757294  17.1191874  27.1156923
  75.7324577  17.5679911  30.2363596  76.3025934  17.9967179  29.5981080
  76.3232689  17.2862496  30.9347781  77.7769382  14.1431582  24.1073398
  78.4793425  14.5952626  24.5747324  77.4450010  13.5015401  24.7353291
  76.2249743  12.7343339  38.4824607  75.5948404  13.4159619  38.7160004
  76.1185831  12.6226420  37.5377745  71.5194716  12.4015135  29.4090531
  70.7293770  12.6572663  28.9330642  72.0105963  13.2163472  29.5142572
  85.5358525  19.7420374  32.1595812  86.3575969  19.3400561  31.8778494
  85.5320928  19.6388608  33.1111928  73.4709461  12.7659714  26.3674008
  72.6740625  12.8778408  26.8857503  73.2435053  13.1046366  25.5014898
  79.3015129  19.2904417  34.3156522  79.3659561  19.7524824  35.1514694
  78.5926053  18.6601782  34.4438832  69.8032419  12.6545625  31.8405522
  70.0540457  13.5392635  32.1063098  70.3391967  12.4750227  31.0680614
  93.6264519  16.0859122  28.5080783  92.8728227  15.5166520  28.3524788
  93.7612060  16.0521787  29.4551418  79.0163147  20.9572525  24.1835503
  78.8808821  21.8024060  24.6120351  79.5572959  21.1591802  23.4201437
  75.5030486   7.0364104  40.8449858  75.1097432   6.4830303  41.5197502
  76.3196627   7.3474683  41.2356376  72.4692544  18.4747963  24.7563428
  72.9817065  19.2691213  24.9068993  73.1215257  17.7774253  24.6897029
  74.2787429  21.5913719  26.8386181  74.4554057  22.5131684  26.6507165
  75.0744262  21.2772138  27.2680561  78.4198447   8.4521984  38.4370115
  79.1608161   9.0529137  38.3574577  78.6516370   7.7099621  37.8788157
  73.5639785  13.6378351  36.7148344  73.4493300  12.7363608  37.0155443
  72.7084303  13.8842048  36.3633161  80.6431623  21.5796091  38.3135845
  80.1995477  20.7932470  37.9956749  81.3048837  21.7675242  37.6479736
  75.4018744  23.1091893  32.8396523  75.9526169  22.9808956  32.0673517
  74.5630220  23.4086782  32.4891416  82.7412861  21.8598891  36.3417246
  82.7231336  22.6807772  35.8497515  83.6632781  21.7352966  36.5667387
  79.1985915  19.3743020  37.1840754  79.7314252  18.6131309  36.9540062
  78.6699996  19.0816672  37.9264909  82.3655610   4.4803086  32.7134396
  82.0219880   5.3704728  32.6373507  82.7334573   4.2904744  31.8503981
  70.4341461  16.8036617  25.5322998  71.2716683  17.2133625  25.3156706
  70.6119728  15.8636059  25.5023192  82.3305893  14.4711698  21.2206831
  81.8152516  15.2416302  21.4595219  82.0583201  13.7976834  21.8439893
  79.9153004   9.3161398  26.2792070  79.0594600   8.9268249  26.0997708
  80.3279956   9.3953359  25.4191855  81.4452151   6.8507742  30.6783629
  80.9416946   6.8137877  29.8651435  81.7382757   7.7600484  30.7380286
  77.6895036   6.9346471  29.6849811  78.5548033   6.7389280  29.3255701
  77.7572545   6.7056823  30.6119168  87.3040167  17.2244052  23.1560005
  86.5269610  16.8855212  22.7115167  87.9831648  17.2296675  22.4814970
  82.1192196  12.3438790  23.0466613  81.8142332  12.6584939  23.8976756
  83.0722638  12.4220210  23.0893946  80.5638628  18.5029013  24.6959566
  80.0359989  17.7681773  24.3832804  80.0626131  19.2803689  24.4499535
  85.5431474  16.6978033  29.8126613  84.8855148  17.3877295  29.9006741
  86.3471873  17.0874465  30.1560599  75.2957355   9.1648679  27.0566178
  75.8701107   8.9423861  26.3239371  75.8828338   9.2337374  27.8094779
  84.3536933  15.0522406  27.8630555  84.8668814  15.6852398  28.3652264
  85.0038157  14.4523602  27.4973915  75.6226943  11.1953140  21.0762063
  74.7864255  11.5327827  21.3971338  75.4831712  11.0602120  20.1389200
  77.5980023   6.0389928  25.7841247  76.9444436   5.7238945  25.1597862
  77.5560497   5.4165669  26.5101070  78.7091228  16.3209223  17.6994540
  77.8018290  16.0898477  17.8985689  79.2062260  15.5246842  17.8868521
  81.6159307  25.0306730  20.6191226  80.9421006  25.3338427  21.2276184
  82.0025129  25.8335811  20.2696683  80.8317764  12.5271862  30.1088895
  79.9140325  12.7486809  29.9510583  81.2477907  12.6018172  29.2500602
  81.6152811  13.9263277  25.2391575  82.3624630  14.4384675  24.9298697
  81.8844401  13.6047330  26.0995969  79.8879461  16.4221818  22.2218530
  78.9790681  16.1380851  22.3190999  79.9174545  16.8420897  21.3621836
  85.1198729  20.0328408  25.9909697  84.6661056  19.1919317  26.0474888
  84.4892696  20.6689806  26.3284477  84.0631648  10.9620394  27.2210365
  83.3254405  10.4497780  27.5520607  84.3158422  10.5220775  26.4093642
  83.5631668  21.8704904  26.9259515  83.8554643  22.4309961  26.2071881
  84.0730289  22.1633465  27.6812674  84.1643276   3.7396646  27.8152134
  84.4702153   2.8794009  27.5278049  84.8895881   4.3314266  27.6151128
  70.4567632  14.1427332  26.2033732  70.2592032  13.5496693  25.4784798
  69.9014296  13.8379542  26.9209671  78.4364356  14.0350439  28.3228325
  78.4912965  13.0824275  28.2470802  77.6255558  14.1909878  28.8069623
  79.5855549  17.9630562  19.5606608  79.1474979  17.2466421  19.1012246
  80.3265990  18.1906677  18.9991700  76.3756715  12.6527498  26.0818704
  75.5624581  12.9521669  26.4883896  76.8715710  12.2583187  26.7993186
  78.5265293  22.6485255  28.0152969  78.4841472  22.8746102  27.0861501
  79.4427992  22.4148630  28.1638770  81.9730927  13.1169323  34.9133598
  82.3280315  13.3440796  35.7728063  82.6203058  13.4487700  34.2910853
  87.7028664  16.2387759  25.6182927  87.5646563  16.4289355  24.6904116
  87.3464883  17.0007142  26.0750978  75.8670790  10.2245854  31.6979939
  76.5070170  10.0834613  31.0002902  75.0348321   9.9380367  31.3218541
  87.7298044  18.3064286  30.6294198  88.1634550  18.2139575  31.4777252
  88.4429624  18.2821786  29.9914214  76.6431094  19.5248284  27.8114931
  77.4371693  19.0298605  27.6097506  75.9322786  18.9966148  27.4482637
  81.4625939  21.9066380  32.1627299  81.5162961  22.4757316  32.9305015
  80.5940720  22.0768265  31.7981336  72.9513858  13.6691366  23.8874684
  72.0211446  13.6075822  24.1044646  73.0471330  13.1467319  23.0911325
  72.8699407  10.1946179  26.4752926  73.1306224  11.1091512  26.3662086
  73.6916579   9.7270622  26.6249538  74.3424332  11.6083936  33.6451750
  75.0147385  11.4001298  32.9964399  73.5154118  11.4106022  33.2056982
  88.5913593  18.3487986  33.1627084  88.7849483  19.2533797  33.4086359
  88.4914211  17.8895406  33.9965669  80.2449904   8.2345877  35.6617411
  79.5977819   8.9335827  35.5681887  81.0150919   8.6682021  36.0293659
  83.6528702  18.4994729  38.7367964  83.5014208  18.2705281  37.8198048
  83.6433381  19.4565331  38.7499309  80.4214038  16.0726642  33.7214231
  81.3506098  16.2237802  33.5483198  80.0005068  16.1610663  32.8662877
  79.2202370  20.0977306  31.4912768  79.0813456  19.7296091  32.3638706
  78.4316966  20.6124946  31.3196726  79.8150522  25.1986403  22.8338305
  79.9902278  24.7274446  23.6483928  79.1283310  25.8252169  23.0619566
  80.7707585  19.4758909  28.8801606  80.4357418  19.4359679  29.7759256
  80.2711531  18.8103625  28.4072016  74.7451829  14.8826539  34.4054187
  74.6071627  14.1506778  35.0065726  75.6556753  14.7935439  34.1238375
  83.7066777  16.8214943  19.1538666  83.0895948  16.0961772  19.0571718
  83.2383265  17.5824304  18.8105740  77.3734130  14.5946498  33.8937867
  78.0833748  13.9539691  33.8524485  77.3303438  14.8459393  34.8164048
  85.3620909  21.5313852  36.8144446  85.3033455  20.8473072  36.1475029
  85.7640427  22.2732842  36.3625072  76.0863064  11.5811716  35.7133506
  75.5500421  11.1302455  36.3655103  75.4979772  11.7157625  34.9703971
  74.3811607  28.3475766  29.6078165  74.6208206  28.9794290  30.2857184
  73.5380804  27.9963806  29.8943524  75.4965323  11.0400368  18.2759970
  74.6194789  10.9189168  17.9122217  75.9723076  10.2486446  18.0238859
  85.3638316  19.4953436  35.0458426  84.4765095  19.1579357  35.1684825
  85.9336867  18.7636467  35.2827191  67.0167463  15.8277527  28.3701477
  67.7038503  15.5139257  27.7822493  66.8615592  16.7318892  28.0968729
  71.8202185  10.7167724  32.7986501  71.7360374  10.1093394  32.0636911
  70.9984891  11.2076742  32.7995997  78.8939469  24.1554888  32.0119669
  78.8209641  24.9609860  32.5238974  78.4516862  24.3546854  31.1867690
  78.6829249  23.3926658  25.5222491  77.8996771  23.9348338  25.6160715
  79.3821994  23.9100638  25.9216732  81.9925899   9.2021288  28.1656696
  82.4894598   8.4491250  27.8457766  81.2212880   9.2385604  27.5999905
  89.8455656  14.9061653  29.8074987  89.8345533  15.7886368  29.4368921
  88.9773036  14.5533204  29.6129525  81.3538153  24.0541722  34.1677828
  82.0666125  24.6889187  34.0953729  80.8628181  24.1505588  33.3517830
  83.0755680  17.9592975  25.7395119  82.1411958  18.0794437  25.5699824
  83.2532348  17.0565442  25.4755129  78.5760868  11.3438671  27.8928381
  78.2058655  10.7909711  28.5809286  79.0719960  10.7396804  27.3403381
  86.4628231  13.8010294  26.2745154  86.9288683  14.6338286  26.2005456
  86.9135731  13.3355276  26.9790412  76.4050066  21.8036166  34.9883399
  77.1059526  22.4372649  35.1412793  75.9345181  22.1450897  34.2279038
  84.5304462  20.1454115  23.2731306  84.8064306  20.0310710  24.1825180
  83.6608961  19.7471600  23.2343479  84.4344894   6.1690881  30.3136055
  83.5207974   6.3995108  30.4818262  84.8637995   6.2529325  31.1650087
  84.2051352  14.3580773  32.8135949  83.5522802  14.6056680  32.1588402
  84.5831732  13.5444911  32.4798426  81.1658526  24.3940466  26.9164119
  81.3480921  23.5762122  27.3791871  81.9891512  24.6108158  26.4789009
  81.5000692  23.3208651  24.1779168  82.0288458  22.8101106  23.5649330
  81.7628911  23.0051182  25.0424701  80.2538925  15.1000584  39.3001986
  79.5779562  14.9994713  39.9704361  81.0766559  14.9439798  39.7637983
  72.0017784  21.3372521  31.9214501  72.5871221  20.5916208  32.0542405
  71.8042623  21.6476477  32.8051165  74.8556440  24.3723768  26.9376944
  74.1866815  24.8569896  26.4540984  74.7169309  24.6192988  27.8520322
  66.5935439  13.9078121  30.6418944  66.6319539  13.3741711  31.4356062
  66.0875732  13.3813326  30.0229922  78.9961708  26.4067512  33.5359602
  79.5480016  26.5699133  34.3008687  79.3367902  26.9971949  32.8639627
  73.9726201   8.7542661  34.1381487  74.0367528   9.6157492  33.7258884
  73.9093322   8.1416663  33.4053845  73.4478474  10.8265794  37.7854521
  74.0750513  10.4442871  38.3992045  72.5906393  10.6079996  38.1510213
  83.8472582  21.2328769  39.3908256  84.3912486  21.8458727  38.8963211
  83.2659427  21.7908347  39.9075269  70.2244017  12.6342223  23.7172876
  70.5197458  11.7252901  23.6639929  69.3232052  12.6129962  23.3953878
  82.1330095  24.3549487  30.5223284  82.0081235  23.5539227  30.0134230
  82.7909187  24.8495680  30.0337254  73.7538264  10.7098220  29.7000424
  73.0324849  11.3234187  29.5607898  74.5431519  11.2455984  29.6217070
  84.1965004  22.1558507  32.1502834  83.2495339  22.0363858  32.0781161
  84.5447777  21.2681005  32.2329096  76.5564577   8.0452646  35.9741076
  77.0798979   8.2914943  36.7367385  76.3376910   8.8772681  35.5544213
  71.9531858  10.3156321  23.8412201  71.6244564   9.4353700  23.6587307
  72.3071229  10.2603989  24.7288590  81.2011437  21.9511223  28.3507186
  81.0536400  21.0227931  28.5314756  82.0264931  21.9731314  27.8664262
  75.0673681  10.6029290  24.2087679  75.4069754  11.1315212  23.4866287
  75.5145802  10.9409697  24.9846245  84.8045559  22.7739782  29.4372059
  85.7292106  22.5682643  29.2996510  84.6360862  22.5256183  30.3461401
  77.7617122   8.9866341  33.6590747  77.4213943   8.1874154  34.0611426
  77.0556128   9.2868052  33.0867580  78.4133594   6.0715654  32.1118070
  79.2359663   5.5976132  31.9896960  78.6571658   6.8506137  32.6116756
  77.0541829   9.1003912  22.4080971  77.7750191   9.4785165  21.9044688
  76.4307133   9.8192789  22.5115949  81.1972951   9.8049061  23.3439304
  81.4136566  10.6873699  23.0428132  80.7167019   9.4135274  22.6144946
  75.9372173  12.7634774  29.9210048  75.7916754  13.0775077  30.8134330
  75.4597376  13.3819675  29.3680947  77.7968556   9.7537322  29.9690938
  77.7830124   8.8578415  29.6323236  78.5140984   9.7607986  30.6029224
  79.6494686  10.1874662  32.0144065  79.3912464  11.1091733  32.0128396
  79.1179727   9.7905097  32.7044529  84.5940875  23.2925450  24.7934151
  84.7677753  22.7271872  24.0408003  85.0869766  24.0926344  24.6113641
  70.4117835  15.3040119  32.8597709  69.8671303  16.0799927  32.9917984
  71.2897185  15.6510923  32.7016831  77.2005452   8.6351702  25.2378508
  77.3221363   7.7068349  25.4369395  76.9107494   8.6490388  24.3256823
  80.0696642   6.3206613  28.3745228  80.0918339   6.3845946  27.4197207
  80.4864701   5.4811122  28.5685734  90.4480266  16.0561872  26.4124450
  90.8911412  15.3069198  26.0143574  89.5706777  16.0472009  26.0298182
  85.5816048  22.6092214  21.8931049  86.2766952  23.2298907  22.1118364
  85.9239198  21.7587565  22.1683427  71.1983857  14.4310015  35.7527866
  70.4565593  14.5792650  36.3392497  70.8776601  14.6918280  34.8894616
  87.4807471  20.0591919  23.4218380  88.0058795  20.3979192  22.6967700
  87.3929823  19.1238935  23.2381514  79.1427519  23.9725993  35.5508256
  79.4514646  23.7275140  36.4230956  79.9403001  24.1772632  35.0627127
  79.1648132  26.1263903  27.7813633  78.7253122  25.6340281  28.4746490
  79.9156248  25.5836870  27.5405708  71.6440470  22.3175444  27.7838261
  72.4698490  22.0179215  27.4036904  71.2934522  21.5483066  28.2328050
  76.6122004  21.6701912  29.8535935  75.9902013  21.0072617  29.5538162
  77.2826871  21.6963044  29.1709582  69.8449076  20.2361770  28.7427195
  69.0080984  19.8083944  28.5611196  69.8172721  20.4294213  29.6797986
  76.6846531  10.1483700  39.4468441  76.7334687  11.0245823  39.0646210
  77.2269045   9.6061093  38.8740084  87.1701377  20.6924823  38.7269578
  86.3796921  20.6748962  38.1874077  86.9334731  21.2313117  39.4818614
  87.2899252  17.5417289  36.0402306  87.3397257  17.3767297  36.9817829
  87.1813175  16.6744548  35.6500187  76.1735511  20.2205835  23.3294395
  76.3223631  20.9041300  22.6761068  76.9801954  20.2010925  23.8443851
  84.5803014  13.5248217  37.3561613  85.4812877  13.3854682  37.0645611
  84.6550989  13.6902672  38.2959790  78.9145820  10.9015072  36.2014799
  78.0449129  11.1948638  35.9297388  79.1505300  11.4855517  36.9222063
  88.7917449  19.9614231  36.2844328  88.5002257  20.3244212  37.1207789
  88.1789580  19.2481239  36.1057660  89.9913131  17.5267111  28.8046898
  90.8260022  17.9656915  28.9684458  90.1272260  17.0505764  27.9855144
  87.0404637  15.0846846  34.7524386  87.5158759  15.2774492  33.9443237
  86.1170202  15.1406031  34.5067769  73.9288144  16.2471013  24.3355464
  73.6834185  15.3433343  24.5335674  74.0984058  16.2488163  23.3934942
  81.6184853   7.1194689  33.7180220  82.1366797   7.8555716  33.3926708
  81.2639986   7.4258682  34.5526979  73.1983791  11.9799370  21.8341625
  72.5053036  12.0543725  21.1781661  72.9535543  11.2159714  22.3563142
  81.8697448   3.5394972  29.2381116  82.1499201   2.8718161  29.8641543
  82.6548055   3.7324067  28.7255780  79.6730916  22.7153966  20.8006142
  79.1004883  23.3344153  20.3476614  80.2463710  23.2653327  21.3346064
  85.7406306  11.9612606  32.9852691  86.6923729  12.0610703  33.0064915
  85.5709756  11.1690874  33.4950776  83.7620685   9.0468189  33.1712092
  83.1670618   9.3273202  32.4758581  83.4770382   9.5362090  33.9428833
  82.8928176  22.9991116  21.9314725  83.8258849  22.9336677  22.1347600
  82.8051389  23.8347383  21.4729257  85.5216193  22.3156986  18.8918672
  85.4429824  21.9816850  19.7854430  86.3425859  22.8078754  18.8910145
  88.2194384  15.1818725  32.0994991  88.1870704  14.2434726  32.2854675
  88.8295007  15.2602762  31.3660816  80.0577715  14.0514778  18.1422195
  81.0036819  13.9220986  18.2110613  79.6791960  13.3129440  18.6191623
  88.3688872  11.9729769  32.1453274  87.8527921  11.1888225  31.9583203
  89.2528821  11.6448485  32.3099794  86.0299599   5.7170784  28.1049087
  85.8324420   5.4085873  28.9892419  86.6399305   6.4432423  28.2347017
  94.0370934  16.2434732  31.2401028  94.7674322  15.9820020  31.8008731
  93.4277879  15.5063454  31.2803096  92.1186231  14.3842595  31.8375479
  91.3919394  14.2498560  31.2291971  91.7033518  14.6919423  32.6432197
  79.9416407  18.1032524  39.6022852  80.8619417  18.2811123  39.7962898
  79.9065990  17.1588570  39.4502551  78.2420632  11.9764755  18.0777080
  77.3352087  11.6797867  18.1539794  78.5196613  11.6794573  17.2111366
  69.1598572  13.2971118  28.5276127  68.8401356  12.4436426  28.2350501
  68.6132000  13.5119696  29.2834094  72.9378480  16.0133559  32.2445633
  73.1564489  16.9450667  32.2633667  73.3504254  15.6541534  33.0300437
  79.8582697   6.5201644  24.2321322  79.0483426   6.1748729  24.6076568
  80.5467114   6.2109188  24.8208933  81.7873246   5.5979691  25.8545618
  82.3404284   6.0175145  26.5135641  82.0243332   4.6715439  25.8968574
  77.8106345  11.5866765  41.6348382  77.7103072  12.5361122  41.5660473
  77.5927887  11.2585004  40.7624452  77.0119416   8.8351690  18.2189059
  77.8738580   9.1606588  18.4784877  77.1969761   8.0483186  17.7062125
  69.0286832  16.9174030  30.4969248  68.3350304  16.5027982  29.9839203
  69.7759823  16.9594566  29.9002667  85.1652053   7.7080216  25.3624282
  84.5850722   8.3665020  24.9802335  84.8987986   6.8857561  24.9511700
  83.6155619   7.1085274  27.5645603  84.1155398   7.2201809  26.7559922
  84.2591227   6.8046327  28.2046411  77.6737615  15.0163904  40.4513444
  77.1904697  15.8164264  40.6577333  77.7598554  15.0271849  39.4980888
  70.9423575  16.8492283  28.3735263  70.9194263  16.9479971  27.4217146
  71.2524211  17.6957434  28.6952429  73.6010953  18.9068438  32.4881877
  74.5554206  18.8752381  32.4211809  73.4023476  18.4459062  33.3032103
  74.1910335  17.4769554  35.0552675  75.0103224  17.9713633  35.0787512
  74.4647142  16.5601523  35.0270243  83.9476931   9.8680307  24.4180631
  83.0602786  10.1529957  24.2000825  84.3630920   9.7074070  23.5707908
  87.2991467   9.8926828  28.1334970  88.0751857  10.3823280  28.4059587
  86.5739601  10.3184882  28.5906839  89.7364026  10.6054447  29.1908911
  90.3308516  10.3650183  28.4802219  89.8090609   9.8861578  29.8182447
  71.9561181  24.4488058  29.5052075  71.8215649  23.6888459  28.9390073
  71.5393244  25.1728958  29.0380864  83.0920144  19.6324981  18.5128651
  83.7955994  19.8374984  19.1286306  82.3682793  20.2001743  18.7777734
  83.9217955  15.3834843  24.6330921  83.8653156  15.8403394  23.7938553
  84.4746297  14.6225527  24.4553764  87.7322761  11.1724575  25.4581040
  87.4759695  10.7721210  26.2889248  87.1075629  11.8868369  25.3331179
  92.0435098  13.9120648  27.9652332  91.4834656  13.9813837  28.7383894
  91.4378602  13.7361632  27.2451828  75.1130307  25.3457375  29.7170518
  74.9962691  26.2902807  29.6149208  74.2922753  25.0430937  30.1056317
  85.0006842  20.0707511  20.5627111  85.8352446  19.6388709  20.3804586
  84.8391185  19.8989524  21.4904005  84.6552734  16.5739624  21.9283450
  84.6001538  16.4083895  20.9871894  84.0298789  17.2815657  22.0845640
  69.4445249  11.8107688  35.7544872  70.0904113  11.3006642  36.2432097
  69.2362400  12.5476370  36.3288297  81.9698641  18.8788536  41.2537013
  82.8389801  19.0529188  40.8923648  81.4905393  19.6982953  41.1312742
  77.9648859   6.0747733  21.5068768  77.9527529   7.0189573  21.6637039
  78.8572281   5.8917878  21.2128230  76.1384821  25.9985637  32.9326446
  77.0412068  26.0309247  33.2492941  75.9122191  25.0686088  32.9472782
  77.8938423  24.7516623  29.5936525  76.9434054  24.7518485  29.4800897
  78.1970909  24.0049358  29.0772560  81.7800979   2.6690510  25.7614705
  81.0133375   2.1148996  25.9071388  82.1911684   2.7412378  26.6228857
  73.7842740   8.9575305  39.8519886  74.6474201   8.6012110  40.0623211
  73.2108151   8.6189200  40.5395291  93.6291117  30.5877162  30.6582287
  94.2669527  30.4683909  29.9545628  93.5111960  31.5358006  30.7170240
  90.4380823  30.5404590  30.5943812  90.0999335  30.4245655  29.7064347
  91.3070591  30.1395755  30.5744818  86.2967639  32.3940066  26.5840703
  85.7332504  32.3030003  25.8156991  86.1820034  31.5739971  27.0643196
  90.9200606  31.6939442  36.5530018  90.9089247  31.2992240  35.6810521
  91.0821246  30.9605514  37.1463789  83.8432071  33.8891258  29.4224924
  84.6353363  33.5482083  29.0071223  84.0828721  33.9986233  30.3427077
  91.8767198  36.0611034  21.8955168  91.2255177  36.6465114  21.5089182
  92.6711560  36.5917229  21.9550205  85.8022825  33.1500171  22.2942302
  86.5753701  32.6029158  22.1555178  86.1548224  34.0144420  22.5056764
  87.6407867  34.4776553  35.5009202  87.3497733  35.3822184  35.3855868
  88.2764852  34.5193081  36.2153271  88.5664074  31.8553402  32.0910561
  89.1627646  31.6309424  31.3767524  88.6239046  31.1138147  32.6936009
  88.1389103  29.3092837  19.9260752  88.3914623  28.7874359  19.1644215
  87.2013662  29.1458983  20.0287436  93.1832385  28.3128616  27.7335495
  93.9695475  27.8948039  27.3825913  93.4471090  29.2174708  27.9017144
  93.3542463  33.7501466  22.4324152  92.7188296  33.8236092  23.1445057
  93.0239869  34.3395065  21.7543232  98.5840812  28.2503849  28.6368474
  99.3165984  27.6803066  28.8706303  97.8280168  27.8625449  29.0774980
  87.8585391  31.2120943  22.1285127  87.7421649  30.5365847  22.7966212
  87.9687651  30.7253317  21.3117280  90.2016932  30.6731090  25.8331816
  89.8375139  30.1461711  26.5444738  91.0584048  30.2829559  25.6598302
  96.1066233  21.9625423  33.0963083  95.7749558  22.8320834  32.8724298
  95.5111846  21.6461707  33.7757113  89.8422419  25.7020990  20.8293165
  90.0096822  26.5701226  21.1963636  89.6519588  25.8648272  19.9054454
  92.5997752  34.1637969  32.4958995  92.2998475  35.0663008  32.3874803
  92.2548812  33.8970152  33.3480148  86.0510234  30.6151766  28.5295700
  85.1260730  30.4827980  28.7373392  86.2994647  31.3945985  29.0265642
  95.9994896  26.6820509  30.1756433  95.0911773  26.6135918  29.8815194
  95.9482492  27.1592454  31.0038258  89.8211640  28.1578648  21.8139832
  89.7011265  28.6035698  22.6525312  89.1264228  28.5063965  21.2553370
  83.4119045  30.2585039  29.3639489  83.5411426  30.5119518  30.2778901
  82.7316496  30.8512747  29.0444144  87.5818532  40.9282289  25.4629963
  87.5042562  41.8790114  25.5418444  86.9780176  40.5828162  26.1204889
  90.0735762  28.1010155  38.1191330  89.2969096  28.6604075  38.1094195
  90.7126325  28.5866938  38.6406200  97.8656543  24.8836948  31.9534307
  97.2230923  25.1769481  31.3074101  97.3611471  24.7689868  32.7587503
  95.5196706  28.6300121  22.6420166  96.4314562  28.8627507  22.4667863
  95.0106353  29.2137165  22.0795244  88.3282134  30.9095608  37.6809297
  89.0696819  31.4480652  37.4044121  87.6219120  31.5361897  37.8380849
  93.8037474  33.0524749  36.2781458  94.2120830  32.6107159  35.5336091
  93.0814735  32.4777376  36.5315651  90.1568544  27.9897355  33.6515015
  91.0029739  28.4136769  33.7949664  90.0967182  27.3330980  34.3453578
  94.1266288  33.6125939  30.0333747  93.4975151  33.7771653  29.3309815
  93.7391951  34.0267549  30.8044711  98.0055520  34.5480377  27.3878111
  97.3206559  34.9279278  26.8375144  98.0899370  35.1575704  28.1210059
  93.3067989  25.6501724  35.3096189  93.0628921  26.4043784  34.7730465
  93.5827920  26.0287071  36.1443436  95.2606452  32.1940336  33.9873455
  95.4723347  32.8372096  33.3107836  95.2136200  31.3602653  33.5195385
  92.8632681  24.8058157  30.8910027  92.0017160  25.1039410  31.1826764
  92.8895116  25.0228556  29.9591059  89.6794250  33.3500347  27.2983832
  90.1432596  33.6288050  26.5088455  89.4151048  32.4483792  27.1156923
  86.5718331  32.8971829  30.2363596  87.1419688  33.3259097  29.5981080
  87.1626443  32.6154413  30.9347781  88.6163136  29.4723500  24.1073398
  89.3187180  29.9244543  24.5747324  88.2843765  28.8307318  24.7353291
  87.0643498  28.0635256  38.4824607  86.4342159  28.7451537  38.7160004
  86.9579586  27.9518338  37.5377745  82.3588470  27.7307052  29.4090531
  81.5687524  27.9864581  28.9330642  82.8499718  28.5455390  29.5142572
  96.3752280  35.0712291  32.1595812  97.1969724  34.6692479  31.8778494
  96.3714683  34.9680526  33.1111928  84.3103216  28.0951632  26.3674008
  83.5134379  28.2070326  26.8857503  84.0828808  28.4338284  25.5014898
  90.1408883  34.6196335  34.3156522  90.2053316  35.0816742  35.1514694
  89.4319807  33.9893700  34.4438832  80.6426173  27.9837543  31.8405522
  80.8934212  28.8684553  32.1063098  81.1785722  27.8042144  31.0680614
 104.4658273  31.4151040  28.5080783 103.7121981  30.8458438  28.3524788
 104.6005814  31.3813704  29.4551418  89.8556901  36.2864442  24.1835503
  89.7202576  37.1315978  24.6120351  90.3966714  36.4883720  23.4201437
  86.3424241  22.3656022  40.8449858  85.9491186  21.8122221  41.5197502
  87.1590381  22.6766601  41.2356376  83.3086298  33.8039880  24.7563428
  83.8210819  34.5983131  24.9068993  83.9609011  33.1066171  24.6897029
  85.1181183  36.9205637  26.8386181  85.2947811  37.8423601  26.6507165
  85.9138017  36.6064056  27.2680561  89.2592202  23.7813901  38.4370115
  90.0001915  24.3821054  38.3574577  89.4910124  23.0391539  37.8788157
  84.4033540  28.9670268  36.7148344  84.2887055  28.0655526  37.0155443
  83.5478057  29.2133965  36.3633161  91.4825377  36.9088009  38.3135845
  91.0389232  36.1224387  37.9956749  92.1442591  37.0967159  37.6479736
  86.2412499  38.4383810  32.8396523  86.7919924  38.3100874  32.0673517
  85.4023975  38.7378699  32.4891416  93.5806615  37.1890809  36.3417246
  93.5625091  38.0099690  35.8497515  94.5026536  37.0644884  36.5667387
  90.0379670  34.7034938  37.1840754  90.5708006  33.9423226  36.9540062
  89.5093751  34.4108590  37.9264909  93.2049365  19.8095004  32.7134396
  92.8613634  20.6996646  32.6373507  93.5728327  19.6196662  31.8503981
  81.2735215  32.1328535  25.5322998  82.1110437  32.5425543  25.3156706
  81.4513483  31.1927977  25.5023192  93.1699647  29.8003615  21.2206831
  92.6546271  30.5708220  21.4595219  92.8976956  29.1268751  21.8439893
  90.7546758  24.6453316  26.2792070  89.8988355  24.2560166  26.0997708
  91.1673710  24.7245277  25.4191855  92.2845905  22.1799659  30.6783629
  91.7810701  22.1429794  29.8651435  92.5776512  23.0892402  30.7380286
  88.5288791  22.2638389  29.6849811  89.3941788  22.0681198  29.3255701
  88.5966300  22.0348741  30.6119168  98.1433921  32.5535970  23.1560005
  97.3663364  32.2147129  22.7115167  98.8225402  32.5588593  22.4814970
  92.9585951  27.6730707  23.0466613  92.6536086  27.9876857  23.8976756
  93.9116393  27.7512127  23.0893946  91.4032382  33.8320931  24.6959566
  90.8753744  33.0973690  24.3832804  90.9019885  34.6095607  24.4499535
  96.3825228  32.0269951  29.8126613  95.7248903  32.7169213  29.9006741
  97.1865628  32.4166383  30.1560599  86.1351110  24.4940597  27.0566178
  86.7094862  24.2715778  26.3239371  86.7222092  24.5629291  27.8094779
  95.1930687  30.3814324  27.8630555  95.7062569  31.0144316  28.3652264
  95.8431911  29.7815519  27.4973915  86.4620697  26.5245058  21.0762063
  85.6258009  26.8619744  21.3971338  86.3225467  26.3894038  20.1389200
  88.4373778  21.3681846  25.7841247  87.7838190  21.0530863  25.1597862
  88.3954252  20.7457586  26.5101070  89.5484983  31.6501141  17.6994540
  88.6412044  31.4190394  17.8985689  90.0456015  30.8538760  17.8868521
  92.4553061  40.3598648  20.6191226  91.7814760  40.6630345  21.2276184
  92.8418883  41.1627728  20.2696683  91.6711518  27.8563779  30.1088895
  90.7534079  28.0778726  29.9510583  92.0871662  27.9310090  29.2500602
  92.4546566  29.2555195  25.2391575  93.2018385  29.7676592  24.9298697
  92.7238155  28.9339248  26.0995969  90.7273216  31.7513736  22.2218530
  89.8184435  31.4672769  22.3190999  90.7568300  32.1712814  21.3621836
  95.9592483  35.3620325  25.9909697  95.5054810  34.5211235  26.0474888
  95.3286450  35.9981724  26.3284477  94.9025403  26.2912311  27.2210365
  94.1648160  25.7789698  27.5520607  95.1552176  25.8512693  26.4093642
  94.4025423  37.1996822  26.9259515  94.6948397  37.7601879  26.2071881
  94.9124043  37.4925383  27.6812674  95.0037030  19.0688563  27.8152134
  95.3095907  18.2085927  27.5278049  95.7289635  19.6606183  27.6151128
  81.2961386  29.4719250  26.2033732  81.0985786  28.8788611  25.4784798
  80.7408050  29.1671460  26.9209671  89.2758110  29.3642356  28.3228325
  89.3306720  28.4116193  28.2470802  88.4649312  29.5201795  28.8069623
  90.4249304  33.2922479  19.5606608  89.9868734  32.5758338  19.1012246
  91.1659745  33.5198594  18.9991700  87.2150470  27.9819416  26.0818704
  86.4018335  28.2813587  26.4883896  87.7109464  27.5875105  26.7993186
  89.3659048  37.9777173  28.0152969  89.3235227  38.2038019  27.0861501
  90.2821747  37.7440548  28.1638770  92.8124682  28.4461241  34.9133598
  93.1674069  28.6732714  35.7728063  93.4596813  28.7779617  34.2910853
  98.5422419  31.5679676  25.6182927  98.4040317  31.7581272  24.6904116
  98.1858637  32.3299059  26.0750978  86.7064545  25.5537772  31.6979939
  87.3463924  25.4126531  31.0002902  85.8742075  25.2672285  31.3218541
  98.5691798  33.6356203  30.6294198  99.0028305  33.5431493  31.4777252
  99.2823379  33.6113704  29.9914214  87.4824849  34.8540202  27.8114931
  88.2765447  34.3590522  27.6097506  86.7716541  34.3258065  27.4482637
  92.3019693  37.2358298  32.1627299  92.3556715  37.8049234  32.9305015
  91.4334474  37.4060183  31.7981336  83.7907612  28.9983284  23.8874684
  82.8605200  28.9367739  24.1044646  83.8865084  28.4759237  23.0911325
  83.7093161  25.5238097  26.4752926  83.9699978  26.4383430  26.3662086
  84.5310333  25.0562539  26.6249538  85.1818086  26.9375854  33.6451750
  85.8541140  26.7293216  32.9964399  84.3547873  26.7397940  33.2056982
  99.4307348  33.6779904  33.1627084  99.6243238  34.5825715  33.4086359
  99.3307966  33.2187323  33.9965669  91.0843658  23.5637795  35.6617411
  90.4371573  24.2627744  35.5681887  91.8544674  23.9973939  36.0293659
  94.4922456  33.8286647  38.7367964  94.3407963  33.5997199  37.8198048
  94.4827136  34.7857248  38.7499309  91.2607793  31.4018560  33.7214231
  92.1899853  31.5529719  33.5483198  90.8398823  31.4902580  32.8662877
  90.0596125  35.4269224  31.4912768  89.9207210  35.0588008  32.3638706
  89.2710721  35.9416863  31.3196726  90.6544277  40.5278321  22.8338305
  90.8296032  40.0566364  23.6483928  89.9677065  41.1544087  23.0619566
  91.6101340  34.8050827  28.8801606  91.2751172  34.7651597  29.7759256
  91.1105285  34.1395543  28.4072016  85.5845584  30.2118457  34.4054187
  85.4465382  29.4798696  35.0065726  86.4950507  30.1227357  34.1238375
  94.5460531  32.1506861  19.1538666  93.9289702  31.4253689  19.0571718
  94.0777020  32.9116221  18.8105740  88.2127884  29.9238416  33.8937867
  88.9227503  29.2831608  33.8524485  88.1697193  30.1751311  34.8164048
  96.2014663  36.8605769  36.8144446  96.1427209  36.1764990  36.1475029
  96.6034181  37.6024759  36.3625072  86.9256818  26.9103634  35.7133506
  86.3894175  26.4594372  36.3655103  86.3373527  27.0449543  34.9703971
  85.2205362  43.6767683  29.6078165  85.4601960  44.3086207  30.2857184
  84.3774558  43.3255723  29.8943524  86.3359077  26.3692285  18.2759970
  85.4588544  26.2481086  17.9122217  86.8116830  25.5778364  18.0238859
  96.2032070  34.8245353  35.0458426  95.3158849  34.4871275  35.1684825
  96.7730621  34.0928385  35.2827191  77.8561217  31.1569445  28.3701477
  78.5432257  30.8431175  27.7822493  77.7009346  32.0610810  28.0968729
  82.6595940  26.0459642  32.7986501  82.5754128  25.4385311  32.0636911
  81.8378646  26.5368660  32.7995997  89.7333224  39.4846806  32.0119669
  89.6603395  40.2901777  32.5238974  89.2910617  39.6838772  31.1867690
  89.5223003  38.7218576  25.5222491  88.7390525  39.2640256  25.6160715
  90.2215749  39.2392555  25.9216732  92.8319653  24.5313205  28.1656696
  93.3288353  23.7783168  27.8457766  92.0606635  24.5677522  27.5999905
 100.6849411  30.2353571  29.8074987 100.6739287  31.1178286  29.4368921
  99.8166790  29.8825122  29.6129525  92.1931907  39.3833640  34.1677828
  92.9059879  40.0181105  34.0953729  91.7021936  39.4797506  33.3517830
  93.9149434  33.2884892  25.7395119  92.9805713  33.4086355  25.5699824
  94.0926103  32.3857359  25.4755129  89.4154622  26.6730588  27.8928381
  89.0452410  26.1201629  28.5809286  89.9113715  26.0688722  27.3403381
  97.3021985  29.1302212  26.2745154  97.7682438  29.9630203  26.2005456
  97.7529486  28.6647193  26.9790412  87.2443821  37.1328083  34.9883399
  87.9453280  37.7664566  35.1412793  86.7738936  37.4742815  34.2279038
  95.3698217  35.4746033  23.2731306  95.6458060  35.3602628  24.1825180
  94.5002715  35.0763518  23.2343479  95.2738648  21.4982799  30.3136055
  94.3601728  21.7287026  30.4818262  95.7031750  21.5821243  31.1650087
  95.0445107  29.6872691  32.8135949  94.3916557  29.9348598  32.1588402
  95.4225487  28.8736829  32.4798426  92.0052281  39.7232384  26.9164119
  92.1874675  38.9054040  27.3791871  92.8285267  39.9400076  26.4789009
  92.3394446  38.6500569  24.1779168  92.8682213  38.1393024  23.5649330
  92.6022666  38.3343099  25.0424701  91.0932680  30.4292502  39.3001986
  90.4173317  30.3286631  39.9704361  91.9160314  30.2731715  39.7637983
  82.8411539  36.6664438  31.9214501  83.4264976  35.9208126  32.0542405
  82.6436377  36.9768395  32.8051165  85.6950194  39.7015686  26.9376944
  85.0260569  40.1861813  26.4540984  85.5563064  39.9484906  27.8520322
  77.4329194  29.2370038  30.6418944  77.4713293  28.7033629  31.4356062
  76.9269486  28.7105244  30.0229922  89.8355463  41.7359429  33.5359602
  90.3873771  41.8991051  34.3008687  90.1761656  42.3263867  32.8639627
  84.8119956  24.0834579  34.1381487  84.8761282  24.9449410  33.7258884
  84.7487076  23.4708581  33.4053845  84.2872228  26.1557712  37.7854521
  84.9144267  25.7734789  38.3992045  83.4300147  25.9371913  38.1510213
  94.6866337  36.5620687  39.3908256  95.2306241  37.1750645  38.8963211
  94.1053182  37.1200265  39.9075269  81.0637771  27.9634141  23.7172876
  81.3591212  27.0544819  23.6639929  80.1625807  27.9421880  23.3953878
  92.9723850  39.6841405  30.5223284  92.8474989  38.8831145  30.0134230
  93.6302941  40.1787598  30.0337254  84.5932018  26.0390137  29.7000424
  83.8718604  26.6526105  29.5607898  85.3825274  26.5747902  29.6217070
  95.0358758  37.4850425  32.1502834  94.0889094  37.3655776  32.0781161
  95.3841531  36.5972923  32.2329096  87.3958332  23.3744564  35.9741076
  87.9192733  23.6206860  36.7367385  87.1770665  24.2064599  35.5544213
  82.7925613  25.6448238  23.8412201  82.4638319  24.7645617  23.6587307
  83.1464983  25.5895907  24.7288590  92.0405192  37.2803141  28.3507186
  91.8930154  36.3519848  28.5314756  92.8658685  37.3023232  27.8664262
  85.9067436  25.9321208  24.2087679  86.2463508  26.4607129  23.4866287
  86.3539556  26.2701614  24.9846245  95.6439313  38.1031700  29.4372059
  96.5685861  37.8974561  29.2996510  95.4754617  37.8548101  30.3461401
  88.6010877  24.3158259  33.6590747  88.2607697  23.5166072  34.0611426
  87.8949883  24.6159970  33.0867580  89.2527349  21.4007571  32.1118070
  90.0753418  20.9268049  31.9896960  89.4965412  22.1798055  32.6116756
  87.8935583  24.4295830  22.4080971  88.6143946  24.8077082  21.9044688
  87.2700887  25.1484706  22.5115949  92.0366706  25.1340979  23.3439304
  92.2530320  26.0165617  23.0428132  91.5560773  24.7427192  22.6144946
  86.7765927  28.0926692  29.9210048  86.6310508  28.4066995  30.8134330
  86.2991131  28.7111592  29.3680947  88.6362310  25.0829240  29.9690938
  88.6223879  24.1870333  29.6323236  89.3534738  25.0899904  30.6029224
  90.4888441  25.5166580  32.0144065  90.2306219  26.4383651  32.0128396
  89.9573481  25.1197015  32.7044529  95.4334630  38.6217367  24.7934151
  95.6071507  38.0563790  24.0408003  95.9263521  39.4218262  24.6113641
  81.2511589  30.6332036  32.8597709  80.7065058  31.4091844  32.9917984
  82.1290939  30.9802841  32.7016831  88.0399206  23.9643620  25.2378508
  88.1615117  23.0360266  25.4369395  87.7501248  23.9782306  24.3256823
  90.9090396  21.6498531  28.3745228  90.9312093  21.7137864  27.4197207
  91.3258455  20.8103039  28.5685734 101.2874021  31.3853790  26.4124450
 101.7305167  30.6361115  26.0143574 100.4100531  31.3763926  26.0298182
  96.4209802  37.9384132  21.8931049  97.1160707  38.5590824  22.1118364
  96.7632952  37.0879483  22.1683427  82.0377611  29.7601933  35.7527866
  81.2959347  29.9084568  36.3392497  81.7170356  30.0210198  34.8894616
  98.3201225  35.3883837  23.4218380  98.8452549  35.7271110  22.6967700
  98.2323578  34.4530852  23.2381514  89.9821274  39.3017911  35.5508256
  90.2908400  39.0567058  36.4230956  90.7796756  39.5064549  35.0627127
  90.0041886  41.4555820  27.7813633  89.5646876  40.9632199  28.4746490
  90.7550003  40.9128788  27.5405708  82.4834225  37.6467361  27.7838261
  83.3092245  37.3471133  27.4036904  82.1328277  36.8774984  28.2328050
  87.4515758  36.9993829  29.8535935  86.8295767  36.3364535  29.5538162
  88.1220625  37.0254961  29.1709582  80.6842830  35.5653688  28.7427195
  79.8474738  35.1375862  28.5611196  80.6566475  35.7586131  29.6797986
  87.5240286  25.4775618  39.4468441  87.5728441  26.3537740  39.0646210
  88.0662800  24.9353011  38.8740084  98.0095131  36.0216741  38.7269578
  97.2190675  36.0040880  38.1874077  97.7728486  36.5605034  39.4818614
  98.1293006  32.8709207  36.0402306  98.1791011  32.7059215  36.9817829
  98.0206930  32.0036466  35.6500187  87.0129265  35.5497753  23.3294395
  87.1617385  36.2333217  22.6761068  87.8195709  35.5302843  23.8443851
  95.4196769  28.8540135  37.3561613  96.3206632  28.7146600  37.0645611
  95.4944743  29.0194590  38.2959790  89.7539574  26.2306990  36.2014799
  88.8842883  26.5240556  35.9297388  89.9899054  26.8147435  36.9222063
  99.6311203  35.2906149  36.2844328  99.3396012  35.6536129  37.1207789
  99.0183334  34.5773157  36.1057660 100.8306886  32.8559028  28.8046898
 101.6653777  33.2948832  28.9684458 100.9666014  32.3797682  27.9855144
  97.8798391  30.4138763  34.7524386  98.3552513  30.6066410  33.9443237
  96.9563957  30.4697949  34.5067769  84.7681898  31.5762930  24.3355464
  84.5227940  30.6725260  24.5335674  84.9377813  31.5780081  23.3934942
  92.4578608  22.4486607  33.7180220  92.9760552  23.1847634  33.3926708
  92.1033741  22.7550600  34.5526979  84.0377546  27.3091288  21.8341625
  83.3446791  27.3835643  21.1781661  83.7929297  26.5451632  22.3563142
  92.7091202  18.8686889  29.2381116  92.9892956  18.2010078  29.8641543
  93.4941809  19.0615985  28.7255780  90.5124671  38.0445883  20.8006142
  89.9398638  38.6636070  20.3476614  91.0857464  38.5945245  21.3346064
  96.5800060  27.2904523  32.9852691  97.5317483  27.3902621  33.0064915
  96.4103511  26.4982792  33.4950776  94.6014440  24.3760107  33.1712092
  94.0064372  24.6565119  32.4758581  94.3164137  24.8654008  33.9428833
  93.7321930  38.3283033  21.9314725  94.6652604  38.2628595  22.1347600
  93.6445143  39.1639300  21.4729257  96.3609947  37.6448904  18.8918672
  96.2823579  37.3108767  19.7854430  97.1819614  38.1370672  18.8910145
  99.0588138  30.5110643  32.0994991  99.0264458  29.5726644  32.2854675
  99.6688762  30.5894680  31.3660816  90.8971469  29.3806696  18.1422195
  91.8430574  29.2512904  18.2110613  90.5185714  28.6421358  18.6191623
  99.2082627  27.3021686  32.1453274  98.6921675  26.5180143  31.9583203
 100.0922575  26.9740403  32.3099794  96.8693354  21.0462702  28.1049087
  96.6718175  20.7377790  28.9892419  97.4793059  21.7724341  28.2347017
 104.8764688  31.5726650  31.2401028 105.6068077  31.3111938  31.8008731
 104.2671634  30.8355372  31.2803096 102.9579985  29.7134512  31.8375479
 102.2313149  29.5790477  31.2291971 102.5427272  30.0211341  32.6432197
  90.7810162  33.4324442  39.6022852  91.7013171  33.6103041  39.7962898
  90.7459745  32.4880488  39.4502551  89.0814386  27.3056672  18.0777080
  88.1745842  27.0089785  18.1539794  89.3590367  27.0086490  17.2111366
  79.9992327  28.6263036  28.5276127  79.6795111  27.7728344  28.2350501
  79.4525755  28.8411614  29.2834094  83.7772234  31.3425477  32.2445633
  83.9958244  32.2742585  32.2633667  84.1898008  30.9833451  33.0300437
  90.6976452  21.8493562  24.2321322  89.8877180  21.5040647  24.6076568
  91.3860869  21.5401106  24.8208933  92.6267000  20.9271609  25.8545618
  93.1798039  21.3467062  26.5135641  92.8637087  20.0007357  25.8968574
  88.6500099  26.9158683  41.6348382  88.5496826  27.8653040  41.5660473
  88.4321642  26.5876921  40.7624452  87.8513171  24.1643608  18.2189059
  88.7132335  24.4898506  18.4784877  88.0363515  23.3775104  17.7062125
  79.8680587  32.2465947  30.4969248  79.1744058  31.8319900  29.9839203
  80.6153578  32.2886484  29.9002667  96.0045807  23.0372134  25.3624282
  95.4244476  23.6956938  24.9802335  95.7381740  22.2149479  24.9511700
  94.4549374  22.4377192  27.5645603  94.9549152  22.5493726  26.7559922
  95.0984982  22.1338245  28.2046411  88.5131370  30.3455821  40.4513444
  88.0298451  31.1456182  40.6577333  88.5992309  30.3563766  39.4980888
  81.7817329  32.1784201  28.3735263  81.7588017  32.2771888  27.4217146
  82.0917966  33.0249352  28.6952429  84.4404707  34.2360356  32.4881877
  85.3947961  34.2044298  32.4211809  84.2417231  33.7750980  33.3032103
  85.0304089  32.8061472  35.0552675  85.8496978  33.3005551  35.0787512
  85.3040897  31.8893440  35.0270243  94.7870685  25.1972224  24.4180631
  93.8996540  25.4821875  24.2000825  95.2024674  25.0365988  23.5707908
  98.1385222  25.2218745  28.1334970  98.9145612  25.7115198  28.4059587
  97.4133356  25.6476800  28.5906839 100.5757780  25.9346365  29.1908911
 101.1702271  25.6942101  28.4802219 100.6484364  25.2153495  29.8182447
  82.7954936  39.7779976  29.5052075  82.6609404  39.0180376  28.9390073
  82.3786998  40.5020875  29.0380864  93.9313899  34.9616899  18.5128651
  94.6349749  35.1666902  19.1286306  93.2076548  35.5293661  18.7777734
  94.7611709  30.7126760  24.6330921  94.7046911  31.1695312  23.7938553
  95.3140052  29.9517445  24.4553764  98.5716515  26.5016492  25.4581040
  98.3153449  26.1013128  26.2889248  97.9469383  27.2160286  25.3331179
 102.8828853  29.2412566  27.9652332 102.3228411  29.3105755  28.7383894
 102.2772356  29.0653550  27.2451828  85.9524062  40.6749293  29.7170518
  85.8356446  41.6194725  29.6149208  85.1316508  40.3722854  30.1056317
  95.8400596  35.3999428  20.5627111  96.6746200  34.9680627  20.3804586
  95.6784939  35.2281442  21.4904005  95.4946488  31.9031542  21.9283450
  95.4395292  31.7375813  20.9871894  94.8692544  32.6107575  22.0845640
  80.2839003  27.1399606  35.7544872  80.9297867  26.6298560  36.2432097
  80.0756155  27.8768288  36.3288297  92.8092396  34.2080454  41.2537013
  93.6783555  34.3821106  40.8923648  92.3299147  35.0274870  41.1312742
  88.8042614  21.4039651  21.5068768  88.7921284  22.3481491  21.6637039
  89.6966036  21.2209796  21.2128230  86.9778576  41.3277555  32.9326446
  87.8805823  41.3601165  33.2492941  86.7515946  40.3978005  32.9472782
  88.7332178  40.0808541  29.5936525  87.7827809  40.0810403  29.4800897
  89.0364664  39.3341276  29.0772560  92.6194733  17.9982427  25.7614705
  91.8527129  17.4440914  25.9071388  93.0305438  18.0704296  26.6228857
  84.6236494  24.2867223  39.8519886  85.4867956  23.9304028  40.0623211
  84.0501905  23.9481118  40.5395291 104.4684871  45.9169079  30.6582287
 105.1063281  45.7975827  29.9545628 104.3505714  46.8649923  30.7170240
 101.2774578  45.8696508  30.5943812 100.9393089  45.7537572  29.7064347
 102.1464346  45.4687673  30.5744818  97.1361393  47.7231984  26.5840703
  96.5726258  47.6321921  25.8156991  97.0213788  46.9031888  27.0643196
 101.7594361  47.0231359  36.5530018 101.7483001  46.6284158  35.6810521
 101.9215000  46.2897432  37.1463789  94.6825825  49.2183176  29.4224924
  95.4747117  48.8774000  29.0071223  94.9222475  49.3278151  30.3427077
 102.7160952  51.3902952  21.8955168 102.0648932  51.9757032  21.5089182
 103.5105315  51.9209147  21.9550205  96.6416579  48.4792089  22.2942302
  97.4147455  47.9321076  22.1555178  96.9941978  49.3436338  22.5056764
  98.4801622  49.8068471  35.5009202  98.1891488  50.7114102  35.3855868
  99.1158606  49.8484999  36.2153271  99.4057829  47.1845320  32.0910561
 100.0021401  46.9601342  31.3767524  99.4632800  46.4430065  32.6936009
  98.9782857  44.6384755  19.9260752  99.2308378  44.1166276  19.1644215
  98.0407416  44.4750900  20.0287436 104.0226140  43.6420533  27.7335495
 104.8089229  43.2239956  27.3825913 104.2864844  44.5466625  27.9017144
 104.1936217  49.0793384  22.4324152 103.5582050  49.1528010  23.1445057
 103.8633624  49.6686982  21.7543232 109.4234567  43.5795767  28.6368474
 110.1559739  43.0094983  28.8706303 108.6673923  43.1917367  29.0774980
  98.6979146  46.5412861  22.1285127  98.5815404  45.8657764  22.7966212
  98.8081406  46.0545235  21.3117280 101.0410687  46.0023008  25.8331816
 100.6768894  45.4753629  26.5444738 101.8977803  45.6121477  25.6598302
 106.9459987  37.2917341  33.0963083 106.6143312  38.1612752  32.8724298
 106.3505601  36.9753625  33.7757113 100.6816174  41.0312908  20.8293165
 100.8490576  41.8993144  21.1963636 100.4913343  41.1940189  19.9054454
 103.4391507  49.4929887  32.4958995 103.1392230  50.3954925  32.3874803
 103.0942566  49.2262070  33.3480148  96.8903988  45.9443683  28.5295700
  95.9654485  45.8119898  28.7373392  97.1388402  46.7237903  29.0265642
 106.8388651  42.0112427  30.1756433 105.9305528  41.9427835  29.8815194
 106.7876246  42.4884372  31.0038258 100.6605395  43.4870565  21.8139832
 100.5405020  43.9327616  22.6525312  99.9657983  43.8355883  21.2553370
  94.2512799  45.5876957  29.3639489  94.3805181  45.8411436  30.2778901
  93.5710251  46.1804665  29.0444144  98.4212287  56.2574207  25.4629963
  98.3436316  57.2082032  25.5418444  97.8173930  55.9120079  26.1204889
 100.9129516  43.4302072  38.1191330 100.1362850  43.9895993  38.1094195
 101.5520079  43.9158855  38.6406200 108.7050297  40.2128865  31.9534307
 108.0624677  40.5061398  31.3074101 108.2005226  40.0981786  32.7587503
 106.3590461  43.9592038  22.6420166 107.2708317  44.1919425  22.4667863
 105.8500108  44.5429083  22.0795244  99.1675889  46.2387526  37.6809297
  99.9090573  46.7772570  37.4044121  98.4612874  46.8653814  37.8380849
 104.6431228  48.3816666  36.2781458 105.0514584  47.9399077  35.5336091
 103.9208490  47.8069294  36.5315651 100.9962298  43.3189273  33.6515015
 101.8423494  43.7428687  33.7949664 100.9360936  42.6622897  34.3453578
 104.9660043  48.9417857  30.0333747 104.3368905  49.1063571  29.3309815
 104.5785705  49.3559466  30.8044711 108.8449275  49.8772295  27.3878111
 108.1600313  50.2571196  26.8375144 108.9293124  50.4867621  28.1210059
 104.1461744  40.9793641  35.3096189 103.9022676  41.7335702  34.7730465
 104.4221674  41.3578989  36.1443436 106.1000206  47.5232254  33.9873455
 106.3117102  48.1664014  33.3107836 106.0529955  46.6894570  33.5195385
 103.7026435  40.1350074  30.8910027 102.8410914  40.4331328  31.1826764
 103.7288870  40.3520473  29.9591059 100.5188005  48.6792265  27.2983832
 100.9826350  48.9579968  26.5088455 100.2544803  47.7775709  27.1156923
  97.4112086  48.2263746  30.2363596  97.9813443  48.6551015  29.5981080
  98.0020198  47.9446331  30.9347781  99.4556891  44.8015417  24.1073398
 100.1580934  45.2536461  24.5747324  99.1237519  44.1599236  24.7353291
  97.9037252  43.3927174  38.4824607  97.2735913  44.0743455  38.7160004
  97.7973340  43.2810256  37.5377745  93.1982225  43.0598970  29.4090531
  92.4081279  43.3156498  28.9330642  93.6893472  43.8747308  29.5142572
 107.2146034  50.4004209  32.1595812 108.0363478  49.9984396  31.8778494
 107.2108437  50.2972443  33.1111928  95.1496970  43.4243549  26.3674008
  94.3528134  43.5362243  26.8857503  94.9222562  43.7630201  25.5014898
 100.9802638  49.9488252  34.3156522 101.0447070  50.4108660  35.1514694
 100.2713562  49.3185617  34.4438832  91.4819928  43.3129460  31.8405522
  91.7327966  44.1976470  32.1063098  92.0179476  43.1334062  31.0680614
 115.3052027  46.7442958  28.5080783 114.5515736  46.1750356  28.3524788
 115.4399569  46.7105622  29.4551418 100.6950656  51.6156360  24.1835503
 100.5596330  52.4607896  24.6120351 101.2360468  51.8175638  23.4201437
  97.1817995  37.6947940  40.8449858  96.7884941  37.1414138  41.5197502
  97.9984135  38.0058518  41.2356376  94.1480053  49.1331798  24.7563428
  94.6604573  49.9275048  24.9068993  94.8002766  48.4358088  24.6897029
  95.9574938  52.2497554  26.8386181  96.1341566  53.1715519  26.6507165
  96.7531771  51.9355973  27.2680561 100.0985956  39.1105819  38.4370115
 100.8395670  39.7112972  38.3574577 100.3303879  38.3683457  37.8788157
  95.2427294  44.2962186  36.7148344  95.1280809  43.3947443  37.0155443
  94.3871812  44.5425883  36.3633161 102.3219132  52.2379926  38.3135845
 101.8782986  51.4516305  37.9956749 102.9836345  52.4259077  37.6479736
  97.0806253  53.7675728  32.8396523  97.6313678  53.6392791  32.0673517
  96.2417729  54.0670617  32.4891416 104.4200370  52.5182726  36.3417246
 104.4018845  53.3391607  35.8497515 105.3420290  52.3936802  36.5667387
 100.8773424  50.0326856  37.1840754 101.4101761  49.2715144  36.9540062
 100.3487505  49.7400508  37.9264909 104.0443119  35.1386922  32.7134396
 103.7007388  36.0288563  32.6373507 104.4122082  34.9488579  31.8503981
  92.1128970  47.4620452  25.5322998  92.9504192  47.8717461  25.3156706
  92.2907237  46.5219894  25.5023192 104.0093402  45.1295533  21.2206831
 103.4940025  45.9000138  21.4595219 103.7370710  44.4560669  21.8439893
 101.5940513  39.9745234  26.2792070 100.7382109  39.5852084  26.0997708
 102.0067465  40.0537194  25.4191855 103.1239659  37.5091577  30.6783629
 102.6204455  37.4721712  29.8651435 103.4170266  38.4184320  30.7380286
  99.3682545  37.5930307  29.6849811 100.2335542  37.3973115  29.3255701
  99.4360054  37.3640658  30.6119168 108.9827676  47.8827888  23.1560005
 108.2057119  47.5439047  22.7115167 109.6619157  47.8880511  22.4814970
 103.7979705  43.0022625  23.0466613 103.4929841  43.3168774  23.8976756
 104.7510147  43.0804045  23.0893946 102.2426137  49.1612848  24.6959566
 101.7147498  48.4265608  24.3832804 101.7413640  49.9387525  24.4499535
 107.2218983  47.3561869  29.8126613 106.5642657  48.0461130  29.9006741
 108.0259382  47.7458301  30.1560599  96.9744864  39.8232515  27.0566178
  97.5488616  39.6007696  26.3239371  97.5615847  39.8921209  27.8094779
 106.0324442  45.7106241  27.8630555 106.5456323  46.3436233  28.3652264
 106.6825666  45.1107437  27.4973915  97.3014452  41.8536976  21.0762063
  96.4651764  42.1911662  21.3971338  97.1619221  41.7185955  20.1389200
  99.2767532  36.6973763  25.7841247  98.6231945  36.3822781  25.1597862
  99.2348006  36.0749504  26.5101070 100.3878737  46.9793059  17.6994540
  99.4805799  46.7482312  17.8985689 100.8849769  46.1830678  17.8868521
 103.2946816  55.6890566  20.6191226 102.6208515  55.9922263  21.2276184
 103.6812638  56.4919646  20.2696683 102.5105273  43.1855697  30.1088895
 101.5927834  43.4070644  29.9510583 102.9265416  43.2602008  29.2500602
 103.2940320  44.5847113  25.2391575 104.0412139  45.0968510  24.9298697
 103.5631910  44.2631165  26.0995969 101.5666970  47.0805653  22.2218530
 100.6578190  46.7964686  22.3190999 101.5962054  47.5004732  21.3621836
 106.7986238  50.6912243  25.9909697 106.3448565  49.8503153  26.0474888
 106.1680205  51.3273641  26.3284477 105.7419157  41.6204229  27.2210365
 105.0041914  41.1081615  27.5520607 105.9945931  41.1804611  26.4093642
 105.2419177  52.5288740  26.9259515 105.5342151  53.0893797  26.2071881
 105.7517798  52.8217301  27.6812674 105.8430785  34.3980481  27.8152134
 106.1489662  33.5377844  27.5278049 106.5683390  34.9898101  27.6151128
  92.1355141  44.8011168  26.2033732  91.9379541  44.2080528  25.4784798
  91.5801805  44.4963378  26.9209671 100.1151864  44.6934274  28.3228325
 100.1700474  43.7408110  28.2470802  99.3043067  44.8493713  28.8069623
 101.2643058  48.6214397  19.5606608 100.8262488  47.9050256  19.1012246
 102.0053499  48.8490512  18.9991700  98.0544224  43.3111334  26.0818704
  97.2412090  43.6105504  26.4883896  98.5503219  42.9167023  26.7993186
 100.2052802  53.3069091  28.0152969 100.1628981  53.5329937  27.0861501
 101.1215501  53.0732465  28.1638770 103.6518436  43.7753158  34.9133598
 104.0067824  44.0024631  35.7728063 104.2990567  44.1071535  34.2910853
 109.3816173  46.8971594  25.6182927 109.2434072  47.0873190  24.6904116
 109.0252392  47.6590977  26.0750978  97.5458299  40.8829689  31.6979939
  98.1857679  40.7418448  31.0002902  96.7135830  40.5964203  31.3218541
 109.4085553  48.9648121  30.6294198 109.8422059  48.8723410  31.4777252
 110.1217133  48.9405622  29.9914214  98.3218603  50.1832120  27.8114931
  99.1159202  49.6882440  27.6097506  97.6110295  49.6549983  27.4482637
 103.1413448  52.5650215  32.1627299 103.1950470  53.1341152  32.9305015
 102.2728229  52.7352100  31.7981336  94.6301367  44.3275201  23.8874684
  93.6998955  44.2659657  24.1044646  94.7258839  43.8051154  23.0911325
  94.5486916  40.8530014  26.4752926  94.8093733  41.7675348  26.3662086
  95.3704088  40.3854457  26.6249538  96.0211841  42.2667771  33.6451750
  96.6934894  42.0585134  32.9964399  95.1941627  42.0689857  33.2056982
 110.2701102  49.0071822  33.1627084 110.4636992  49.9117632  33.4086359
 110.1701720  48.5479241  33.9965669 101.9237413  38.8929712  35.6617411
 101.2765328  39.5919662  35.5681887 102.6938428  39.3265856  36.0293659
 105.3316211  49.1578565  38.7367964 105.1801717  48.9289116  37.8198048
 105.3220890  50.1149166  38.7499309 102.1001547  46.7310477  33.7214231
 103.0293607  46.8821637  33.5483198 101.6792577  46.8194498  32.8662877
 100.8989879  50.7561142  31.4912768 100.7600965  50.3879926  32.3638706
 100.1104475  51.2708781  31.3196726 101.4938031  55.8570238  22.8338305
 101.6689787  55.3858281  23.6483928 100.8070819  56.4836004  23.0619566
 102.4495094  50.1342744  28.8801606 102.1144927  50.0943514  29.7759256
 101.9499040  49.4687460  28.4072016  96.4239338  45.5410374  34.4054187
  96.2859136  44.8090613  35.0065726  97.3344262  45.4519275  34.1238375
 105.3854286  47.4798779  19.1538666 104.7683457  46.7545607  19.0571718
 104.9170774  48.2408139  18.8105740  99.0521639  45.2530334  33.8937867
  99.7621257  44.6123526  33.8524485  99.0090947  45.5043229  34.8164048
 107.0408418  52.1897687  36.8144446 106.9820964  51.5056907  36.1475029
 107.4427936  52.9316677  36.3625072  97.7650573  42.2395552  35.7133506
  97.2287930  41.7886290  36.3655103  97.1767281  42.3741460  34.9703971
  96.0599116  59.0059601  29.6078165  96.2995715  59.6378125  30.2857184
  95.2168313  58.6547641  29.8943524  97.1752832  41.6984203  18.2759970
  96.2982298  41.5773004  17.9122217  97.6510585  40.9070281  18.0238859
 107.0425825  50.1537271  35.0458426 106.1552604  49.8163193  35.1684825
 107.6124376  49.4220302  35.2827191  88.6954972  46.4861363  28.3701477
  89.3826012  46.1723093  27.7822493  88.5403101  47.3902727  28.0968729
  93.4989694  41.3751559  32.7986501  93.4147883  40.7677229  32.0636911
  92.6772400  41.8660578  32.7995997 100.5726978  54.8138723  32.0119669
 100.4997150  55.6193695  32.5238974 100.1304371  55.0130689  31.1867690
 100.3616758  54.0510493  25.5222491  99.5784280  54.5932174  25.6160715
 101.0609503  54.5684473  25.9216732 103.6713408  39.8605123  28.1656696
 104.1682107  39.1075085  27.8457766 102.9000389  39.8969440  27.5999905
 111.5243165  45.5645488  29.8074987 111.5133042  46.4470204  29.4368921
 110.6560545  45.2117039  29.6129525 103.0325662  54.7125557  34.1677828
 103.7453634  55.3473022  34.0953729 102.5415690  54.8089423  33.3517830
 104.7543189  48.6176810  25.7395119 103.8199467  48.7378273  25.5699824
 104.9319857  47.7149277  25.4755129 100.2548377  42.0022506  27.8928381
  99.8846164  41.4493546  28.5809286 100.7507469  41.3980639  27.3403381
 108.1415740  44.4594129  26.2745154 108.6076192  45.2922121  26.2005456
 108.5923240  43.9939111  26.9790412  98.0837575  52.4620001  34.9883399
  98.7847035  53.0956484  35.1412793  97.6132690  52.8034732  34.2279038
 106.2091971  50.8037951  23.2731306 106.4851815  50.6894545  24.1825180
 105.3396470  50.4055436  23.2343479 106.1132403  36.8274716  30.3136055
 105.1995483  37.0578943  30.4818262 106.5425504  36.9113160  31.1650087
 105.8838861  45.0164608  32.8135949 105.2310311  45.2640516  32.1588402
 106.2619241  44.2028747  32.4798426 102.8446035  55.0524302  26.9164119
 103.0268430  54.2345957  27.3791871 103.6679021  55.2691994  26.4789009
 103.1788201  53.9792487  24.1779168 103.7075967  53.4684941  23.5649330
 103.4416420  53.6635017  25.0424701 101.9326434  45.7584419  39.3001986
 101.2567071  45.6578549  39.9704361 102.7554068  45.6023633  39.7637983
  93.6805293  51.9956356  31.9214501  94.2658730  51.2500044  32.0542405
  93.4830132  52.3060313  32.8051165  96.5343949  55.0307603  26.9376944
  95.8654324  55.5153731  26.4540984  96.3956818  55.2776824  27.8520322
  88.2722948  44.5661956  30.6418944  88.3107048  44.0325547  31.4356062
  87.7663241  44.0397162  30.0229922 100.6749217  57.0651347  33.5359602
 101.2267525  57.2282968  34.3008687 101.0155411  57.6555785  32.8639627
  95.6513710  39.4126497  34.1381487  95.7155037  40.2741328  33.7258884
  95.5880831  38.8000498  33.4053845  95.1265983  41.4849629  37.7854521
  95.7538022  41.1026707  38.3992045  94.2693902  41.2663831  38.1510213
 105.5260091  51.8912604  39.3908256 106.0699995  52.5042563  38.8963211
 104.9446936  52.4492183  39.9075269  91.9031526  43.2926058  23.7172876
  92.1984967  42.3836737  23.6639929  91.0019561  43.2713798  23.3953878
 103.8117604  55.0133322  30.5223284 103.6868744  54.2123062  30.0134230
 104.4696696  55.5079516  30.0337254  95.4325773  41.3682055  29.7000424
  94.7112358  41.9818023  29.5607898  96.2219028  41.9039820  29.6217070
 105.8752513  52.8142342  32.1502834 104.9282848  52.6947694  32.0781161
 106.2235286  51.9264841  32.2329096  98.2352086  38.7036481  35.9741076
  98.7586488  38.9498778  36.7367385  98.0164419  39.5356516  35.5544213
  93.6319367  40.9740156  23.8412201  93.3032073  40.0937535  23.6587307
  93.9858738  40.9187825  24.7288590 102.8798946  52.6095059  28.3507186
 102.7323909  51.6811766  28.5314756 103.7052440  52.6315149  27.8664262
  96.7461190  41.2613126  24.2087679  97.0857263  41.7899047  23.4866287
  97.1933311  41.5993532  24.9846245 106.4833068  53.4323617  29.4372059
 107.4079615  53.2266479  29.2996510 106.3148371  53.1840019  30.3461401
  99.4404631  39.6450176  33.6590747  99.1001452  38.8457990  34.0611426
  98.7343637  39.9451887  33.0867580 100.0921103  36.7299489  32.1118070
 100.9147172  36.2559967  31.9896960 100.3359167  37.5089973  32.6116756
  98.7329338  39.7587747  22.4080971  99.4537700  40.1369000  21.9044688
  98.1094642  40.4776624  22.5115949 102.8760460  40.4632896  23.3439304
 103.0924075  41.3457534  23.0428132 102.3954528  40.0719110  22.6144946
  97.6159682  43.4218610  29.9210048  97.4704262  43.7358913  30.8134330
  97.1384885  44.0403510  29.3680947  99.4756065  40.4121158  29.9690938
  99.4617633  39.5162251  29.6323236 100.1928493  40.4191821  30.6029224
 101.3282195  40.8458498  32.0144065 101.0699973  41.7675568  32.0128396
 100.7967236  40.4488932  32.7044529 106.2728384  53.9509285  24.7934151
 106.4465262  53.3855707  24.0408003 106.7657275  54.7510180  24.6113641
  92.0905344  45.9623954  32.8597709  91.5458812  46.7383762  32.9917984
  92.9684694  46.3094758  32.7016831  98.8792961  39.2935538  25.2378508
  99.0008872  38.3652184  25.4369395  98.5895003  39.3074224  24.3256823
 101.7484151  36.9790448  28.3745228 101.7705848  37.0429781  27.4197207
 102.1652210  36.1394957  28.5685734 112.1267775  46.7145708  26.4124450
 112.5698921  45.9653033  26.0143574 111.2494286  46.7055844  26.0298182
 107.2603557  53.2676049  21.8931049 107.9554461  53.8882742  22.1118364
 107.6026707  52.4171400  22.1683427  92.8771366  45.0893850  35.7527866
  92.1353102  45.2376486  36.3392497  92.5564110  45.3502116  34.8894616
 109.1594980  50.7175755  23.4218380 109.6846304  51.0563028  22.6967700
 109.0717332  49.7822770  23.2381514 100.8215028  54.6309828  35.5508256
 101.1302155  54.3858975  36.4230956 101.6190510  54.8356467  35.0627127
 100.8435640  56.7847738  27.7813633 100.4040631  56.2924117  28.4746490
 101.5943757  56.2420706  27.5405708  93.3227979  52.9759279  27.7838261
  94.1485999  52.6763051  27.4036904  92.9722031  52.2066901  28.2328050
  98.2909513  52.3285747  29.8535935  97.6689522  51.6656452  29.5538162
  98.9614380  52.3546879  29.1709582  91.5236585  50.8945605  28.7427195
  90.6868493  50.4667780  28.5611196  91.4960230  51.0878049  29.6797986
  98.3634040  40.8067535  39.4468441  98.4122196  41.6829658  39.0646210
  98.9056554  40.2644928  38.8740084 108.8488886  51.3508658  38.7269578
 108.0584430  51.3332797  38.1874077 108.6122240  51.8896952  39.4818614
 108.9686761  48.2001125  36.0402306 109.0184766  48.0351132  36.9817829
 108.8600684  47.3328384  35.6500187  97.8523020  50.8789671  23.3294395
  98.0011140  51.5625135  22.6761068  98.6589463  50.8594761  23.8443851
 106.2590523  44.1832053  37.3561613 107.1600386  44.0438518  37.0645611
 106.3338498  44.3486508  38.2959790 100.5933329  41.5598908  36.2014799
  99.7236638  41.8532474  35.9297388 100.8292809  42.1439353  36.9222063
 110.4704958  50.6198066  36.2844328 110.1789766  50.9828047  37.1207789
 109.8577089  49.9065075  36.1057660 111.6700640  48.1850946  28.8046898
 112.5047531  48.6240750  28.9684458 111.8059769  47.7089599  27.9855144
 108.7192146  45.7430681  34.7524386 109.1946268  45.9358327  33.9443237
 107.7957711  45.7989867  34.5067769  95.6075653  46.9054848  24.3355464
  95.3621694  46.0017178  24.5335674  95.7771567  46.9071999  23.3934942
 103.2972362  37.7778525  33.7180220 103.8154306  38.5139551  33.3926708
 102.9427495  38.0842518  34.5526979  94.8771300  42.6383206  21.8341625
  94.1840545  42.7127561  21.1781661  94.6323052  41.8743549  22.3563142
 103.5484957  34.1978807  29.2381116 103.8286710  33.5301996  29.8641543
 104.3335564  34.3907903  28.7255780 101.3518425  53.3737801  20.8006142
 100.7792392  53.9927988  20.3476614 101.9251219  53.9237163  21.3346064
 107.4193815  42.6196441  32.9852691 108.3711238  42.7194539  33.0064915
 107.2497265  41.8274710  33.4950776 105.4408194  39.7052024  33.1712092
 104.8458127  39.9857037  32.4758581 105.1557891  40.1945925  33.9428833
 104.5715685  53.6574951  21.9314725 105.5046358  53.5920513  22.1347600
 104.4838898  54.4931218  21.4729257 107.2003702  52.9740821  18.8918672
 107.1217333  52.6400685  19.7854430 108.0213368  53.4662589  18.8910145
 109.8981893  45.8402561  32.0994991 109.8658213  44.9018561  32.2854675
 110.5082516  45.9186597  31.3660816 101.7365224  44.7098614  18.1422195
 102.6824328  44.5804822  18.2110613 101.3579469  43.9713276  18.6191623
 110.0476381  42.6313604  32.1453274 109.5315430  41.8472061  31.9583203
 110.9316330  42.3032321  32.3099794 107.7087108  36.3754620  28.1049087
 107.5111929  36.0669708  28.9892419 108.3186814  37.1016259  28.2347017
 115.7158443  46.9018568  31.2401028 116.4461831  46.6403856  31.8008731
 115.1065388  46.1647290  31.2803096 113.7973740  45.0426430  31.8375479
 113.0706903  44.9082395  31.2291971 113.3821027  45.3503259  32.6432197
 101.6203916  48.7616360  39.6022852 102.5406926  48.9394959  39.7962898
 101.5853499  47.8172405  39.4502551  99.9208141  42.6348590  18.0777080
  99.0139596  42.3381703  18.1539794 100.1984122  42.3378408  17.2111366
  90.8386081  43.9554954  28.5276127  90.5188865  43.1020262  28.2350501
  90.2919509  44.1703532  29.2834094  94.6165989  46.6717395  32.2445633
  94.8351998  47.6034502  32.2633667  95.0291762  46.3125369  33.0300437
 101.5370206  37.1785480  24.2321322 100.7270935  36.8332565  24.6076568
 102.2254623  36.8693024  24.8208933 103.4660755  36.2563527  25.8545618
 104.0191793  36.6758980  26.5135641 103.7030841  35.3299275  25.8968574
  99.4893854  42.2450600  41.6348382  99.3890581  43.1944957  41.5660473
  99.2715396  41.9168839  40.7624452  98.6906925  39.4935525  18.2189059
  99.5526089  39.8190424  18.4784877  98.8757270  38.7067021  17.7062125
  90.7074341  47.5757865  30.4969248  90.0137813  47.1611818  29.9839203
  91.4547332  47.6178402  29.9002667 106.8439562  38.3664052  25.3624282
 106.2638231  39.0248856  24.9802335 106.5775495  37.5441396  24.9511700
 105.2943128  37.7669109  27.5645603 105.7942907  37.8785644  26.7559922
 105.9378736  37.4630162  28.2046411  99.3525124  45.6747739  40.4513444
  98.8692206  46.4748099  40.6577333  99.4386063  45.6855684  39.4980888
  92.6211084  47.5076119  28.3735263  92.5981772  47.6063806  27.4217146
  92.9311720  48.3541270  28.6952429  95.2798462  49.5652274  32.4881877
  96.2341715  49.5336216  32.4211809  95.0810985  49.1042898  33.3032103
  95.8697844  48.1353390  35.0552675  96.6890733  48.6297469  35.0787512
  96.1434651  47.2185358  35.0270243 105.6264440  40.5264142  24.4180631
 104.7390295  40.8113793  24.2000825 106.0418429  40.3657906  23.5707908
 108.9778976  40.5510663  28.1334970 109.7539366  41.0407116  28.4059587
 108.2527110  40.9768717  28.5906839 111.4151535  41.2638282  29.1908911
 112.0096025  41.0234018  28.4802219 111.4878118  40.5445413  29.8182447
  93.6348690  55.1071893  29.5052075  93.5003158  54.3472294  28.9390073
  93.2180753  55.8312793  29.0380864 104.7707653  50.2908817  18.5128651
 105.4743503  50.4958819  19.1286306 104.0470302  50.8585579  18.7777734
 105.6005464  46.0418678  24.6330921 105.5440665  46.4987230  23.7938553
 106.1533806  45.2809363  24.4553764 109.4110270  41.8308410  25.4581040
 109.1547204  41.4305046  26.2889248 108.7863138  42.5452204  25.3331179
 113.7222607  44.5704483  27.9652332 113.1622165  44.6397673  28.7383894
 113.1166111  44.3945468  27.2451828  96.7917816  56.0041210  29.7170518
  96.6750200  56.9486643  29.6149208  95.9710262  55.7014772  30.1056317
 106.6794351  50.7291346  20.5627111 107.5139955  50.2972545  20.3804586
 106.5178694  50.5573360  21.4904005 106.3340243  47.2323459  21.9283450
 106.2789047  47.0667731  20.9871894 105.7086298  47.9399492  22.0845640
  91.1232758  42.4691524  35.7544872  91.7691621  41.9590478  36.2432097
  90.9149909  43.2060205  36.3288297 103.6486150  49.5372371  41.2537013
 104.5177310  49.7113023  40.8923648 103.1692902  50.3566788  41.1312742
  99.6436368  36.7331568  21.5068768  99.6315038  37.6773408  21.6637039
 100.5359790  36.5501714  21.2128230  97.8172330  56.6569472  32.9326446
  98.7199577  56.6893082  33.2492941  97.5909700  55.7269923  32.9472782
  99.5725932  55.4100459  29.5936525  98.6221563  55.4102320  29.4800897
  99.8758418  54.6633193  29.0772560 103.4588488  33.3274345  25.7614705
 102.6920884  32.7732832  25.9071388 103.8699193  33.3996214  26.6228857
  95.4630249  39.6159141  39.8519886  96.3261710  39.2595946  40.0623211
  94.8895660  39.2773036  40.5395291 115.3078626  61.2460997  30.6582287
 115.9457036  61.1267744  29.9545628 115.1899469  62.1941841  30.7170240
 112.1168332  61.1988425  30.5943812 111.7786844  61.0829490  29.7064347
 112.9858100  60.7979590  30.5744818 107.9755148  63.0523902  26.5840703
 107.4120013  62.9613839  25.8156991 107.8607543  62.2323806  27.0643196
 112.5988115  62.3523277  36.5530018 112.5876756  61.9576075  35.6810521
 112.7608755  61.6189350  37.1463789 105.5219580  64.5475093  29.4224924
 106.3140872  64.2065918  29.0071223 105.7616230  64.6570068  30.3427077
 113.5554707  66.7194869  21.8955168 112.9042686  67.3048950  21.5089182
 114.3499069  67.2501064  21.9550205 107.4810334  63.8084007  22.2942302
 108.2541210  63.2612994  22.1555178 107.8335733  64.6728256  22.5056764
 109.3195376  65.1360389  35.5009202 109.0285242  66.0406020  35.3855868
 109.9552361  65.1776916  36.2153271 110.2451583  62.5137237  32.0910561
 110.8415155  62.2893260  31.3767524 110.3026555  61.7721983  32.6936009
 109.8176611  59.9676673  19.9260752 110.0702132  59.4458194  19.1644215
 108.8801171  59.8042818  20.0287436 114.8619894  58.9712451  27.7335495
 115.6482984  58.5531874  27.3825913 115.1258599  59.8758543  27.9017144
 115.0329972  64.4085301  22.4324152 114.3975805  64.4819928  23.1445057
 114.7027378  64.9978900  21.7543232 120.2628321  58.9087684  28.6368474
 120.9953493  58.3386901  28.8706303 119.5067677  58.5209285  29.0774980
 109.5372900  61.8704779  22.1285127 109.4209158  61.1949682  22.7966212
 109.6475160  61.3837153  21.3117280 111.8804441  61.3314926  25.8331816
 111.5162648  60.8045547  26.5444738 112.7371557  60.9413395  25.6598302
 117.7853742  52.6209258  33.0963083 117.4537067  53.4904669  32.8724298
 117.1899355  52.3045542  33.7757113 111.5209928  56.3604825  20.8293165
 111.6884330  57.2285062  21.1963636 111.3307097  56.5232107  19.9054454
 114.2785261  64.8221804  32.4958995 113.9785984  65.7246843  32.3874803
 113.9336321  64.5553987  33.3480148 107.7297743  61.2735601  28.5295700
 106.8048239  61.1411815  28.7373392 107.9782156  62.0529820  29.0265642
 117.6782405  57.3404344  30.1756433 116.7699282  57.2719753  29.8815194
 117.6270001  57.8176289  31.0038258 111.4999149  58.8162483  21.8139832
 111.3798774  59.2619534  22.6525312 110.8051737  59.1647801  21.2553370
 105.0906554  60.9168875  29.3639489 105.2198935  61.1703354  30.2778901
 104.4104005  61.5096583  29.0444144 109.2606041  71.5866125  25.4629963
 109.1830071  72.5373950  25.5418444 108.6567685  71.2411997  26.1204889
 111.7523271  58.7593990  38.1191330 110.9756605  59.3187910  38.1094195
 112.3913834  59.2450773  38.6406200 119.5444052  55.5420783  31.9534307
 118.9018432  55.8353316  31.3074101 119.0398980  55.4273703  32.7587503
 117.1984215  59.2883956  22.6420166 118.1102071  59.5211343  22.4667863
 116.6893862  59.8721000  22.0795244 110.0069643  61.5679443  37.6809297
 110.7484328  62.1064487  37.4044121 109.3006629  62.1945732  37.8380849
 115.4824983  63.7108584  36.2781458 115.8908339  63.2690994  35.5336091
 114.7602244  63.1361211  36.5315651 111.8356053  58.6481191  33.6515015
 112.6817248  59.0720604  33.7949664 111.7754691  57.9914815  34.3453578
 115.8053797  64.2709775  30.0333747 115.1762660  64.4355489  29.3309815
 115.4179460  64.6851384  30.8044711 119.6843029  65.2064212  27.3878111
 118.9994068  65.5863114  26.8375144 119.7686879  65.8159539  28.1210059
 114.9855498  56.3085559  35.3096189 114.7416430  57.0627620  34.7730465
 115.2615429  56.6870907  36.1443436 116.9393961  62.8524171  33.9873455
 117.1510856  63.4955931  33.3107836 116.8923709  62.0186488  33.5195385
 114.5420190  55.4641992  30.8910027 113.6804669  55.7623246  31.1826764
 114.5682625  55.6812391  29.9591059 111.3581759  64.0084183  27.2983832
 111.8220105  64.2871886  26.5088455 111.0938557  63.1067627  27.1156923
 108.2505840  63.5555664  30.2363596 108.8207197  63.9842933  29.5981080
 108.8413952  63.2738249  30.9347781 110.2950645  60.1307335  24.1073398
 110.9974689  60.5828379  24.5747324 109.9631274  59.4891154  24.7353291
 108.7431007  58.7219092  38.4824607 108.1129668  59.4035372  38.7160004
 108.6367095  58.6102173  37.5377745 104.0375979  58.3890888  29.4090531
 103.2475033  58.6448416  28.9330642 104.5287227  59.2039225  29.5142572
 118.0539789  65.7296127  32.1595812 118.8757233  65.3276314  31.8778494
 118.0502192  65.6264361  33.1111928 105.9890725  58.7535467  26.3674008
 105.1921888  58.8654161  26.8857503 105.7616317  59.0922119  25.5014898
 111.8196392  65.2780170  34.3156522 111.8840825  65.7400577  35.1514694
 111.1107316  64.6477535  34.4438832 102.3213682  58.6421378  31.8405522
 102.5721721  59.5268388  32.1063098 102.8573231  58.4625980  31.0680614
 126.1445782  62.0734875  28.5080783 125.3909490  61.5042273  28.3524788
 126.2793323  62.0397540  29.4551418 111.5344410  66.9448278  24.1835503
 111.3990085  67.7899813  24.6120351 112.0754223  67.1467555  23.4201437
 108.0211750  53.0239857  40.8449858 107.6278695  52.4706056  41.5197502
 108.8377890  53.3350436  41.2356376 104.9873807  64.4623716  24.7563428
 105.4998328  65.2566966  24.9068993 105.6396520  63.7650006  24.6897029
 106.7968692  67.5789472  26.8386181 106.9735320  68.5007437  26.6507165
 107.5925526  67.2647891  27.2680561 110.9379711  54.4397737  38.4370115
 111.6789424  55.0404890  38.3574577 111.1697633  53.6975374  37.8788157
 106.0821049  59.6254104  36.7148344 105.9674564  58.7239361  37.0155443
 105.2265566  59.8717801  36.3633161 113.1612886  67.5671844  38.3135845
 112.7176741  66.7808223  37.9956749 113.8230100  67.7550995  37.6479736
 107.9200008  69.0967646  32.8396523 108.4707433  68.9684709  32.0673517
 107.0811483  69.3962535  32.4891416 115.2594124  67.8474644  36.3417246
 115.2412600  68.6683525  35.8497515 116.1814045  67.7228719  36.5667387
 111.7167179  65.3618774  37.1840754 112.2495515  64.6007062  36.9540062
 111.1881260  65.0692425  37.9264909 114.8836874  50.4678839  32.7134396
 114.5401143  51.3580481  32.6373507 115.2515836  50.2780497  31.8503981
 102.9522724  62.7912370  25.5322998 103.7897946  63.2009378  25.3156706
 103.1300992  61.8511812  25.5023192 114.8487156  60.4587451  21.2206831
 114.3333780  61.2292055  21.4595219 114.5764465  59.7852587  21.8439893
 112.4334267  55.3037151  26.2792070 111.5775864  54.9144002  26.0997708
 112.8461219  55.3829112  25.4191855 113.9633414  52.8383495  30.6783629
 113.4598210  52.8013630  29.8651435 114.2564021  53.7476237  30.7380286
 110.2076300  52.9222224  29.6849811 111.0729297  52.7265033  29.3255701
 110.2753809  52.6932576  30.6119168 119.8221430  63.2119805  23.1560005
 119.0450873  62.8730965  22.7115167 120.5012911  63.2172428  22.4814970
 114.6373459  58.3314543  23.0466613 114.3323595  58.6460692  23.8976756
 115.5903902  58.4095963  23.0893946 113.0819891  64.4904766  24.6959566
 112.5541253  63.7557526  24.3832804 112.5807394  65.2679442  24.4499535
 118.0612737  62.6853786  29.8126613 117.4036412  63.3753048  29.9006741
 118.8653137  63.0750218  30.1560599 107.8138619  55.1524432  27.0566178
 108.3882371  54.9299614  26.3239371 108.4009601  55.2213127  27.8094779
 116.8718196  61.0398159  27.8630555 117.3850078  61.6728151  28.3652264
 117.5219420  60.4399355  27.4973915 108.1408206  57.1828893  21.0762063
 107.3045518  57.5203580  21.3971338 108.0012976  57.0477873  20.1389200
 110.1161287  52.0265681  25.7841247 109.4625699  51.7114698  25.1597862
 110.0741761  51.4041422  26.5101070 111.2272492  62.3084976  17.6994540
 110.3199553  62.0774230  17.8985689 111.7243523  61.5122596  17.8868521
 114.1340570  71.0182483  20.6191226 113.4602269  71.3214180  21.2276184
 114.5206392  71.8211564  20.2696683 113.3499027  58.5147615  30.1088895
 112.4321588  58.7362562  29.9510583 113.7659171  58.5893925  29.2500602
 114.1334075  59.9139030  25.2391575 114.8805894  60.4260428  24.9298697
 114.4025664  59.5923083  26.0995969 112.4060725  62.4097571  22.2218530
 111.4971944  62.1256604  22.3190999 112.4355809  62.8296650  21.3621836
 117.6379992  66.0204161  25.9909697 117.1842319  65.1795071  26.0474888
 117.0073959  66.6565559  26.3284477 116.5812912  56.9496147  27.2210365
 115.8435669  56.4373533  27.5520607 116.8339685  56.5096528  26.4093642
 116.0812932  67.8580657  26.9259515 116.3735906  68.4185714  26.2071881
 116.5911552  68.1509218  27.6812674 116.6824539  49.7272399  27.8152134
 116.9883416  48.8669762  27.5278049 117.4077144  50.3190019  27.6151128
 102.9748895  60.1303085  26.2033732 102.7773295  59.5372446  25.4784798
 102.4195559  59.8255295  26.9209671 110.9545619  60.0226192  28.3228325
 111.0094229  59.0700028  28.2470802 110.1436821  60.1785631  28.8069623
 112.1036813  63.9506315  19.5606608 111.6656243  63.2342174  19.1012246
 112.8447254  64.1782430  18.9991700 108.8937979  58.6403251  26.0818704
 108.0805844  58.9397422  26.4883896 109.3896973  58.2458940  26.7993186
 111.0446557  68.6361008  28.0152969 111.0022736  68.8621855  27.0861501
 111.9609256  68.4024383  28.1638770 114.4912191  59.1045076  34.9133598
 114.8461578  59.3316549  35.7728063 115.1384322  59.4363453  34.2910853
 120.2209928  62.2263512  25.6182927 120.0827826  62.4165108  24.6904116
 119.8646146  62.9882895  26.0750978 108.3852054  56.2121607  31.6979939
 109.0251433  56.0710366  31.0002902 107.5529584  55.9256120  31.3218541
 120.2479307  64.2940039  30.6294198 120.6815814  64.2015328  31.4777252
 120.9610888  64.2697539  29.9914214 109.1612358  65.5124037  27.8114931
 109.9552956  65.0174358  27.6097506 108.4504050  64.9841901  27.4482637
 113.9807202  67.8942133  32.1627299 114.0344224  68.4633069  32.9305015
 113.1121983  68.0644018  31.7981336 105.4695121  59.6567119  23.8874684
 104.5392709  59.5951575  24.1044646 105.5652593  59.1343072  23.0911325
 105.3880670  56.1821932  26.4752926 105.6487487  57.0967265  26.3662086
 106.2097842  55.7146375  26.6249538 106.8605595  57.5959689  33.6451750
 107.5328649  57.3877051  32.9964399 106.0335382  57.3981775  33.2056982
 121.1094857  64.3363739  33.1627084 121.3030747  65.2409550  33.4086359
 121.0095475  63.8771159  33.9965669 112.7631167  54.2221630  35.6617411
 112.1159082  54.9211580  35.5681887 113.5332183  54.6557774  36.0293659
 116.1709965  64.4870482  38.7367964 116.0195472  64.2581034  37.8198048
 116.1614645  65.4441084  38.7499309 112.9395302  62.0602395  33.7214231
 113.8687362  62.2113555  33.5483198 112.5186332  62.1486416  32.8662877
 111.7383634  66.0853059  31.4912768 111.5994719  65.7171844  32.3638706
 110.9498230  66.6000699  31.3196726 112.3331786  71.1862156  22.8338305
 112.5083541  70.7150199  23.6483928 111.6464574  71.8127922  23.0619566
 113.2888849  65.4634662  28.8801606 112.9538681  65.4235432  29.7759256
 112.7892794  64.7979378  28.4072016 107.2633093  60.8702292  34.4054187
 107.1252891  60.1382531  35.0065726 108.1738016  60.7811192  34.1238375
 116.2248040  62.8090696  19.1538666 115.6077211  62.0837525  19.0571718
 115.7564529  63.5700057  18.8105740 109.8915393  60.5822251  33.8937867
 110.6015012  59.9415444  33.8524485 109.8484702  60.8335146  34.8164048
 117.8802172  67.5189605  36.8144446 117.8214718  66.8348825  36.1475029
 118.2821690  68.2608595  36.3625072 108.6044327  57.5687469  35.7133506
 108.0681684  57.1178208  36.3655103 108.0161036  57.7033378  34.9703971
 106.8992871  74.3351519  29.6078165 107.1389469  74.9670043  30.2857184
 106.0562067  73.9839559  29.8943524 108.0146586  57.0276121  18.2759970
 107.1376053  56.9064922  17.9122217 108.4904339  56.2362199  18.0238859
 117.8819579  65.4829189  35.0458426 116.9946358  65.1455111  35.1684825
 118.4518130  64.7512220  35.2827191  99.5348726  61.8153280  28.3701477
 100.2219766  61.5015011  27.7822493  99.3796855  62.7194645  28.0968729
 104.3383449  56.7043477  32.7986501 104.2541637  56.0969147  32.0636911
 103.5166155  57.1952495  32.7995997 111.4120733  70.1430641  32.0119669
 111.3390904  70.9485613  32.5238974 110.9698126  70.3422607  31.1867690
 111.2010512  69.3802411  25.5222491 110.4178034  69.9224091  25.6160715
 111.9003257  69.8976391  25.9216732 114.5107162  55.1897041  28.1656696
 115.0075862  54.4367003  27.8457766 113.7394144  55.2261357  27.5999905
 122.3636920  60.8937406  29.8074987 122.3526796  61.7762122  29.4368921
 121.4954299  60.5408957  29.6129525 113.8719416  70.0417475  34.1677828
 114.5847388  70.6764940  34.0953729 113.3809445  70.1381341  33.3517830
 115.5936943  63.9468728  25.7395119 114.6593222  64.0670190  25.5699824
 115.7713612  63.0441195  25.4755129 111.0942131  57.3314424  27.8928381
 110.7239919  56.7785464  28.5809286 111.5901224  56.7272557  27.3403381
 118.9809494  59.7886047  26.2745154 119.4469947  60.6214039  26.2005456
 119.4316995  59.3231029  26.9790412 108.9231330  67.7911919  34.9883399
 109.6240789  68.4248402  35.1412793 108.4526445  68.1326650  34.2279038
 117.0485726  66.1329868  23.2731306 117.3245569  66.0186463  24.1825180
 116.1790224  65.7347353  23.2343479 116.9526157  52.1566634  30.3136055
 116.0389237  52.3870861  30.4818262 117.3819259  52.2405078  31.1650087
 116.7232616  60.3456526  32.8135949 116.0704066  60.5932433  32.1588402
 117.1012996  59.5320664  32.4798426 113.6839790  70.3816219  26.9164119
 113.8662184  69.5637875  27.3791871 114.5072776  70.5983911  26.4789009
 114.0181955  69.3084404  24.1779168 114.5469722  68.7976859  23.5649330
 114.2810175  68.9926935  25.0424701 112.7720189  61.0876337  39.3001986
 112.0960826  60.9870466  39.9704361 113.5947823  60.9315551  39.7637983
 104.5199048  67.3248274  31.9214501 105.1052485  66.5791962  32.0542405
 104.3223886  67.6352230  32.8051165 107.3737703  70.3599521  26.9376944
 106.7048078  70.8445649  26.4540984 107.2350573  70.6068741  27.8520322
  99.1116703  59.8953874  30.6418944  99.1500802  59.3617465  31.4356062
  98.6056995  59.3689079  30.0229922 111.5142972  72.3943265  33.5359602
 112.0661280  72.5574886  34.3008687 111.8549165  72.9847702  32.8639627
 106.4907465  54.7418414  34.1381487 106.5548791  55.6033245  33.7258884
 106.4274585  54.1292416  33.4053845 105.9659737  56.8141547  37.7854521
 106.5931776  56.4318624  38.3992045 105.1087656  56.5955749  38.1510213
 116.3653846  67.2204522  39.3908256 116.9093750  67.8334480  38.8963211
 115.7840691  67.7784100  39.9075269 102.7425280  58.6217976  23.7172876
 103.0378721  57.7128654  23.6639929 101.8413316  58.6005715  23.3953878
 114.6511359  70.3425240  30.5223284 114.5262498  69.5414980  30.0134230
 115.3090450  70.8371433  30.0337254 106.2719527  56.6973973  29.7000424
 105.5506113  57.3109940  29.5607898 107.0612783  57.2331737  29.6217070
 116.7146267  68.1434260  32.1502834 115.7676603  68.0239611  32.0781161
 117.0629040  67.2556758  32.2329096 109.0745841  54.0328399  35.9741076
 109.5980242  54.2790696  36.7367385 108.8558174  54.8648434  35.5544213
 104.4713122  56.3032074  23.8412201 104.1425828  55.4229453  23.6587307
 104.8252492  56.2479742  24.7288590 113.7192701  67.9386976  28.3507186
 113.5717663  67.0103684  28.5314756 114.5446194  67.9607067  27.8664262
 107.5854945  56.5905043  24.2087679 107.9251017  57.1190965  23.4866287
 108.0327065  56.9285450  24.9846245 117.3226822  68.7615535  29.4372059
 118.2473370  68.5558396  29.2996510 117.1542126  68.5131936  30.3461401
 110.2798386  54.9742094  33.6590747 109.9395206  54.1749907  34.0611426
 109.5737392  55.2743805  33.0867580 110.9314858  52.0591407  32.1118070
 111.7540927  51.5851885  31.9896960 111.1752921  52.8381890  32.6116756
 109.5723092  55.0879665  22.4080971 110.2931454  55.4660918  21.9044688
 108.9488396  55.8068542  22.5115949 113.7154215  55.7924814  23.3439304
 113.9317829  56.6749452  23.0428132 113.2348282  55.4011027  22.6144946
 108.4553436  58.7510527  29.9210048 108.3098017  59.0650830  30.8134330
 107.9778640  59.3695428  29.3680947 110.3149819  55.7413075  29.9690938
 110.3011388  54.8454169  29.6323236 111.0322247  55.7483739  30.6029224
 112.1675950  56.1750415  32.0144065 111.9093728  57.0967486  32.0128396
 111.6360990  55.7780850  32.7044529 117.1122139  69.2801203  24.7934151
 117.2859016  68.7147625  24.0408003 117.6051030  70.0802097  24.6113641
 102.9299098  61.2915872  32.8597709 102.3852567  62.0675680  32.9917984
 103.8078448  61.6386676  32.7016831 109.7186715  54.6227455  25.2378508
 109.8402626  53.6944102  25.4369395 109.4288757  54.6366141  24.3256823
 112.5877905  52.3082366  28.3745228 112.6099602  52.3721699  27.4197207
 113.0045964  51.4686875  28.5685734 122.9661530  62.0437625  26.4124450
 123.4092676  61.2944951  26.0143574 122.0888040  62.0347762  26.0298182
 118.0997311  68.5967967  21.8931049 118.7948216  69.2174660  22.1118364
 118.4420461  67.7463318  22.1683427 103.7165120  60.4185768  35.7527866
 102.9746856  60.5668403  36.3392497 103.3957865  60.6794034  34.8894616
 119.9988734  66.0467672  23.4218380 120.5240058  66.3854945  22.6967700
 119.9111087  65.1114688  23.2381514 111.6608783  69.9601746  35.5508256
 111.9695909  69.7150893  36.4230956 112.4584265  70.1648385  35.0627127
 111.6829395  72.1139656  27.7813633 111.2434385  71.6216034  28.4746490
 112.4337512  71.5712623  27.5405708 104.1621734  68.3051197  27.7838261
 104.9879754  68.0054968  27.4036904 103.8115786  67.5358819  28.2328050
 109.1303267  67.6577665  29.8535935 108.5083276  66.9948370  29.5538162
 109.8008134  67.6838797  29.1709582 102.3630339  66.2237523  28.7427195
 101.5262247  65.7959697  28.5611196 102.3353984  66.4169966  29.6797986
 109.2027795  56.1359453  39.4468441 109.2515950  57.0121576  39.0646210
 109.7450309  55.5936846  38.8740084 119.6882640  66.6800576  38.7269578
 118.8978184  66.6624715  38.1874077 119.4515995  67.2188870  39.4818614
 119.8080515  63.5293042  36.0402306 119.8578520  63.3643050  36.9817829
 119.6994439  62.6620302  35.6500187 108.6916774  66.2081588  23.3294395
 108.8404894  66.8917053  22.6761068 109.4983217  66.1886678  23.8443851
 117.0984278  59.5123971  37.3561613 117.9994140  59.3730435  37.0645611
 117.1732252  59.6778425  38.2959790 111.4327083  56.8890825  36.2014799
 110.5630392  57.1824391  35.9297388 111.6686563  57.4731270  36.9222063
 121.3098712  65.9489984  36.2844328 121.0183520  66.3119965  37.1207789
 120.6970843  65.2356992  36.1057660 122.5094394  63.5142864  28.8046898
 123.3441286  63.9532668  28.9684458 122.6453523  63.0381517  27.9855144
 119.5585900  61.0722599  34.7524386 120.0340022  61.2650245  33.9443237
 118.6351466  61.1281784  34.5067769 106.4469407  62.2346766  24.3355464
 106.2015449  61.3309096  24.5335674 106.6165322  62.2363916  23.3934942
 114.1366117  53.1070442  33.7180220 114.6548061  53.8431469  33.3926708
 113.7821250  53.4134435  34.5526979 105.7165055  57.9675123  21.8341625
 105.0234299  58.0419478  21.1781661 105.4716806  57.2035467  22.3563142
 114.3878711  49.5270725  29.2381116 114.6680465  48.8593914  29.8641543
 115.1729318  49.7199820  28.7255780 112.1912180  68.7029719  20.8006142
 111.6186147  69.3219906  20.3476614 112.7644973  69.2529080  21.3346064
 118.2587569  57.9488359  32.9852691 119.2104992  58.0486456  33.0064915
 118.0891020  57.1566627  33.4950776 116.2801949  55.0343942  33.1712092
 115.6851881  55.3148955  32.4758581 115.9951646  55.5237843  33.9428833
 115.4109439  68.9866869  21.9314725 116.3440113  68.9212430  22.1347600
 115.3232652  69.8223136  21.4729257 118.0397456  68.3032739  18.8918672
 117.9611088  67.9692603  19.7854430 118.8607123  68.7954507  18.8910145
 120.7375647  61.1694478  32.0994991 120.7051967  60.2310479  32.2854675
 121.3476271  61.2478515  31.3660816 112.5758978  60.0390531  18.1422195
 113.5218083  59.9096739  18.2110613 112.1973223  59.3005193  18.6191623
 120.8870136  57.9605522  32.1453274 120.3709184  57.1763978  31.9583203
 121.7710084  57.6324238  32.3099794 118.5480863  51.7046537  28.1049087
 118.3505684  51.3961626  28.9892419 119.1580568  52.4308176  28.2347017
 126.5552197  62.2310485  31.2401028 127.2855586  61.9695773  31.8008731
 125.9459143  61.4939207  31.2803096 124.6367494  60.3718348  31.8375479
 123.9100658  60.2374313  31.2291971 124.2214781  60.6795176  32.6432197
 112.4597671  64.0908278  39.6022852 113.3800680  64.2686877  39.7962898
 112.4247254  63.1464323  39.4502551 110.7601895  57.9640508  18.0777080
 109.8533351  57.6673620  18.1539794 111.0377876  57.6670326  17.2111366
 101.6779836  59.2846871  28.5276127 101.3582620  58.4312179  28.2350501
 101.1313264  59.4995449  29.2834094 105.4559743  62.0009312  32.2445633
 105.6745753  62.9326420  32.2633667 105.8685517  61.6417287  33.0300437
 112.3763961  52.5077397  24.2321322 111.5664689  52.1624482  24.6076568
 113.0648378  52.1984941  24.8208933 114.3054509  51.5855444  25.8545618
 114.8585548  52.0050898  26.5135641 114.5424596  50.6591192  25.8968574
 110.3287608  57.5742518  41.6348382 110.2284335  58.5236875  41.5660473
 110.1109151  57.2460757  40.7624452 109.5300680  54.8227443  18.2189059
 110.3919844  55.1482341  18.4784877 109.7151024  54.0358939  17.7062125
 101.5468096  62.9049783  30.4969248 100.8531567  62.4903735  29.9839203
 102.2941087  62.9470319  29.9002667 117.6833316  53.6955969  25.3624282
 117.1031985  54.3540773  24.9802335 117.4169249  52.8733314  24.9511700
 116.1336883  53.0961027  27.5645603 116.6336661  53.2077562  26.7559922
 116.7772491  52.7922080  28.2046411 110.1918879  61.0039657  40.4513444
 109.7085960  61.8040017  40.6577333 110.2779818  61.0147602  39.4980888
 103.4604838  62.8368036  28.3735263 103.4375526  62.9355724  27.4217146
 103.7705475  63.6833187  28.6952429 106.1192216  64.8944191  32.4881877
 107.0735470  64.8628134  32.4211809 105.9204740  64.4334815  33.3032103
 106.7091598  63.4645308  35.0552675 107.5284487  63.9589386  35.0787512
 106.9828406  62.5477276  35.0270243 116.4658194  55.8556060  24.4180631
 115.5784049  56.1405710  24.2000825 116.8812183  55.6949823  23.5707908
 119.8172730  55.8802581  28.1334970 120.5933121  56.3699033  28.4059587
 119.0920865  56.3060635  28.5906839 122.2545289  56.5930200  29.1908911
 122.8489780  56.3525936  28.4802219 122.3271873  55.8737331  29.8182447
 104.4742445  70.4363811  29.5052075 104.3396913  69.6764212  28.9390073
 104.0574507  71.1604711  29.0380864 115.6101408  65.6200734  18.5128651
 116.3137258  65.8250737  19.1286306 114.8864057  66.1877496  18.7777734
 116.4399218  61.3710596  24.6330921 116.3834419  61.8279147  23.7938553
 116.9927561  60.6101280  24.4553764 120.2504024  57.1600328  25.4581040
 119.9940958  56.7596963  26.2889248 119.6256892  57.8744122  25.3331179
 124.5616362  59.8996401  27.9652332 124.0015920  59.9689590  28.7383894
 123.9559865  59.7237386  27.2451828 107.6311571  71.3333128  29.7170518
 107.5143955  72.2778560  29.6149208 106.8104017  71.0306690  30.1056317
 117.5188105  66.0583264  20.5627111 118.3533709  65.6264462  20.3804586
 117.3572448  65.8865277  21.4904005 117.1733997  62.5615377  21.9283450
 117.1182801  62.3959648  20.9871894 116.5480053  63.2691410  22.0845640
 101.9626512  57.7983441  35.7544872 102.6085376  57.2882395  36.2432097
 101.7543663  58.5352123  36.3288297 114.4879905  64.8664289  41.2537013
 115.3571064  65.0404941  40.8923648 114.0086656  65.6858706  41.1312742
 110.4830123  52.0623486  21.5068768 110.4708793  53.0065326  21.6637039
 111.3753545  51.8793631  21.2128230 108.6566085  71.9861390  32.9326446
 109.5593332  72.0185000  33.2492941 108.4303455  71.0561841  32.9472782
 110.4119687  70.7392376  29.5936525 109.4615318  70.7394238  29.4800897
 110.7152173  69.9925111  29.0772560 114.2982242  48.6566263  25.7614705
 113.5314638  48.1024749  25.9071388 114.7092947  48.7288131  26.6228857
 106.3024003  54.9451058  39.8519886 107.1655465  54.5887863  40.0623211
 105.7289414  54.6064953  40.5395291 126.1472380  76.5752915  30.6582287
 126.7850790  76.4559662  29.9545628 126.0293223  77.5233759  30.7170240
 122.9562087  76.5280343  30.5943812 122.6180598  76.4121408  29.7064347
 123.8251855  76.1271508  30.5744818 118.8148902  78.3815819  26.5840703
 118.2513767  78.2905756  25.8156991 118.7001297  77.5615724  27.0643196
 123.4381870  77.6815195  36.5530018 123.4270510  77.2867993  35.6810521
 123.6002509  76.9481267  37.1463789 116.3613334  79.8767011  29.4224924
 117.1534626  79.5357836  29.0071223 116.6009984  79.9861986  30.3427077
 124.3948461  82.0486787  21.8955168 123.7436441  82.6340867  21.5089182
 125.1892824  82.5792982  21.9550205 118.3204088  79.1375924  22.2942302
 119.0934964  78.5904911  22.1555178 118.6729487  80.0020174  22.5056764
 120.1589131  80.4652306  35.5009202 119.8678997  81.3697937  35.3855868
 120.7946115  80.5068834  36.2153271 121.0845338  77.8429155  32.0910561
 121.6808910  77.6185177  31.3767524 121.1420309  77.1013900  32.6936009
 120.6570366  75.2968590  19.9260752 120.9095887  74.7750112  19.1644215
 119.7194925  75.1334736  20.0287436 125.7013649  74.3004369  27.7335495
 126.4876738  73.8823792  27.3825913 125.9652353  75.2050461  27.9017144
 125.8723726  79.7377219  22.4324152 125.2369559  79.8111845  23.1445057
 125.5421133  80.3270818  21.7543232 131.1022076  74.2379602  28.6368474
 131.8347248  73.6678819  28.8706303 130.3461432  73.8501202  29.0774980
 120.3766655  77.1996696  22.1285127 120.2602913  76.5241600  22.7966212
 120.4868915  76.7129070  21.3117280 122.7198196  76.6606843  25.8331816
 122.3556403  76.1337464  26.5444738 123.5765312  76.2705312  25.6598302
 128.6247496  67.9501176  33.0963083 128.2930821  68.8196587  32.8724298
 128.0293110  67.6337460  33.7757113 122.3603683  71.6896743  20.8293165
 122.5278085  72.5576979  21.1963636 122.1700852  71.8524025  19.9054454
 125.1179016  80.1513722  32.4958995 124.8179739  81.0538761  32.3874803
 124.7730075  79.8845905  33.3480148 118.5691497  76.6027519  28.5295700
 117.6441994  76.4703733  28.7373392 118.8175910  77.3821738  29.0265642
 128.5176160  72.6696262  30.1756433 127.6093037  72.6011671  29.8815194
 128.4663755  73.1468207  31.0038258 122.3392903  74.1454401  21.8139832
 122.2192529  74.5911451  22.6525312 121.6445492  74.4939718  21.2553370
 115.9300308  76.2460792  29.3639489 116.0592689  76.4995271  30.2778901
 115.2497760  76.8388500  29.0444144 120.0999796  86.9158042  25.4629963
 120.0223825  87.8665867  25.5418444 119.4961439  86.5703915  26.1204889
 122.5917025  74.0885908  38.1191330 121.8150359  74.6479828  38.1094195
 123.2307588  74.5742691  38.6406200 130.3837806  70.8712701  31.9534307
 129.7412186  71.1645234  31.3074101 129.8792735  70.7565621  32.7587503
 128.0377970  74.6175874  22.6420166 128.9495826  74.8503260  22.4667863
 127.5287617  75.2012918  22.0795244 120.8463398  76.8971361  37.6809297
 121.5878082  77.4356405  37.4044121 120.1400383  77.5237650  37.8380849
 126.3218737  79.0400502  36.2781458 126.7302093  78.5982912  35.5336091
 125.5995999  78.4653129  36.5315651 122.6749807  73.9773108  33.6515015
 123.5211003  74.4012522  33.7949664 122.6148445  73.3206733  34.3453578
 126.6447552  79.6001692  30.0333747 126.0156414  79.7647406  29.3309815
 126.2573214  80.0143302  30.8044711 130.5236784  80.5356130  27.3878111
 129.8387822  80.9155031  26.8375144 130.6080633  81.1451457  28.1210059
 125.8249253  71.6377477  35.3096189 125.5810185  72.3919537  34.7730465
 126.1009183  72.0162824  36.1443436 127.7787715  78.1816089  33.9873455
 127.9904611  78.8247849  33.3107836 127.7317464  77.3478406  33.5195385
 125.3813944  70.7933910  30.8910027 124.5198423  71.0915163  31.1826764
 125.4076379  71.0104309  29.9591059 122.1975514  79.3376100  27.2983832
 122.6613859  79.6163803  26.5088455 121.9332312  78.4359545  27.1156923
 119.0899595  78.8847582  30.2363596 119.6600952  79.3134850  29.5981080
 119.6807707  78.6030167  30.9347781 121.1344400  75.4599253  24.1073398
 121.8368443  75.9120296  24.5747324 120.8025028  74.8183072  24.7353291
 119.5824761  74.0511009  38.4824607 118.9523422  74.7327290  38.7160004
 119.4760849  73.9394091  37.5377745 114.8769734  73.7182805  29.4090531
 114.0868788  73.9740334  28.9330642 115.3680981  74.5331143  29.5142572
 128.8933543  81.0588044  32.1595812 129.7150987  80.6568232  31.8778494
 128.8895946  80.9556279  33.1111928 116.8284479  74.0827385  26.3674008
 116.0315643  74.1946079  26.8857503 116.6010071  74.4214037  25.5014898
 122.6590147  80.6072088  34.3156522 122.7234579  81.0692495  35.1514694
 121.9501071  79.9769453  34.4438832 113.1607437  73.9713296  31.8405522
 113.4115475  74.8560306  32.1063098 113.6966985  73.7917897  31.0680614
 136.9839536  77.4026793  28.5080783 136.2303245  76.8334191  28.3524788
 137.1187078  77.3689457  29.4551418 122.3738165  82.2740195  24.1835503
 122.2383839  83.1191731  24.6120351 122.9147977  82.4759473  23.4201437
 118.8605504  68.3531775  40.8449858 118.4672450  67.7997974  41.5197502
 119.6771644  68.6642354  41.2356376 115.8267562  79.7915633  24.7563428
 116.3392082  80.5858884  24.9068993 116.4790275  79.0941924  24.6897029
 117.6362447  82.9081390  26.8386181 117.8129075  83.8299354  26.6507165
 118.4319280  82.5939809  27.2680561 121.7773465  69.7689654  38.4370115
 122.5183179  70.3696807  38.3574577 122.0091388  69.0267292  37.8788157
 116.9214803  74.9546021  36.7148344 116.8068318  74.0531279  37.0155443
 116.0659321  75.2009718  36.3633161 124.0006641  82.8963762  38.3135845
 123.5570495  82.1100140  37.9956749 124.6623854  83.0842912  37.6479736
 118.7593762  84.4259563  32.8396523 119.3101187  84.2976627  32.0673517
 117.9205238  84.7254452  32.4891416 126.0987879  83.1766562  36.3417246
 126.0806354  83.9975443  35.8497515 127.0207799  83.0520637  36.5667387
 122.5560933  80.6910691  37.1840754 123.0889270  79.9298979  36.9540062
 122.0275014  80.3984343  37.9264909 125.7230628  65.7970757  32.7134396
 125.3794897  66.6872399  32.6373507 126.0909591  65.6072415  31.8503981
 113.7916479  78.1204288  25.5322998 114.6291701  78.5301296  25.3156706
 113.9694746  77.1803730  25.5023192 125.6880911  75.7879368  21.2206831
 125.1727534  76.5583973  21.4595219 125.4158219  75.1144504  21.8439893
 123.2728022  70.6329069  26.2792070 122.4169618  70.2435919  26.0997708
 123.6854974  70.7121030  25.4191855 124.8027168  68.1675412  30.6783629
 124.2991964  68.1305547  29.8651435 125.0957775  69.0768155  30.7380286
 121.0470054  68.2514142  29.6849811 121.9123051  68.0556951  29.3255701
 121.1147563  68.0224494  30.6119168 130.6615185  78.5411723  23.1560005
 129.8844628  78.2022882  22.7115167 131.3406666  78.5464346  22.4814970
 125.4767214  73.6606460  23.0466613 125.1717350  73.9752610  23.8976756
 126.4297656  73.7387880  23.0893946 123.9213646  79.8196684  24.6959566
 123.3935007  79.0849443  24.3832804 123.4201149  80.5971360  24.4499535
 128.9006492  78.0145704  29.8126613 128.2430166  78.7044966  29.9006741
 129.7046891  78.4042136  30.1560599 118.6532373  70.4816350  27.0566178
 119.2276125  70.2591531  26.3239371 119.2403356  70.5505044  27.8094779
 127.7111951  76.3690077  27.8630555 128.2243832  77.0020069  28.3652264
 128.3613175  75.7691272  27.4973915 118.9801961  72.5120811  21.0762063
 118.1439273  72.8495498  21.3971338 118.8406730  72.3769791  20.1389200
 120.9555041  67.3557599  25.7841247 120.3019453  67.0406616  25.1597862
 120.9135515  66.7333339  26.5101070 122.0666246  77.6376894  17.6994540
 121.1593308  77.4066147  17.8985689 122.5637278  76.8414513  17.8868521
 124.9734325  86.3474401  20.6191226 124.2996024  86.6506098  21.2276184
 125.3600147  87.1503481  20.2696683 124.1892782  73.8439532  30.1088895
 123.2715343  74.0654479  29.9510583 124.6052925  73.9185843  29.2500602
 124.9727829  75.2430948  25.2391575 125.7199648  75.7552345  24.9298697
 125.2419419  74.9215001  26.0995969 123.2454479  77.7389489  22.2218530
 122.3365699  77.4548522  22.3190999 123.2749563  78.1588567  21.3621836
 128.4773747  81.3496078  25.9909697 128.0236074  80.5086988  26.0474888
 127.8467714  81.9857477  26.3284477 127.4206666  72.2788064  27.2210365
 126.6829423  71.7665451  27.5520607 127.6733440  71.8388446  26.4093642
 126.9206686  83.1872575  26.9259515 127.2129660  83.7477632  26.2071881
 127.4305307  83.4801136  27.6812674 127.5218294  65.0564316  27.8152134
 127.8277171  64.1961680  27.5278049 128.2470899  65.6481937  27.6151128
 113.8142650  75.4595003  26.2033732 113.6167050  74.8664364  25.4784798
 113.2589314  75.1547213  26.9209671 121.7939373  75.3518109  28.3228325
 121.8487983  74.3991946  28.2470802 120.9830576  75.5077548  28.8069623
 122.9430567  79.2798232  19.5606608 122.5049997  78.5634091  19.1012246
 123.6841008  79.5074347  18.9991700 119.7331733  73.9695169  26.0818704
 118.9199599  74.2689340  26.4883896 120.2290728  73.5750858  26.7993186
 121.8840311  83.9652926  28.0152969 121.8416490  84.1913772  27.0861501
 122.8003010  83.7316301  28.1638770 125.3305945  74.4336994  34.9133598
 125.6855333  74.6608467  35.7728063 125.9778076  74.7655370  34.2910853
 131.0603682  77.5555430  25.6182927 130.9221581  77.7457025  24.6904116
 130.7039901  78.3174812  26.0750978 119.2245808  71.5413525  31.6979939
 119.8645187  71.4002284  31.0002902 118.3923339  71.2548038  31.3218541
 131.0873062  79.6231957  30.6294198 131.5209568  79.5307246  31.4777252
 131.8004642  79.5989457  29.9914214 120.0006112  80.8415955  27.8114931
 120.7946711  80.3466275  27.6097506 119.2897804  80.3133818  27.4482637
 124.8200957  83.2234051  32.1627299 124.8737979  83.7924987  32.9305015
 123.9515738  83.3935936  31.7981336 116.3088876  74.9859037  23.8874684
 115.3786464  74.9243492  24.1044646 116.4046348  74.4634990  23.0911325
 116.2274425  71.5113850  26.4752926 116.4881242  72.4259183  26.3662086
 117.0491597  71.0438292  26.6249538 117.6999350  72.9251607  33.6451750
 118.3722403  72.7168969  32.9964399 116.8729136  72.7273693  33.2056982
 131.9488611  79.6655657  33.1627084 132.1424501  80.5701468  33.4086359
 131.8489229  79.2063076  33.9965669 123.6024922  69.5513548  35.6617411
 122.9552837  70.2503497  35.5681887 124.3725937  69.9849692  36.0293659
 127.0103720  79.8162400  38.7367964 126.8589226  79.5872952  37.8198048
 127.0008399  80.7733001  38.7499309 123.7789056  77.3894313  33.7214231
 124.7081116  77.5405472  33.5483198 123.3580086  77.4778333  32.8662877
 122.5777388  81.4144977  31.4912768 122.4388474  81.0463761  32.3638706
 121.7891984  81.9292617  31.3196726 123.1725540  86.5154074  22.8338305
 123.3477296  86.0442117  23.6483928 122.4858328  87.1419840  23.0619566
 124.1282603  80.7926580  28.8801606 123.7932436  80.7527350  29.7759256
 123.6286549  80.1271296  28.4072016 118.1026847  76.1994210  34.4054187
 117.9646645  75.4674449  35.0065726 119.0131771  76.1103110  34.1238375
 127.0641795  78.1382614  19.1538666 126.4470965  77.4129442  19.0571718
 126.5958283  78.8991974  18.8105740 120.7309148  75.9114169  33.8937867
 121.4408766  75.2707361  33.8524485 120.6878456  76.1627064  34.8164048
 128.7195927  82.8481522  36.8144446 128.6608473  82.1640743  36.1475029
 129.1215445  83.5900512  36.3625072 119.4438082  72.8979387  35.7133506
 118.9075439  72.4470125  36.3655103 118.8554790  73.0325296  34.9703971
 117.7386625  89.6643436  29.6078165 117.9783224  90.2961960  30.2857184
 116.8955822  89.3131476  29.8943524 118.8540341  72.3568038  18.2759970
 117.9769807  72.2356839  17.9122217 119.3298094  71.5654117  18.0238859
 128.7213334  80.8121106  35.0458426 127.8340113  80.4747028  35.1684825
 129.2911885  80.0804138  35.2827191 110.3742481  77.1445198  28.3701477
 111.0613521  76.8306928  27.7822493 110.2190610  78.0486563  28.0968729
 115.1777203  72.0335395  32.7986501 115.0935392  71.4261064  32.0636911
 114.3559909  72.5244413  32.7995997 122.2514487  85.4722559  32.0119669
 122.1784659  86.2777530  32.5238974 121.8091880  85.6714525  31.1867690
 122.0404267  84.7094329  25.5222491 121.2571789  85.2516009  25.6160715
 122.7397012  85.2268308  25.9216732 125.3500917  70.5188958  28.1656696
 125.8469616  69.7658921  27.8457766 124.5787898  70.5553275  27.5999905
 133.2030674  76.2229324  29.8074987 133.1920551  77.1054039  29.4368921
 132.3348054  75.8700875  29.6129525 124.7113171  85.3709393  34.1677828
 125.4241143  86.0056858  34.0953729 124.2203199  85.4673259  33.3517830
 126.4330698  79.2760645  25.7395119 125.4986976  79.3962108  25.5699824
 126.6107366  78.3733112  25.4755129 121.9335886  72.6606341  27.8928381
 121.5633673  72.1077382  28.5809286 122.4294978  72.0564475  27.3403381
 129.8203249  75.1177965  26.2745154 130.2863701  75.9505956  26.2005456
 130.2710749  74.6522946  26.9790412 119.7625084  83.1203836  34.9883399
 120.4634544  83.7540319  35.1412793 119.2920199  83.4618568  34.2279038
 127.8879480  81.4621786  23.2731306 128.1639324  81.3478381  24.1825180
 127.0183979  81.0639271  23.2343479 127.7919912  67.4858552  30.3136055
 126.8782991  67.7162779  30.4818262 128.2213013  67.5696996  31.1650087
 127.5626370  75.6748444  32.8135949 126.9097820  75.9224351  32.1588402
 127.9406750  74.8612582  32.4798426 124.5233544  85.7108137  26.9164119
 124.7055939  84.8929793  27.3791871 125.3466530  85.9275829  26.4789009
 124.8575710  84.6376322  24.1779168 125.3863476  84.1268777  23.5649330
 125.1203929  84.3218852  25.0424701 123.6113943  76.4168255  39.3001986
 122.9354580  76.3162384  39.9704361 124.4341577  76.2607468  39.7637983
 115.3592802  82.6540191  31.9214501 115.9446239  81.9083879  32.0542405
 115.1617641  82.9644148  32.8051165 118.2131458  85.6891439  26.9376944
 117.5441833  86.1737566  26.4540984 118.0744327  85.9360659  27.8520322
 109.9510457  75.2245792  30.6418944 109.9894557  74.6909382  31.4356062
 109.4450750  74.6980997  30.0229922 122.3536726  87.7235182  33.5359602
 122.9055034  87.8866804  34.3008687 122.6942920  88.3139620  32.8639627
 117.3301219  70.0710332  34.1381487 117.3942546  70.9325163  33.7258884
 117.2668340  69.4584334  33.4053845 116.8053492  72.1433465  37.7854521
 117.4325531  71.7610542  38.3992045 115.9481411  71.9247666  38.1510213
 127.2047600  82.5496440  39.3908256 127.7487504  83.1626398  38.8963211
 126.6234445  83.1076018  39.9075269 113.5819035  73.9509894  23.7172876
 113.8772476  73.0420572  23.6639929 112.6807070  73.9297633  23.3953878
 125.4905113  85.6717158  30.5223284 125.3656253  84.8706898  30.0134230
 126.1484204  86.1663351  30.0337254 117.1113282  72.0265890  29.7000424
 116.3899867  72.6401858  29.5607898 117.9006537  72.5623655  29.6217070
 127.5540022  83.4726178  32.1502834 126.6070357  83.3531529  32.0781161
 127.9022795  82.5848676  32.2329096 119.9139595  69.3620317  35.9741076
 120.4373997  69.6082613  36.7367385 119.6951928  70.1940352  35.5544213
 115.3106876  71.6323991  23.8412201 114.9819582  70.7521370  23.6587307
 115.6646247  71.5771660  24.7288590 124.5586455  83.2678894  28.3507186
 124.4111417  82.3395601  28.5314756 125.3839949  83.2898985  27.8664262
 118.4248699  71.9196961  24.2087679 118.7644772  72.4482882  23.4866287
 118.8720820  72.2577367  24.9846245 128.1620577  84.0907453  29.4372059
 129.0867124  83.8850314  29.2996510 127.9935880  83.8423854  30.3461401
 121.1192140  70.3034012  33.6590747 120.7788961  69.5041825  34.0611426
 120.4131146  70.6035723  33.0867580 121.7708612  67.3883324  32.1118070
 122.5934681  66.9143802  31.9896960 122.0146676  68.1673808  32.6116756
 120.4116846  70.4171583  22.4080971 121.1325209  70.7952835  21.9044688
 119.7882151  71.1360460  22.5115949 124.5547969  71.1216732  23.3439304
 124.7711584  72.0041370  23.0428132 124.0742037  70.7302945  22.6144946
 119.2947191  74.0802445  29.9210048 119.1491771  74.3942748  30.8134330
 118.8172394  74.6987345  29.3680947 121.1543574  71.0704993  29.9690938
 121.1405142  70.1746086  29.6323236 121.8716002  71.0775657  30.6029224
 123.0069704  71.5042333  32.0144065 122.7487482  72.4259404  32.0128396
 122.4754745  71.1072768  32.7044529 127.9515893  84.6093120  24.7934151
 128.1252771  84.0439543  24.0408003 128.4444784  85.4094015  24.6113641
 113.7692853  76.6207789  32.8597709 113.2246321  77.3967597  32.9917984
 114.6472203  76.9678594  32.7016831 120.5580470  69.9519373  25.2378508
 120.6796381  69.0236019  25.4369395 120.2682512  69.9658059  24.3256823
 123.4271660  67.6374284  28.3745228 123.4493357  67.7013617  27.4197207
 123.8439719  66.7978792  28.5685734 133.8055284  77.3729543  26.4124450
 134.2486430  76.6236868  26.0143574 132.9281795  77.3639680  26.0298182
 128.9391066  83.9259885  21.8931049 129.6341970  84.5466577  22.1118364
 129.2814216  83.0755236  22.1683427 114.5558875  75.7477686  35.7527866
 113.8140611  75.8960321  36.3392497 114.2351619  76.0085951  34.8894616
 130.8382489  81.3759590  23.4218380 131.3633813  81.7146863  22.6967700
 130.7504841  80.4406605  23.2381514 122.5002537  85.2893664  35.5508256
 122.8089664  85.0442811  36.4230956 123.2978019  85.4940302  35.0627127
 122.5223149  87.4431573  27.7813633 122.0828140  86.9507952  28.4746490
 123.2731266  86.9004541  27.5405708 115.0015488  83.6343114  27.7838261
 115.8273508  83.3346886  27.4036904 114.6509540  82.8650737  28.2328050
 119.9697022  82.9869583  29.8535935 119.3477031  82.3240288  29.5538162
 120.6401889  83.0130714  29.1709582 113.2024094  81.5529441  28.7427195
 112.3656002  81.1251615  28.5611196 113.1747739  81.7461884  29.6797986
 120.0421549  71.4651371  39.4468441 120.0909705  72.3413493  39.0646210
 120.5844063  70.9228764  38.8740084 130.5276395  82.0092494  38.7269578
 129.7371938  81.9916633  38.1874077 130.2909749  82.5480787  39.4818614
 130.6474270  78.8584960  36.0402306 130.6972275  78.6934968  36.9817829
 130.5388193  77.9912219  35.6500187 119.5310529  81.5373506  23.3294395
 119.6798649  82.2208970  22.6761068 120.3376972  81.5178596  23.8443851
 127.9378032  74.8415888  37.3561613 128.8387895  74.7022353  37.0645611
 128.0126007  75.0070343  38.2959790 122.2720838  72.2182743  36.2014799
 121.4024147  72.5116309  35.9297388 122.5080318  72.8023188  36.9222063
 132.1492467  81.2781902  36.2844328 131.8577275  81.6411882  37.1207789
 131.5364598  80.5648910  36.1057660 133.3488149  78.8434781  28.8046898
 134.1835040  79.2824586  28.9684458 133.4847278  78.3673435  27.9855144
 130.3979655  76.4014516  34.7524386 130.8733777  76.5942163  33.9443237
 129.4745220  76.4573702  34.5067769 117.2863162  77.5638683  24.3355464
 117.0409203  76.6601013  24.5335674 117.4559076  77.5655834  23.3934942
 124.9759871  68.4362360  33.7180220 125.4941815  69.1723387  33.3926708
 124.6215004  68.7426353  34.5526979 116.5558809  73.2967041  21.8341625
 115.8628054  73.3711396  21.1781661 116.3110561  72.5327385  22.3563142
 125.2272466  64.8562642  29.2381116 125.5074219  64.1885831  29.8641543
 126.0123072  65.0491738  28.7255780 123.0305934  84.0321636  20.8006142
 122.4579901  84.6511823  20.3476614 123.6038728  84.5820998  21.3346064
 129.0981324  73.2780276  32.9852691 130.0498747  73.3778374  33.0064915
 128.9284774  72.4858545  33.4950776 127.1195703  70.3635860  33.1712092
 126.5245635  70.6440872  32.4758581 126.8345400  70.8529761  33.9428833
 126.2503194  84.3158786  21.9314725 127.1833867  84.2504348  22.1347600
 126.1626407  85.1515053  21.4729257 128.8791211  83.6324657  18.8918672
 128.8004842  83.2984520  19.7854430 129.7000877  84.1246425  18.8910145
 131.5769402  76.4986396  32.0994991 131.5445722  75.5602397  32.2854675
 132.1870025  76.5770433  31.3660816 123.4152733  75.3682449  18.1422195
 124.3611837  75.2388657  18.2110613 123.0366978  74.6297111  18.6191623
 131.7263890  73.2897440  32.1453274 131.2102939  72.5055896  31.9583203
 132.6103839  72.9616156  32.3099794 129.3874617  67.0338455  28.1049087
 129.1899438  66.7253543  28.9892419 129.9974323  67.7600094  28.2347017
 135.4761249  75.7010266  31.8375479 134.7494412  75.5666230  31.2291971
 135.0608536  76.0087094  32.6432197 123.2991425  79.4200195  39.6022852
 124.2194435  79.5978794  39.7962898 123.2641008  78.4756241  39.4502551
 121.5995650  73.2932425  18.0777080 120.6927105  72.9965538  18.1539794
 121.8771631  72.9962244  17.2111366 112.5173590  74.6138789  28.5276127
 112.1976374  73.7604097  28.2350501 111.9707018  74.8287367  29.2834094
 116.2953498  77.3301230  32.2445633 116.5139507  78.2618338  32.2633667
 116.7079271  76.9709204  33.0300437 123.2157715  67.8369315  24.2321322
 122.4058444  67.4916400  24.6076568 123.9042132  67.5276859  24.8208933
 125.1448264  66.9147362  25.8545618 125.6979302  67.3342815  26.5135641
 125.3818350  65.9883110  25.8968574 121.1681363  72.9034436  41.6348382
 121.0678090  73.8528793  41.5660473 120.9502905  72.5752675  40.7624452
 120.3694434  70.1519361  18.2189059 121.2313598  70.4774259  18.4784877
 120.5544778  69.3650857  17.7062125 112.3861850  78.2341700  30.4969248
 111.6925322  77.8195653  29.9839203 113.1334841  78.2762237  29.9002667
 128.5227071  69.0247887  25.3624282 127.9425740  69.6832691  24.9802335
 128.2563003  68.2025232  24.9511700 126.9730637  68.4252945  27.5645603
 127.4730416  68.5369479  26.7559922 127.6166245  68.1213998  28.2046411
 121.0312633  76.3331574  40.4513444 120.5479715  77.1331935  40.6577333
 121.1173572  76.3439519  39.4980888 114.2998593  78.1659954  28.3735263
 114.2769281  78.2647641  27.4217146 114.6099229  79.0125105  28.6952429
 116.9585970  80.2236109  32.4881877 117.9129224  80.1920051  32.4211809
 116.7598494  79.7626733  33.3032103 117.5485353  78.7937225  35.0552675
 118.3678242  79.2881304  35.0787512 117.8222160  77.8769193  35.0270243
 127.3051949  71.1847978  24.4180631 126.4177804  71.4697628  24.2000825
 127.7205938  71.0241741  23.5707908 130.6566485  71.2094498  28.1334970
 131.4326875  71.6990951  28.4059587 129.9314619  71.6352553  28.5906839
 133.0939044  71.9222118  29.1908911 133.6883534  71.6817854  28.4802219
 133.1665627  71.2029248  29.8182447 115.3136199  85.7655729  29.5052075
 115.1790667  85.0056130  28.9390073 114.8968262  86.4896629  29.0380864
 126.4495162  80.9492652  18.5128651 127.1531012  81.1542655  19.1286306
 125.7257811  81.5169414  18.7777734 127.2792973  76.7002513  24.6330921
 127.2228174  77.1571065  23.7938553 127.8321315  75.9393198  24.4553764
 131.0897778  72.4892245  25.4581040 130.8334713  72.0888881  26.2889248
 130.4650647  73.2036039  25.3331179 135.4010116  75.2288319  27.9652332
 134.8409674  75.2981508  28.7383894 134.7953620  75.0529303  27.2451828
 118.4705325  86.6625046  29.7170518 118.3537709  87.6070478  29.6149208
 117.6497771  86.3598607  30.1056317 128.3581860  81.3875181  20.5627111
 129.1927464  80.9556380  20.3804586 128.1966203  81.2157195  21.4904005
 128.0127752  77.8907295  21.9283450 127.9576556  77.7251566  20.9871894
 127.3873807  78.5983328  22.0845640 112.8020267  73.1275359  35.7544872
 113.4479130  72.6174313  36.2432097 112.5937418  73.8644041  36.3288297
 125.3273659  80.1956207  41.2537013 126.1964819  80.3696859  40.8923648
 124.8480411  81.0150623  41.1312742 121.3223877  67.3915404  21.5068768
 121.3102547  68.3357244  21.6637039 122.2147299  67.2085549  21.2128230
 119.4959839  87.3153308  32.9326446 120.3987086  87.3476918  33.2492941
 119.2697209  86.3853759  32.9472782 121.2513441  86.0684294  29.5936525
 120.3009072  86.0686156  29.4800897 121.5545927  85.3217029  29.0772560
 125.1375997  63.9858180  25.7614705 124.3708393  63.4316667  25.9071388
 125.5486702  64.0580049  26.6228857 117.1417758  70.2742976  39.8519886
 118.0049219  69.9179781  40.0623211 116.5683169  69.9356871  40.5395291
 133.7955841  91.8572261  30.5943812 133.4574353  91.7413325  29.7064347
 134.6645609  91.4563426  30.5744818 129.6542657  93.7107737  26.5840703
 129.0907522  93.6197674  25.8156991 129.5395052  92.8907641  27.0643196
 134.2775624  93.0107112  36.5530018 134.2664265  92.6159911  35.6810521
 134.4396264  92.2773185  37.1463789 127.2007089  95.2058929  29.4224924
 127.9928381  94.8649753  29.0071223 127.4403739  95.3153904  30.3427077
 130.9982885  95.7944224  35.5009202 130.7072751  96.6989855  35.3855868
 131.6339870  95.8360752  36.2153271 131.9239092  93.1721073  32.0910561
 132.5202664  92.9477095  31.3767524 131.9814064  92.4305818  32.6936009
 136.5407403  89.6296286  27.7335495 137.3270493  89.2115710  27.3825913
 136.8046108  90.5342379  27.9017144 133.5591950  91.9898761  25.8331816
 133.1950157  91.4629382  26.5444738 134.4159066  91.5997230  25.6598302
 135.9572770  95.4805640  32.4958995 135.6573493  96.3830678  32.3874803
 135.6123830  95.2137823  33.3480148 129.4085252  91.9319436  28.5295700
 128.4835748  91.7995651  28.7373392 129.6569665  92.7113656  29.0265642
 126.7694063  91.5752710  29.3639489 126.8986444  91.8287189  30.2778901
 126.0891514  92.1680418  29.0444144 133.4310780  89.4177825  38.1191330
 132.6544114  89.9771746  38.1094195 134.0701343  89.9034608  38.6406200
 131.6857152  92.2263279  37.6809297 132.4271837  92.7648323  37.4044121
 130.9794138  92.8529568  37.8380849 137.1612492  94.3692419  36.2781458
 137.5695848  93.9274830  35.5336091 136.4389753  93.7945047  36.5315651
 133.5143562  89.3065026  33.6515015 134.3604757  89.7304440  33.7949664
 133.4542200  88.6498650  34.3453578 137.4841306  94.9293610  30.0333747
 136.8550169  95.0939324  29.3309815 137.0966969  95.3435219  30.8044711
 136.6643007  86.9669394  35.3096189 136.4203939  87.7211455  34.7730465
 136.9402938  87.3454742  36.1443436 136.2207699  86.1225827  30.8910027
 135.3592178  86.4207081  31.1826764 136.2470134  86.3396226  29.9591059
 133.0369268  94.6668018  27.2983832 133.5007614  94.9455721  26.5088455
 132.7726066  93.7651463  27.1156923 129.9293349  94.2139499  30.2363596
 130.4994706  94.6426768  29.5981080 130.5201461  93.9322084  30.9347781
 131.9738154  90.7891170  24.1073398 132.6762198  91.2412214  24.5747324
 131.6418783  90.1474989  24.7353291 130.4218516  89.3802927  38.4824607
 129.7917176  90.0619208  38.7160004 130.3154604  89.2686009  37.5377745
 125.7163488  89.0474723  29.4090531 124.9262542  89.3032252  28.9330642
 126.2074736  89.8623061  29.5142572 127.6678234  89.4119302  26.3674008
 126.8709397  89.5237996  26.8857503 127.4403826  89.7505954  25.5014898
 133.4983901  95.9364005  34.3156522 133.5628334  96.3984413  35.1514694
 132.7894825  95.3061370  34.4438832 124.0001191  89.3005213  31.8405522
 124.2509230  90.1852223  32.1063098 124.5360740  89.1209815  31.0680614
 129.6999259  83.6823693  40.8449858 129.3066204  83.1289891  41.5197502
 130.5165399  83.9934271  41.2356376 126.6661316  95.1207551  24.7563428
 127.1785837  95.9150801  24.9068993 127.3184029  94.4233841  24.6897029
 132.6167220  85.0981572  38.4370115 133.3576933  85.6988725  38.3574577
 132.8485142  84.3559210  37.8788157 127.7608558  90.2837939  36.7148344
 127.6462073  89.3823196  37.0155443 126.9053075  90.5301636  36.3633161
 134.8400395  98.2255679  38.3135845 134.3964250  97.4392058  37.9956749
 135.5017609  98.4134830  37.6479736 129.5987517  99.7551481  32.8396523
 130.1494942  99.6268544  32.0673517 128.7598992 100.0546370  32.4891416
 133.3954688  96.0202609  37.1840754 133.9283024  95.2590897  36.9540062
 132.8668769  95.7276261  37.9264909 136.5624383  81.1262675  32.7134396
 136.2188652  82.0164317  32.6373507 136.9303345  80.9364332  31.8503981
 124.6310233  93.4496205  25.5322998 125.4685455  93.8593214  25.3156706
 124.8088501  92.5095647  25.5023192 134.1121776  85.9620987  26.2792070
 133.2563373  85.5727837  26.0997708 134.5248728  86.0412948  25.4191855
 135.6420923  83.4967330  30.6783629 135.1385719  83.4597465  29.8651435
 135.9351530  84.4060073  30.7380286 131.8863809  83.5806060  29.6849811
 132.7516806  83.3848868  29.3255701 131.9541318  83.3516411  30.6119168
 129.4926128  85.8108268  27.0566178 130.0669880  85.5883449  26.3239371
 130.0797110  85.8796962  27.8094779 131.7948796  82.6849517  25.7841247
 131.1413208  82.3698534  25.1597862 131.7529270  82.0625257  26.5101070
 135.0286536  89.1731450  30.1088895 134.1109097  89.3946397  29.9510583
 135.4446680  89.2477761  29.2500602 124.6536404  90.7886921  26.2033732
 124.4560804  90.1956281  25.4784798 124.0983068  90.4839131  26.9209671
 132.6333128  90.6810027  28.3228325 132.6881738  89.7283863  28.2470802
 131.8224330  90.8369466  28.8069623 130.5725488  89.2987087  26.0818704
 129.7593353  89.5981257  26.4883896 131.0684482  88.9042776  26.7993186
 136.1699700  89.7628911  34.9133598 136.5249087  89.9900384  35.7728063
 136.8171831  90.0947288  34.2910853 130.0639563  86.8705442  31.6979939
 130.7038942  86.7294201  31.0002902 129.2317093  86.5839956  31.3218541
 130.8399867  96.1707873  27.8114931 131.6340465  95.6758193  27.6097506
 130.1291559  95.6425736  27.4482637 135.6594711  98.5525968  32.1627299
 135.7131733  99.1216905  32.9305015 134.7909492  98.7227853  31.7981336
 127.1482630  90.3150955  23.8874684 126.2180218  90.2535410  24.1044646
 127.2440102  89.7926907  23.0911325 127.0668179  86.8405767  26.4752926
 127.3274996  87.7551101  26.3662086 127.8885351  86.3730210  26.6249538
 128.5393104  88.2543525  33.6451750 129.2116158  88.0460887  32.9964399
 127.7122891  88.0565611  33.2056982 134.4418676  84.8805465  35.6617411
 133.7946591  85.5795415  35.5681887 135.2119692  85.3141609  36.0293659
 134.6182811  92.7186230  33.7214231 135.5474871  92.8697390  33.5483198
 134.1973841  92.8070251  32.8662877 133.4171143  96.7436895  31.4912768
 133.2782228  96.3755679  32.3638706 132.6285739  97.2584534  31.3196726
 134.9676358  96.1218497  28.8801606 134.6326190  96.0819267  29.7759256
 134.4680303  95.4563213  28.4072016 128.9420602  91.5286127  34.4054187
 128.8040400  90.7966366  35.0065726 129.8525525  91.4395028  34.1238375
 131.5702902  91.2406087  33.8937867 132.2802521  90.5999279  33.8524485
 131.5272210  91.4918982  34.8164048 130.2831836  88.2271305  35.7133506
 129.7469193  87.7762043  36.3655103 129.6948545  88.3617214  34.9703971
 121.2136235  92.4737116  28.3701477 121.9007275  92.1598846  27.7822493
 121.0584364  93.3778480  28.0968729 126.0170958  87.3627312  32.7986501
 125.9329146  86.7552982  32.0636911 125.1953664  87.8536331  32.7995997
 133.0908242 100.8014476  32.0119669 133.0178413 101.6069448  32.5238974
 132.6485635 101.0006442  31.1867690 136.1894671  85.8480876  28.1656696
 136.6863371  85.0950838  27.8457766 135.4181653  85.8845193  27.5999905
 135.5506925 100.7001310  34.1677828 136.2634897 101.3348775  34.0953729
 135.0596954 100.7965176  33.3517830 132.7729640  87.9898259  27.8928381
 132.4027428  87.4369299  28.5809286 133.2688733  87.3856392  27.3403381
 130.6018839  98.4495754  34.9883399 131.3028298  99.0832237  35.1412793
 130.1313954  98.7910485  34.2279038 134.4507698  91.7460172  39.3001986
 133.7748335  91.6454302  39.9704361 135.2735332  91.5899386  39.7637983
 126.1986557  97.9832109  31.9214501 126.7839994  97.2375797  32.0542405
 126.0011395  98.2936066  32.8051165 120.7904212  90.5537709  30.6418944
 120.8288311  90.0201300  31.4356062 120.2844504  90.0272915  30.0229922
 133.1930481 103.0527100  33.5359602 133.7448789 103.2158721  34.3008687
 133.5336674 103.6431538  32.8639627 128.1694974  85.4002250  34.1381487
 128.2336300  86.2617081  33.7258884 128.1062094  84.7876251  33.4053845
 127.6447246  87.4725382  37.7854521 128.2719285  87.0902460  38.3992045
 126.7875165  87.2539584  38.1510213 124.4212789  89.2801811  23.7172876
 124.7166230  88.3712490  23.6639929 123.5200825  89.2589551  23.3953878
 127.9507036  87.3557808  29.7000424 127.2293622  87.9693776  29.5607898
 128.7400292  87.8915573  29.6217070 130.7533350  84.6912234  35.9741076
 131.2767751  84.9374531  36.7367385 130.5345683  85.5232269  35.5544213
 126.1500631  86.9615909  23.8412201 125.8213337  86.0813288  23.6587307
 126.5040001  86.9063578  24.7288590 129.2642454  87.2488879  24.2087679
 129.6038526  87.7774800  23.4866287 129.7114574  87.5869285  24.9846245
 131.9585895  85.6325930  33.6590747 131.6182715  84.8333743  34.0611426
 131.2524901  85.9327640  33.0867580 132.6102366  82.7175242  32.1118070
 133.4328436  82.2435720  31.9896960 132.8540430  83.4965726  32.6116756
 131.2510601  85.7463500  22.4080971 131.9718963  86.1244753  21.9044688
 130.6275905  86.4652377  22.5115949 135.3941724  86.4508649  23.3439304
 135.6105338  87.3333287  23.0428132 134.9135791  86.0594863  22.6144946
 130.1340945  89.4094363  29.9210048 129.9885526  89.7234666  30.8134330
 129.6566149  90.0279263  29.3680947 131.9937328  86.3996911  29.9690938
 131.9798897  85.5038004  29.6323236 132.7109756  86.4067574  30.6029224
 133.8463459  86.8334251  32.0144065 133.5881237  87.7551321  32.0128396
 133.3148499  86.4364685  32.7044529 124.6086607  91.9499707  32.8597709
 124.0640075  92.7259515  32.9917984 125.4865957  92.2970511  32.7016831
 131.3974224  85.2811291  25.2378508 131.5190135  84.3527937  25.4369395
 131.1076266  85.2949977  24.3256823 134.2665414  82.9666201  28.3745228
 134.2887111  83.0305534  27.4197207 134.6833473  82.1270710  28.5685734
 125.3952629  91.0769603  35.7527866 124.6534365  91.2252239  36.3392497
 125.0745374  91.3377869  34.8894616 133.3396292 100.6185581  35.5508256
 133.6483418 100.3734728  36.4230956 134.1371774 100.8232220  35.0627127
 125.8409243  98.9635032  27.7838261 126.6667263  98.6638804  27.4036904
 125.4903295  98.1942654  28.2328050 130.8090776  98.3161500  29.8535935
 130.1870785  97.6532205  29.5538162 131.4795643  98.3422632  29.1709582
 124.0417848  96.8821358  28.7427195 123.2049756  96.4543533  28.5611196
 124.0141493  97.0753802  29.6797986 130.8815304  86.7943288  39.4468441
 130.9303459  87.6705411  39.0646210 131.4237818  86.2520681  38.8740084
 133.1114592  87.5474661  36.2014799 132.2417901  87.8408227  35.9297388
 133.3474072  88.1315106  36.9222063 128.1256916  92.8930601  24.3355464
 127.8802958  91.9892931  24.5335674 128.2952831  92.8947752  23.3934942
 135.8153626  83.7654278  33.7180220 136.3335570  84.5015304  33.3926708
 135.4608759  84.0718271  34.5526979 127.3952564  88.6258959  21.8341625
 126.7021808  88.7003314  21.1781661 127.1504315  87.8619302  22.3563142
 136.0666220  80.1854560  29.2381116 136.3467974  79.5177749  29.8641543
 136.8516827  80.3783656  28.7255780 134.1385180  94.7492113  39.6022852
 135.0588189  94.9270712  39.7962898 134.1034763  93.8048158  39.4502551
 123.3567345  89.9430707  28.5276127 123.0370129  89.0896015  28.2350501
 122.8100773  90.1579285  29.2834094 127.1347252  92.6593148  32.2445633
 127.3533262  93.5910255  32.2633667 127.5473026  92.3001122  33.0300437
 134.0551470  83.1661233  24.2321322 133.2452198  82.8208318  24.6076568
 134.7435887  82.8568777  24.8208933 135.9842018  82.2439280  25.8545618
 136.5373057  82.6634733  26.5135641 136.2212105  81.3175028  25.8968574
 132.0075117  88.2326353  41.6348382 131.9071844  89.1820710  41.5660473
 131.7896659  87.9044592  40.7624452 123.2255605  93.5633618  30.4969248
 122.5319076  93.1487571  29.9839203 123.9728596  93.6054155  29.9002667
 131.8706387  91.6623492  40.4513444 131.3873469  92.4623852  40.6577333
 131.9567327  91.6731437  39.4980888 125.1392347  93.4951872  28.3735263
 125.1163035  93.5939559  27.4217146 125.4492984  94.3417023  28.6952429
 127.7979725  95.5528027  32.4881877 128.7522979  95.5211969  32.4211809
 127.5992249  95.0918651  33.3032103 128.3879107  94.1229143  35.0552675
 129.2071996  94.6173222  35.0787512 128.6615915  93.2061111  35.0270243
 126.1529954 101.0947646  29.5052075 126.0184422 100.3348047  28.9390073
 125.7362016 101.8188546  29.0380864 129.3099080 101.9916963  29.7170518
 129.1931464 102.9362396  29.6149208 128.4891526 101.6890525  30.1056317
 123.6414021  88.4567277  35.7544872 124.2872885  87.9466231  36.2432097
 123.4331172  89.1935958  36.3288297 136.1667414  95.5248124  41.2537013
 137.0358573  95.6988777  40.8923648 135.6874165  96.3442541  41.1312742
 132.1617632  82.7207321  21.5068768 132.1496302  83.6649161  21.6637039
 133.0541054  82.5377467  21.2128230 130.3353594 102.6445225  32.9326446
 131.2380840 102.6768836  33.2492941 130.1090964 101.7145676  32.9472782
 135.9769751  79.3150098  25.7614705 135.2102147  78.7608585  25.9071388
 136.3880456  79.3871967  26.6228857 127.9811512  85.6034894  39.8519886
 128.8442974  85.2471699  40.0623211 127.4076923  85.2648789  40.5395291
 136.8564712 102.6919230  32.7986501 136.7722901 102.0844900  32.0636911
 136.0347418 103.1828248  32.7995997 136.2346384 106.4061521  35.7527866
 135.4928120 106.5544156  36.3392497 135.9139128 106.6669787  34.8894616
 134.4807776 103.7859194  35.7544872 135.1266639 103.2758148  36.2432097
 134.2724927 104.5227876  36.3288297  81.3538154   1.0603845  20.8923134
  82.0666126   1.6951309  20.8199036  80.8628183   1.1567711  20.0763136
  78.9961709   3.4129634  20.2604909  79.5480017   3.5761256  21.0253994
  79.3367903   4.0034072  19.5884933  79.1427521   0.9788116  22.2753563
  79.4514647   0.7337262  23.1476263  79.9403003   1.1834754  21.7872433
  93.6291118   7.5939284  17.3827594  94.2669528   7.4746032  16.6790934
  93.5111961   8.5420128  17.4415546  90.4380824   7.5466712  17.3189119
  90.0999336   7.4307777  16.4309654  91.3070593   7.1457878  17.2990125
  90.9200607   8.7001564  23.2775324  90.9089248   8.3054362  22.4055828
  91.0821247   7.9667637  23.8709096  83.8432072  10.8953380  16.1470230
  84.6353364  10.5544205  15.7316529  84.0828722  11.0048356  17.0672384
  91.8767199  13.0673157   8.6200475  91.2255179  13.6527237   8.2334488
  92.6711562  13.5979352   8.6795512  87.6407869  11.4838676  22.2254508
  87.3497734  12.3884307  22.1101175  88.2764853  11.5255204  22.9398578
  88.5664075   8.8615525  18.8155868  89.1627648   8.6371547  18.1012831
  88.6239047   8.1200270  19.4181316  90.2016933   7.6793213  12.5577123
  89.8375141   7.1523834  13.2690045  91.0584049   7.2891682  12.3843609
  92.5997754  11.1700092  19.2204302  92.2998477  12.0725130  19.1120109
  92.2548813  10.9032275  20.0725455  86.0510235   7.6213888  15.2541006
  85.1260732   7.4890102  15.4618698  86.2994648   8.4008108  15.7510949
  83.4119046   7.2647162  16.0884795  83.5411427   7.5181641  17.0024207
  82.7316497   7.8574870  15.7689451  87.5818533  17.9344412  12.1875270
  87.5042563  18.8852237  12.2663750  86.9780177  17.5890284  12.8450196
  90.0735763   5.1072277  24.8436637  89.2969097   5.6666197  24.8339501
  90.7126326   5.5929060  25.3651507  88.3282135   7.9157731  24.4054604
  89.0696820   8.4542775  24.1289427  87.6219121   8.5424019  24.5626155
  93.8037475  10.0586871  23.0026765  94.2120831   9.6169282  22.2581397
  93.0814737   9.4839499  23.2560958  90.1568545   4.9959478  20.3760322
  91.0029740   5.4198891  20.5194971  90.0967183   4.3393102  21.0698885
  94.1266290  10.6188062  16.7579054  93.4975152  10.7833776  16.0555122
  93.7391952  11.0329671  17.5290018  98.0055522  11.5542500  14.1123418
  97.3206560  11.9341401  13.5620451  98.0899371  12.1637826  14.8455365
  95.2606453   9.2002459  20.7118761  95.4723348   9.8434219  20.0353142
  95.2136202   8.3664775  20.2440691  89.6794252  10.3562470  14.0229139
  90.1432597  10.6350173  13.2333762  89.4151050   9.4545914  13.8402230
  86.5718333   9.9033951  16.9608902  87.1419690  10.3321220  16.3226387
  87.1626445   9.6216536  17.6593088  87.0643499   5.0697379  25.2069914
  86.4342160   5.7513660  25.4405310  86.9579587   4.9580460  24.2623052
  96.3752281  12.0774414  18.8841119  97.1969725  11.6754601  18.6023800
  96.3714684  11.9742648  19.8357234  90.1408885  11.6258457  21.0401829
  90.2053317  12.0878865  21.8760001  89.4319809  10.9955822  21.1684139
  80.6426175   4.9899665  18.5650829  80.8934213   5.8746675  18.8308404
  81.1785723   4.8104267  17.7925920  89.8556902  13.2926565  10.9080809
  89.7202577  14.1378101  11.3365657  90.3966715  13.4945842  10.1446743
  85.1181184  13.9267759  13.5631488  85.2947813  14.8485724  13.3752472
  85.9138018  13.6126178  13.9925867  84.4033541   5.9732391  23.4393651
  84.2887056   5.0717648  23.7400750  83.5478059   6.2196088  23.0878467
  91.4825379  13.9150131  25.0381151  91.0389233  13.1286510  24.7202056
  92.1442592  14.1029282  24.3725042  86.2412500  15.4445933  19.5641830
  86.7919925  15.3162996  18.7918824  85.4023976  15.7440822  19.2136723
  93.5806617  14.1952931  23.0662553  93.5625092  15.0161812  22.5742822
  94.5026537  14.0707006  23.2912694  90.0379671  11.7097061  23.9086061
  90.5708008  10.9485349  23.6785369  89.5093752  11.4170713  24.6510216
  91.4032384  10.8383053  11.4204873  90.8753745  10.1035813  11.1078111
  90.9019886  11.6157730  11.1744841  96.3825230   9.0332074  16.5371919
  95.7248904   9.7231335  16.6252048  97.1865629   9.4228506  16.8805906
  92.4553063  17.3660771   7.3436532  91.7814761  17.6692467   7.9521490
  92.8418885  18.1689851   6.9941989  91.6711519   4.8625902  16.8334202
  90.7534081   5.0840849  16.6755890  92.0871663   4.9372212  15.9745909
  95.9592485  12.3682448  12.7155004  95.5054812  11.5273358  12.7720194
  95.3286451  13.0043846  13.0529784  94.4025424  14.2058945  13.6504822
  94.6948398  14.7664002  12.9317188  94.9124044  14.4987506  14.4057981
  89.2758111   6.3704479  15.0473632  89.3306721   5.4178315  14.9716108
  88.4649313   6.5263918  15.5314930  89.3659049  14.9839296  14.7398275
  89.3235228  15.2100142  13.8106807  90.2821748  14.7502670  14.8884076
  92.8124683   5.4523363  21.6378904  93.1674071   5.6794836  22.4973370
  93.4596814   5.7841740  21.0156160  98.5691799  10.6418326  17.3539505
  99.0028306  10.5493615  18.2022559  99.2823380  10.6175827  16.7159521
  87.4824850  11.8602325  14.5360238  88.2765448  11.3652645  14.3342813
  86.7716542  11.3320188  14.1727943  92.3019694  14.2420420  18.8872606
  92.3556717  14.8111357  19.6550321  91.4334476  14.4122305  18.5226643
  85.1818088   3.9437976  20.3697057  85.8541141   3.7355339  19.7209706
  84.3547874   3.7460062  19.9302289  99.4307349  10.6842027  19.8872390
  99.6243239  11.5887837  20.1331665  99.3307967  10.2249446  20.7210975
  94.4922458  10.8348769  25.4613271  94.3407964  10.6059321  24.5443355
  94.4827137  11.7919371  25.4744616  91.2607794   8.4080682  20.4459537
  92.1899854   8.5591842  20.2728505  90.8398824   8.4964703  19.5908184
  90.0596126  12.4331347  18.2158075  89.9207212  12.0650131  19.0884013
  89.2710722  12.9478986  18.0442033  90.6544278  17.5340443   9.5583612
  90.8296034  17.0628486  10.3729234  89.9677066  18.1606209   9.7864872
  91.6101341  11.8112949  15.6046913  91.2751174  11.7713719  16.5004563
  91.1105287  11.1457665  15.1317323  85.5845585   7.2180579  21.1299494
  85.4465383   6.4860818  21.7311033  86.4950508   7.1289479  20.8483682
  88.2127886   6.9300539  20.6183174  88.9227504   6.2893731  20.5769792
  88.1697194   7.1813434  21.5409354  96.2014664  13.8667892  23.5389753
  96.1427210  13.1827112  22.8720336  96.6034183  14.6086882  23.0870379
  86.9256820   3.9165757  22.4378813  86.3894177   3.4656495  23.0900409
  86.3373528   4.0511665  21.6949277  85.2205363  20.6829806  16.3323472
  85.4601961  21.3148330  17.0102490  84.3774560  20.3317846  16.6188831
  96.2032072  11.8307476  21.7703732  95.3158850  11.4933398  21.8930131
  96.7730623  11.0990507  22.0072498  82.6595941   3.0521764  19.5231808
  82.5754130   2.4447434  18.7882217  81.8378647   3.5430783  19.5241304
  89.7333225  16.4908928  18.7364976  89.6603396  17.2963900  19.2484280
  89.2910618  16.6900894  17.9112997  89.5223005  15.7280698  12.2467797
  88.7390526  16.2702379  12.3406022  90.2215750  16.2454678  12.6462038
  92.1931908  16.3895762  20.8923134  92.9059881  17.0243227  20.8199036
  91.7021937  16.4859628  20.0763136  93.9149435  10.2947015  12.4640426
  92.9805714  10.4148477  12.2945130  94.0926104   9.3919482  12.2000436
  87.2443822  14.1390206  21.7128705  87.9453282  14.7726689  21.8658099
  86.7738937  14.4804937  20.9524344  95.0445108   6.6934813  19.5381255
  94.3916558   6.9410721  18.8833708  95.4225488   5.8798951  19.2043733
  92.0052282  16.7294506  13.6409426  92.1874676  15.9116162  14.1037178
  92.8285268  16.9462199  13.2034316  92.3394447  15.6562692  10.9024474
  92.8682214  15.1455146  10.2894636  92.6022667  15.3405222  11.7670007
  91.0932681   7.4354624  26.0247293  90.4173318   7.3348754  26.6949668
  91.9160315   7.2793838  26.4883290  82.8411540  13.6726561  18.6459808
  83.4264977  12.9270249  18.7787712  82.6436379  13.9830518  19.5296472
  85.6950195  16.7077808  13.6622250  85.0260571  17.1923936  13.1786290
  85.5563065  16.9547029  14.5765629  89.8355464  18.7421552  20.2604909
  90.3873772  18.9053173  21.0253994  90.1761657  19.3325990  19.5884933
  84.2872230   3.1619834  24.5099828  84.9144268   2.7796911  25.1237352
  83.4300149   2.9434036  24.8755520  94.6866338  13.5682809  26.1153563
  95.2306242  14.1812768  25.6208518  94.1053183  14.1262388  26.6320576
  92.9723851  16.6903527  17.2468591  92.8474991  15.8893267  16.7379536
  93.6302942  17.1849721  16.7582561  95.0358760  14.4912547  18.8748141
  94.0889095  14.3717899  18.8026468  95.3841533  13.6035045  18.9574402
  92.0405193  14.2865264  15.0752493  91.8930155  13.3581971  15.2560063
  92.8658686  14.3085354  14.5909568  95.6439315  15.1093822  16.1617366
  96.5685862  14.9036684  16.0241817  95.4754618  14.8610223  17.0706707
  86.7765929   5.0988814  16.6455355  86.6310509   5.4129118  17.5379636
  86.2991132   5.7173715  16.0926254  95.4334631  15.6279490  11.5179457
  95.6071508  15.0625912  10.7653310  95.9263522  16.4280385  11.3358947
  81.2511591   7.6394159  19.5843016  80.7065059   8.4153967  19.7163290
  82.1290941   7.9864963  19.4262137  82.0377613   6.7664055  22.4773173
  81.2959349   6.9146690  23.0637803  81.7170357   7.0272321  21.6139922
  89.9821275  16.3080033  22.2753563  90.2908402  16.0629180  23.1476263
  90.7796757  16.5126672  21.7872433  90.0041887  18.4617943  14.5058939
  89.5646878  17.9694322  15.1991796  90.7550004  17.9190911  14.2651015
  82.4834226  14.6529484  14.5083568  83.3092246  14.3533256  14.1282211
  82.1328278  13.8837106  14.9573356  87.4515759  14.0055952  16.5781241
  86.8295769  13.3426657  16.2783469  88.1220626  14.0317084  15.8954889
  80.6842831  12.5715810  15.4672501  79.8474740  12.1437985  15.2856502
  80.6566477  12.7648254  16.4043292  98.0095133  13.0278863  25.4514884
  97.2190676  13.0103002  24.9119384  97.7728487  13.5667157  26.2063921
  98.1293008   9.8771330  22.7647613  98.1791013   9.7121337  23.7063136
  98.0206931   9.0098589  22.3745494  99.6311204  12.2968271  23.0089634
  99.3396013  12.6598252  23.8453095  99.0183336  11.5835280  22.8302966
  97.8798393   7.4200886  21.4769692  98.3552514   7.6128532  20.6688544
  96.9563958   7.4760072  21.2313076  90.7810163  10.4386565  26.3268159
  91.7013172  10.6165164  26.5208205  90.7459746   9.4942610  26.1747858
  83.7772235   8.3487599  18.9690940  83.9958245   9.2804707  18.9878974
  84.1898009   7.9895574  19.7545744  88.6500101   3.9220805  28.3593689
  88.5496828   4.8715162  28.2905780  88.4321643   3.5939044  27.4869759
  79.8680588   9.2528070  17.2214555  79.1744059   8.8382023  16.7084509
  80.6153579   9.2948606  16.6247974  88.5131371   7.3517944  27.1758750
  88.0298453   8.1518304  27.3822639  88.5992310   7.3625889  26.2226194
  84.4404708  11.2422479  19.2127184  85.3947962  11.2106421  19.1457116
  84.2417232  10.7813102  20.0277410  85.0304090   9.8123595  21.7797982
  85.8496979  10.3067673  21.8032819  85.3040898   8.8955563  21.7515549
  82.7954937  16.7842098  16.2297382  82.6609405  16.0242499  15.6635380
  82.3786999  17.5082998  15.7626171  85.9524063  17.6811415  16.4415825
  85.8356447  18.6256848  16.3394515  85.1316509  17.3784977  16.8301624
  80.2839005   4.1461729  22.4790179  80.9297868   3.6360683  22.9677404
  80.0756156   4.8830410  23.0533604  92.8092397  11.2142576  27.9782319
  93.6783556  11.3883228  27.6168954  92.3299148  12.0336993  27.8558049
  86.9778577  18.3339677  19.6571753  87.8805824  18.3663287  19.9738248
  86.7515947  17.4040128  19.6718089  88.7332179  17.0870664  16.3181832
  87.7827810  17.0872525  16.2046204  89.0364665  16.3403398  15.8017866
 104.4684873  22.9231202  17.3827594 105.1063283  22.8037949  16.6790934
 104.3505715  23.8712046  17.4415546 101.2774579  22.8758630  17.3189119
 100.9393090  22.7599695  16.4309654 102.1464347  22.4749795  17.2990125
  97.1361395  24.7294107  13.3086010  96.5726260  24.6384044  12.5402297
  97.0213790  23.9094011  13.7888502 101.7594362  24.0293482  23.2775324
 101.7483003  23.6346280  22.4055828 101.9215001  23.2959555  23.8709096
  94.6825826  26.2245298  16.1470230  95.4747118  25.8836123  15.7316529
  94.9222477  26.3340273  17.0672384 102.7160953  28.3965074   8.6200475
 102.0648933  28.9819155   8.2334488 103.5105316  28.9271269   8.6795512
  96.6416580  25.4854211   9.0187609  97.4147456  24.9383199   8.8800485
  96.9941979  26.3498461   9.2302070  98.4801623  26.8130594  22.2254508
  98.1891489  27.7176225  22.1101175  99.1158607  26.8547121  22.9398578
  99.4057830  24.1907442  18.8155868 100.0021402  23.9663465  18.1012831
  99.4632801  23.4492188  19.4181316  98.6979147  23.5474984   8.8530434
  98.5815405  22.8719887   9.5211518  98.8081407  23.0607357   8.0362587
 101.0410688  23.0085131  12.5577123 100.6768895  22.4815752  13.2690045
 101.8977804  22.6183600  12.3843609 106.9459989  14.2979463  19.8208389
 106.6143313  15.1674874  19.5969604 106.3505602  13.9815747  20.5002420
 103.4391508  26.4992009  19.2204302 103.1392231  27.4017048  19.1120109
 103.0942568  26.2324192  20.0725455  96.8903990  22.9505806  15.2541006
  95.9654486  22.8182020  15.4618698  97.1388403  23.7300025  15.7510949
 106.8388652  19.0174549  16.9001739 105.9305529  18.9489958  16.6060500
 106.7876248  19.4946494  17.7283565  94.2512801  22.5939080  16.0884795
  94.3805182  22.8473559  17.0024207  93.5710252  23.1866788  15.7689451
  98.4212288  33.2636330  12.1875270  98.3436318  34.2144155  12.2663750
  97.8173931  32.9182202  12.8450196 100.9129518  20.4364195  24.8436637
 100.1362852  20.9958115  24.8339501 101.5520081  20.9220978  25.3651507
  99.1675890  23.2449648  24.4054604  99.9090574  23.7834692  24.1289427
  98.4612875  23.8715937  24.5626155 104.6431230  25.3878789  23.0026765
 105.0514586  24.9461199  22.2581397 103.9208491  24.8131416  23.2560958
 100.9962300  20.3251396  20.3760322 101.8423495  20.7490809  20.5194971
 100.9360937  19.6685020  21.0698885 104.9660044  25.9479979  16.7579054
 104.3368907  26.1125694  16.0555122 104.5785706  26.3621589  17.5290018
 108.8449276  26.8834417  14.1123418 108.1600314  27.2633319  13.5620451
 108.9293125  27.4929744  14.8455365 104.1461745  17.9855764  22.0341496
 103.9022677  18.7397824  21.4975771 104.4221675  18.3641112  22.8688743
 106.1000208  24.5294376  20.7118761 106.3117103  25.1726136  20.0353142
 106.0529956  23.6956693  20.2440691 103.7026437  17.1412197  17.6155333
 102.8410916  17.4393451  17.9072071 103.7288871  17.3582596  16.6836366
 100.5188006  25.6854388  14.0229139 100.9826352  25.9642091  13.2333762
 100.2544804  24.7837832  13.8402230  97.4112087  25.2325869  16.9608902
  97.9813444  25.6613137  16.3226387  98.0020199  24.9508454  17.6593088
  99.4556892  21.8077540  10.8318704 100.1580936  22.2598584  11.2992631
  99.1237521  21.1661359  11.4598597  97.9037254  20.3989297  25.2069914
  97.2735914  21.0805577  25.4405310  97.7973342  20.2872378  24.2623052
  93.1982226  20.0661093  16.1335838  92.4081280  20.3218621  15.6575948
  93.6893474  20.8809430  16.2387878 107.2146036  27.4066332  18.8841119
 108.0363479  27.0046519  18.6023800 107.2108439  27.3034566  19.8357234
  95.1496972  20.4305672  13.0919314  94.3528135  20.5424366  13.6102810
  94.9222564  20.7692324  12.2260205 100.9802639  26.9550375  21.0401829
 101.0447072  27.4170782  21.8760001 100.2713563  26.3247740  21.1684139
  91.4819929  20.3191583  18.5650829  91.7327968  21.2038593  18.8308404
  92.0179478  20.1396185  17.7925920 100.6950657  28.6218483  10.9080809
 100.5596332  29.4670018  11.3365657 101.2360469  28.8237760  10.1446743
  97.1817996  14.7010062  27.5695165  96.7884942  14.1476261  28.2442809
  97.9984137  15.0120641  27.9601682  94.1480054  26.1393921  11.4808734
  94.6604575  26.9337171  11.6314299  94.8002767  25.4420211  11.4142336
  95.9574939  29.2559677  13.5631488  96.1341567  30.1777642  13.3752472
  96.7531772  28.9418096  13.9925867 100.0985957  16.1167941  25.1615421
 100.8395671  16.7175095  25.0819884 100.3303880  15.3745579  24.6033464
  95.2427295  21.3024309  23.4393651  95.1280811  20.4009566  23.7400750
  94.3871813  21.5488005  23.0878467 102.3219133  29.2442049  25.0381151
 101.8782987  28.4578428  24.7202056 102.9836347  29.4321200  24.3725042
  97.0806254  30.7737851  19.5641830  97.6313679  30.6454914  18.7918824
  96.2417730  31.0732740  19.2136723 104.4200371  29.5244849  23.0662553
 104.4018847  30.3453730  22.5742822 105.3420291  29.3998924  23.2912694
 100.8773425  27.0388978  23.9086061 101.4101762  26.2777267  23.6785369
 100.3487506  26.7462630  24.6510216  92.1128971  24.4682575  12.2568305
  92.9504193  24.8779583  12.0402013  92.2907239  23.5282017  12.2268499
 103.1239661  14.5153700  17.4028936 102.6204456  14.4783835  16.5896741
 103.4170268  15.4246442  17.4625593  99.3682547  14.5992429  16.4095118
 100.2335543  14.4035238  16.0501007  99.4360056  14.3702781  17.3364475
 102.2426138  26.1674971  11.4204873 101.7147500  25.4327730  11.1078111
 101.7413641  26.9449647  11.1744841 107.2218984  24.3623991  16.5371919
 106.5642659  25.0523253  16.6252048 108.0259383  24.7520423  16.8805906
  96.9744866  16.8294637  13.7811485  97.5488618  16.6069819  13.0484678
  97.5615848  16.8983332  14.5340086 103.2946817  32.6952688   7.3436532
 102.6208516  32.9984385   7.9521490 103.6812639  33.4981769   6.9941989
 102.5105274  20.1917820  16.8334202 101.5927835  20.4132767  16.6755890
 102.9265417  20.2664130  15.9745909 106.7986239  27.6974366  12.7155004
 106.3448566  26.8565275  12.7720194 106.1680206  28.3335764  13.0529784
 105.2419178  29.5350862  13.6504822 105.5342153  30.0955919  12.9317188
 105.7517799  29.8279423  14.4057981  92.1355142  21.8073290  12.9279038
  91.9379542  21.2142651  12.2030105  91.5801806  21.5025500  13.6454977
 100.1151866  21.6996397  15.0473632 100.1700476  20.7470233  14.9716108
  99.3043068  21.8555836  15.5314930  98.0544226  20.3173456  12.8064010
  97.2412091  20.6167627  13.2129203  98.5503220  19.9229145  13.5238493
 100.2052804  30.3131213  14.7398275 100.1628982  30.5392060  13.8106807
 101.1215502  30.0794588  14.8884076 103.6518437  20.7815281  21.6378904
 104.0067825  21.0086754  22.4973370 104.2990569  21.1133658  21.0156160
  97.5458300  17.8891812  18.4225245  98.1857680  17.7480571  17.7248209
  96.7135831  17.6026325  18.0463847 109.4085554  25.9710244  17.3539505
 109.8422061  25.8785533  18.2022559 110.1217135  25.9467744  16.7159521
  98.3218604  27.1894242  14.5360238  99.1159203  26.6944562  14.3342813
  97.6110297  26.6612105  14.1727943 103.1413449  29.5712338  18.8872606
 103.1950471  30.1403274  19.6550321 102.2728230  29.7414223  18.5226643
  94.6301368  21.3337324  10.6119991  93.6998956  21.2721780  10.8289953
  94.7258840  20.8113277   9.8156632  94.5486917  17.8592137  13.1998232
  94.8093734  18.7737470  13.0907393  95.3704089  17.3916579  13.3494845
  96.0211842  19.2729894  20.3697057  96.6934896  19.0647256  19.7209706
  95.1941629  19.0751980  19.9302289 110.2701103  26.0133944  19.8872390
 110.4636994  26.9179755  20.1331665 110.1701722  25.5541363  20.7210975
 101.9237414  15.8991835  22.3862718 101.2765329  16.5981785  22.2927194
 102.6938430  16.3327979  22.7538966 105.3316212  26.1640687  25.4613271
 105.1801719  25.9351239  24.5443355 105.3220892  27.1211289  25.4744616
 102.1001549  23.7372600  20.4459537 103.0293609  23.8883760  20.2728505
 101.6792579  23.8256621  19.5908184 100.8989880  27.7623264  18.2158075
 100.7600966  27.3942049  19.0884013 100.1104477  28.2770904  18.0442033
 101.4938032  32.8632361   9.5583612 101.6689788  32.3920404  10.3729234
 100.8070820  33.4898127   9.7864872 102.4495095  27.1404867  15.6046913
 102.1144928  27.1005637  16.5004563 101.9499041  26.4749583  15.1317323
  96.4239339  22.5472497  21.1299494  96.2859137  21.8152736  21.7311033
  97.3344263  22.4581397  20.8483682  99.0521640  22.2592456  20.6183174
  99.7621259  21.6185649  20.5769792  99.0090948  22.5105351  21.5409354
 107.0408419  29.1959810  23.5389753 106.9820965  28.5119030  22.8720336
 107.4427937  29.9378800  23.0870379  97.7650574  19.2457674  22.4378813
  97.2287931  18.7948413  23.0900409  97.1767283  19.3803583  21.6949277
  96.0599118  36.0121724  16.3323472  96.2995716  36.6440248  17.0102490
  95.2168314  35.6609764  16.6188831 107.0425826  27.1599394  21.7703732
 106.1552605  26.8225315  21.8930131 107.6124377  26.4282425  22.0072498
  88.6954973  23.4923485  15.0946784  89.3826013  23.1785215  14.5067799
  88.5403102  24.3964850  14.8214035  93.4989695  18.3813682  19.5231808
  93.4147884  17.7739352  18.7882217  92.6772402  18.8722700  19.5241304
 100.5726979  31.8200846  18.7364976 100.4997151  32.6255817  19.2484280
 100.1304373  32.0192812  17.9112997 100.3616759  31.0572616  12.2467797
  99.5784281  31.5994296  12.3406022 101.0609504  31.5746596  12.6462038
 103.0325663  31.7187680  20.8923134 103.7453635  32.3535145  20.8199036
 102.5415692  31.8151546  20.0763136 104.7543190  25.6238933  12.4640426
 103.8199469  25.7440395  12.2945130 104.9319858  24.7211399  12.2000436
 100.2548378  19.0084628  14.6173687  99.8846165  18.4555669  15.3054593
 100.7507470  18.4042762  14.0648687  98.0837577  29.4682123  21.7128705
  98.7847036  30.1018606  21.8658099  97.6132692  29.8096855  20.9524344
 105.8838862  22.0226731  19.5381255 105.2310313  22.2702638  18.8833708
 106.2619242  21.2090869  19.2043733 102.8446036  32.0586424  13.6409426
 103.0268431  31.2408080  14.1037178 103.6679022  32.2754116  13.2034316
 103.1788202  30.9854609  10.9024474 103.7075968  30.4747064  10.2894636
 103.4416421  30.6697139  11.7670007 101.9326435  22.7646542  26.0247293
 101.2567073  22.6640671  26.6949668 102.7554069  22.6085756  26.4883290
  93.6805295  29.0018479  18.6459808  94.2658731  28.2562166  18.7787712
  93.4830133  29.3122435  19.5296472  96.5343950  32.0369726  13.6622250
  95.8654325  32.5215854  13.1786290  96.3956819  32.2838946  14.5765629
  88.2722949  21.5724079  17.3664251  88.3107049  21.0387669  18.1601369
  87.7663242  21.0459284  16.7475228 100.6749218  34.0713469  20.2604909
 101.2267526  34.2345091  21.0253994 101.0155412  34.6617907  19.5884933
  95.6513712  16.4188619  20.8626793  95.7155038  17.2803450  20.4504191
  95.5880832  15.8062621  20.1299152  95.1265984  18.4911752  24.5099828
  95.7538023  18.1088829  25.1237352  94.2693903  18.2725954  24.8755520
 105.5260093  28.8974727  26.1153563 106.0699997  29.5104685  25.6208518
 104.9446938  29.4554305  26.6320576  91.9031527  20.2988181  10.4418182
  92.1984968  19.3898859  10.3885236  91.0019563  20.2775920  10.1199185
 103.8117606  32.0195445  17.2468591 103.6868745  31.2185185  16.7379536
 104.4696697  32.5141638  16.7582561  95.4325774  18.3744177  16.4245731
  94.7112360  18.9880145  16.2853204  96.2219030  18.9101942  16.3462377
 105.8752514  29.8204465  18.8748141 104.9282850  29.7009816  18.8026468
 106.2235287  28.9326963  18.9574402  98.2352087  15.7098604  22.6986383
  98.7586489  15.9560901  23.4612692  98.0164421  16.5418639  22.2789520
  93.6319368  17.9802279  10.5657508  93.3032075  17.0999657  10.3832613
  93.9858739  17.9249947  11.4533897 102.8798947  29.6157181  15.0752493
 102.7323910  28.6873889  15.2560063 103.7052441  29.6377272  14.5909568
  96.7461192  18.2675248  10.9332985  97.0857264  18.7961170  10.2111594
  97.1933312  18.6055654  11.7091552 106.4833069  30.4385740  16.1617366
 107.4079617  30.2328601  16.0241817 106.3148373  30.1902141  17.0706707
  99.4404632  16.6512299  20.3836053  99.1001453  15.8520112  20.7856733
  98.7343639  16.9514010  19.8112886 100.0921104  13.7361611  18.8363376
 100.9147174  13.2622090  18.7142267 100.3359168  14.5152095  19.3362063
  97.6159683  20.4280732  16.6455355  97.4704264  20.7421035  17.5379636
  97.1384887  21.0465632  16.0926254  99.4756066  17.4183280  16.6936244
  99.4617635  16.5224373  16.3568542 100.1928494  17.4253944  17.3274530
 101.3282197  17.8520620  18.7389372 101.0699974  18.7737691  18.7373702
 100.7967237  17.4551055  19.4289836 106.2728385  30.9571407  11.5179457
 106.4465263  30.3917830  10.7653310 106.7657277  31.7572302  11.3358947
  92.0905345  22.9686077  19.5843016  91.5458813  23.7445885  19.7163290
  92.9684695  23.3156881  19.4262137  92.8771367  22.0955973  22.4773173
  92.1353103  22.2438608  23.0637803  92.5564111  22.3564238  21.6139922
 100.8215030  31.6371951  22.2753563 101.1302156  31.3921098  23.1476263
 101.6190512  31.8418590  21.7872433 100.8435642  33.7909861  14.5058939
 100.4040632  33.2986239  15.1991796 101.5943759  33.2482828  14.2651015
  93.3227981  29.9821402  14.5083568  94.1486001  29.6825173  14.1282211
  92.9722033  29.2129024  14.9573356  98.2909514  29.3347870  16.5781241
  97.6689523  28.6718575  16.2783469  98.9614381  29.3609002  15.8954889
  91.5236586  27.9007728  15.4672501  90.6868494  27.4729902  15.2856502
  91.4960231  28.0940171  16.4043292  98.3634041  17.8129658  26.1713747
  98.4122197  18.6891781  25.7891517  98.9056556  17.2707051  25.5985390
 108.8488887  28.3570781  25.4514884 108.0584431  28.3394920  24.9119384
 108.6122242  28.8959075  26.2063921 108.9686762  25.2063247  22.7647613
 109.0184767  25.0413255  23.7063136 108.8600685  24.3390506  22.3745494
  97.8523021  27.8851793  10.0539702  98.0011141  28.5687257   9.4006374
  98.6589464  27.8656883  10.5689157 106.2590525  21.1894175  24.0806920
 107.1600387  21.0500640  23.7890917 106.3338499  21.3548630  25.0205097
 100.5933330  18.5661030  22.9260106  99.7236639  18.8594596  22.6542694
 100.8292810  19.1501475  23.6467369 110.4704959  27.6260189  23.0089634
 110.1789767  27.9890169  23.8453095 109.8577090  26.9127197  22.8302966
 108.7192147  22.7492804  21.4769692 109.1946269  22.9420450  20.6688544
 107.7957713  22.8051989  21.2313076  95.6075654  23.9116971  11.0600771
  95.3621696  23.0079301  11.2580981  95.7771568  23.9134121  10.1180249
 103.2972364  14.7840647  20.4425526 103.8154308  15.5201674  20.1172015
 102.9427496  15.0904640  21.2772285  94.8771301  19.6445328   8.5586932
  94.1840546  19.7189683   7.9026968  94.6323053  18.8805672   9.0808449
 101.3518426  30.3799924   7.5251449 100.7792393  30.9990111   7.0721921
 101.9251220  30.9299285   8.0591371 107.4193816  19.6258564  19.7097998
 108.3711239  19.7256661  19.7310222 107.2497267  18.8336832  20.2196082
 105.4408196  16.7114147  19.8957399 104.8458128  16.9919160  19.2003887
 105.1557892  17.2008048  20.6674140 109.8981894  22.8464683  18.8240298
 109.8658214  21.9080684  19.0099981 110.5082518  22.9248720  18.0906122
 101.6203917  25.7678482  26.3268159 102.5406927  25.9457081  26.5208205
 101.5853500  24.8234528  26.1747858  90.8386082  20.9617076  15.2521433
  90.5188867  20.1082384  14.9595807  90.2919511  21.1765654  16.0079401
  94.6165990  23.6779517  18.9690940  94.8352000  24.6096625  18.9878974
  95.0291764  23.3187491  19.7545744  99.4893855  19.2512723  28.3593689
  99.3890582  20.2007080  28.2905780  99.2715397  18.9230962  27.4869759
  90.7074342  24.5819988  17.2214555  90.0137814  24.1673940  16.7084509
  91.4547333  24.6240524  16.6247974  99.3525125  22.6809862  27.1758750
  98.8692207  23.4810222  27.3822639  99.4386064  22.6917807  26.2226194
  92.6211085  24.5138241  15.0980570  92.5981773  24.6125929  14.1462453
  92.9311721  25.3603392  15.4197736  95.2798463  26.5714396  19.2127184
  96.2341716  26.5398339  19.1457116  95.0810986  26.1105020  20.0277410
  95.8697845  25.1415512  21.7797982  96.6890734  25.6359591  21.8032819
  96.1434653  24.2247481  21.7515549  93.6348692  32.1134016  16.2297382
  93.5003159  31.3534417  15.6635380  93.2180754  32.8374916  15.7626171
  96.7917817  33.0103333  16.4415825  96.6750202  33.9548765  16.3394515
  95.9710264  32.7076894  16.8301624  91.1232759  19.4753646  22.4790179
  91.7691623  18.9652600  22.9677404  90.9149910  20.2122328  23.0533604
 103.6486151  26.5434494  27.9782319 104.5177311  26.7175146  27.6168954
 103.1692903  27.3628911  27.8558049  97.8172332  33.6631595  19.6571753
  98.7199578  33.6955205  19.9738248  97.5909702  32.7332046  19.6718089
  99.5725934  32.4162581  16.3181832  98.6221565  32.4164443  16.2046204
  99.8758420  31.6695316  15.8017866  95.4630250  16.6221263  26.5765193
  96.3261712  16.2658068  26.7868518  94.8895661  16.2835158  27.2640597
 115.3078627  38.2523120  17.3827594 115.9457037  38.1329867  16.6790934
 115.1899470  39.2003964  17.4415546 112.1168333  38.2050548  17.3189119
 111.7786845  38.0891613  16.4309654 112.9858102  37.8041713  17.2990125
 107.9755149  40.0586024  13.3086010 107.4120014  39.9675961  12.5402297
 107.8607544  39.2385929  13.7888502 112.5988116  39.3585400  23.2775324
 112.5876757  38.9638198  22.4055828 112.7608756  38.6251472  23.8709096
 105.5219581  41.5537216  16.1470230 106.3140873  41.2128040  15.7316529
 105.7616231  41.6632191  17.0672384 113.5554708  43.7256992   8.6200475
 112.9042688  44.3111072   8.2334488 114.3499071  44.2563187   8.6795512
 107.4810335  40.8146129   9.0187609 108.2541211  40.2675116   8.8800485
 107.8335734  41.6790378   9.2302070 109.3195377  42.1422511  22.2254508
 109.0285243  43.0468142  22.1101175 109.9552362  42.1839039  22.9398578
 110.2451584  39.5199360  18.8155868 110.8415157  39.2955382  18.1012831
 110.3026556  38.7784105  19.4181316 109.5372901  38.8766901   8.8530434
 109.4209160  38.2011805   9.5211518 109.6475161  38.3899275   8.0362587
 111.8804442  38.3377048  12.5577123 111.5162650  37.8107669  13.2690045
 112.7371558  37.9475517  12.3843609 117.7853743  29.6271381  19.8208389
 117.4537068  30.4966792  19.5969604 117.1899356  29.3107665  20.5002420
 114.2785263  41.8283927  19.2204302 113.9785986  42.7308966  19.1120109
 113.9336322  41.5616110  20.0725455 107.7297744  38.2797724  15.2541006
 106.8048241  38.1473938  15.4618698 107.9782157  39.0591943  15.7510949
 117.6782406  34.3466467  16.9001739 116.7699284  34.2781875  16.6060500
 117.6270002  34.8238412  17.7283565 105.0906555  37.9230997  16.0884795
 105.2198936  38.1765476  17.0024207 104.4104006  38.5158705  15.7689451
 109.2606042  48.5928247  12.1875270 109.1830072  49.5436072  12.2663750
 108.6567686  48.2474120  12.8450196 111.7523272  35.7656113  24.8436637
 110.9756606  36.3250033  24.8339501 112.3913835  36.2512896  25.3651507
 110.0069644  38.5741566  24.4054604 110.7484329  39.1126610  24.1289427
 109.3006630  39.2007855  24.5626155 115.4824984  40.7170706  23.0026765
 115.8908340  40.2753117  22.2581397 114.7602246  40.1423334  23.2560958
 111.8356054  35.6543313  20.3760322 112.6817249  36.0782727  20.5194971
 111.7754692  34.9976938  21.0698885 115.8053799  41.2771897  16.7579054
 115.1762661  41.4417611  16.0555122 115.4179461  41.6913507  17.5290018
 119.6843031  42.2126335  14.1123418 118.9994069  42.5925236  13.5620451
 119.7686880  42.8221662  14.8455365 114.9855499  33.3147682  22.0341496
 114.7416431  34.0689742  21.4975771 115.2615430  33.6933029  22.8688743
 116.9393962  39.8586294  20.7118761 117.1510857  40.5018054  20.0353142
 116.8923710  39.0248611  20.2440691 114.5420191  32.4704115  17.6155333
 113.6804670  32.7685368  17.9072071 114.5682626  32.6874514  16.6836366
 111.3581761  41.0146305  14.0229139 111.8220106  41.2934008  13.2333762
 111.0938559  40.1129750  13.8402230 108.2505842  40.5617787  16.9608902
 108.8207199  40.9905055  16.3226387 108.8413954  40.2800371  17.6593088
 110.2950647  37.1369458  10.8318704 110.9974690  37.5890501  11.2992631
 109.9631275  36.4953276  11.4598597 108.7431008  35.7281214  25.2069914
 108.1129669  36.4097495  25.4405310 108.6367096  35.6164296  24.2623052
 104.0375981  35.3953010  16.1335838 103.2475035  35.6510539  15.6575948
 104.5287228  36.2101348  16.2387878 118.0539790  42.7358249  18.8841119
 118.8757234  42.3338437  18.6023800 118.0502193  42.6326484  19.8357234
 105.9890726  35.7597589  13.0919314 105.1921889  35.8716284  13.6102810
 105.7616318  36.0984242  12.2260205 111.8196394  42.2842293  21.0401829
 111.8840826  42.7462700  21.8760001 111.1107318  41.6539658  21.1684139
 102.3213684  35.6483501  18.5650829 102.5721722  36.5330511  18.8308404
 102.8573232  35.4688102  17.7925920 111.5344411  43.9510400  10.9080809
 111.3990086  44.7961936  11.3365657 112.0754224  44.1529678  10.1446743
 108.0211751  30.0301980  27.5695165 107.6278696  29.4768179  28.2442809
 108.8377891  30.3412559  27.9601682 104.9873809  41.4685838  11.4808734
 105.4998329  42.2629088  11.6314299 105.6396522  40.7712129  11.4142336
 106.7968693  44.5851595  13.5631488 106.9735322  45.5069559  13.3752472
 107.5925527  44.2710014  13.9925867 110.9379712  31.4459859  25.1615421
 111.6789425  32.0467012  25.0819884 111.1697635  30.7037497  24.6033464
 106.0821050  36.6316226  23.4393651 105.9674565  35.7301484  23.7400750
 105.2265568  36.8779923  23.0878467 113.1612888  44.5733967  25.0381151
 112.7176742  43.7870345  24.7202056 113.8230101  44.7613117  24.3725042
 107.9200009  46.1029768  19.5641830 108.4707434  45.9746832  18.7918824
 107.0811485  46.4024657  19.2136723 115.2594126  44.8536767  23.0662553
 115.2412601  45.6745648  22.5742822 116.1814046  44.7290842  23.2912694
 111.7167180  42.3680896  23.9086061 112.2495517  41.6069184  23.6785369
 111.1881261  42.0754548  24.6510216 102.9522725  39.7974493  12.2568305
 103.7897947  40.2071501  12.0402013 103.1300993  38.8573935  12.2268499
 113.9633415  29.8445617  17.4028936 113.4598211  29.8075752  16.5896741
 114.2564022  30.7538360  17.4625593 110.2076301  29.9284347  16.4095118
 111.0729298  29.7327156  16.0501007 110.2753810  29.6994699  17.3364475
 113.0819893  41.4966889  11.4204873 112.5541254  40.7619648  11.1078111
 112.5807395  42.2741565  11.1744841 118.0612739  39.6915909  16.5371919
 117.4036413  40.3815170  16.6252048 118.8653138  40.0812341  16.8805906
 107.8138620  32.1586555  13.7811485 108.3882372  31.9361736  13.0484678
 108.4009603  32.2275249  14.5340086 114.1340572  48.0244606   7.3436532
 113.4602270  48.3276303   7.9521490 114.5206394  48.8273686   6.9941989
 113.3499028  35.5209737  16.8334202 112.4321590  35.7424684  16.6755890
 113.7659172  35.5956048  15.9745909 117.6379994  43.0266283  12.7155004
 117.1842321  42.1857193  12.7720194 117.0073960  43.6627682  13.0529784
 116.0812933  44.8642780  13.6504822 116.3735907  45.4247837  12.9317188
 116.5911553  45.1571341  14.4057981 102.9748897  37.1365208  12.9279038
 102.7773296  36.5434569  12.2030105 102.4195561  36.8317418  13.6454977
 110.9545620  37.0288314  15.0473632 111.0094230  36.0762151  14.9716108
 110.1436822  37.1847753  15.5314930 108.8937980  35.6465374  12.8064010
 108.0805846  35.9459545  13.2129203 109.3896974  35.2521063  13.5238493
 111.0446558  45.6423131  14.7398275 111.0022737  45.8683977  13.8106807
 111.9609257  45.4086506  14.8884076 114.4912192  36.1107199  21.6378904
 114.8461580  36.3378672  22.4973370 115.1384323  36.4425575  21.0156160
 108.3852055  33.2183730  18.4225245 109.0251434  33.0772489  17.7248209
 107.5529585  32.9318243  18.0463847 120.2479308  41.3002161  17.3539505
 120.6815815  41.2077451  18.2022559 120.9610889  41.2759662  16.7159521
 109.1612359  42.5186160  14.5360238 109.9552957  42.0236480  14.3342813
 108.4504051  41.9904023  14.1727943 113.9807203  44.9004256  18.8872606
 114.0344226  45.4695192  19.6550321 113.1121985  45.0706141  18.5226643
 105.4695122  36.6629242  10.6119991 104.5392710  36.6013697  10.8289953
 105.5652594  36.1405195   9.8156632 105.3880671  33.1884055  13.1998232
 105.6487489  34.1029388  13.0907393 106.2097844  32.7208497  13.3494845
 106.8605597  34.6021812  20.3697057 107.5328650  34.3939174  19.7209706
 106.0335383  34.4043898  19.9302289 121.1094858  41.3425862  19.8872390
 121.3030748  42.2471673  20.1331665 121.0095476  40.8833281  20.7210975
 112.7631169  31.2283753  22.3862718 112.1159084  31.9273702  22.2927194
 113.5332184  31.6619897  22.7538966 116.1709967  41.4932605  25.4613271
 116.0195473  41.2643157  24.5443355 116.1614646  42.4503206  25.4744616
 112.9395303  39.0664518  20.4459537 113.8687363  39.2175677  20.2728505
 112.5186333  39.1548538  19.5908184 111.7383635  43.0915182  18.2158075
 111.5994721  42.7233966  19.0884013 110.9498231  43.6062821  18.0442033
 112.3331787  48.1924278   9.5583612 112.5083542  47.7212322  10.3729234
 111.6464575  48.8190045   9.7864872 113.2888850  42.4696785  15.6046913
 112.9538683  42.4297555  16.5004563 112.7892796  41.8041501  15.1317323
 107.2633094  37.8764415  21.1299494 107.1252892  37.1444654  21.7311033
 108.1738017  37.7873315  20.8483682 109.8915395  37.5884374  20.6183174
 110.6015013  36.9477566  20.5769792 109.8484703  37.8397269  21.5409354
 117.8802173  44.5251727  23.5389753 117.8214719  43.8410948  22.8720336
 118.2821692  45.2670717  23.0870379 108.6044329  34.5749592  22.4378813
 108.0681686  34.1240330  23.0900409 108.0161037  34.7095501  21.6949277
 106.8992872  51.3413641  16.3323472 107.1389470  51.9732165  17.0102490
 106.0562069  50.9901681  16.6188831 117.8819581  42.4891311  21.7703732
 116.9946359  42.1517233  21.8930131 118.4518132  41.7574343  22.0072498
  99.5348728  38.8215403  15.0946784 100.2219768  38.5077133  14.5067799
  99.3796856  39.7256768  14.8214035 104.3383450  33.7105600  19.5231808
 104.2541639  33.1031269  18.7882217 103.5166156  34.2014618  19.5241304
 111.4120734  47.1492764  18.7364976 111.3390905  47.9547735  19.2484280
 110.9698127  47.3484729  17.9112997 111.2010514  46.3864534  12.2467797
 110.4178035  46.9286214  12.3406022 111.9003259  46.9038513  12.6462038
 113.8719417  47.0479598  20.8923134 114.5847390  47.6827063  20.8199036
 113.3809446  47.1443464  20.0763136 115.5936944  40.9530850  12.4640426
 114.6593223  41.0732313  12.2945130 115.7713613  40.0503317  12.2000436
 111.0942132  34.3376546  14.6173687 110.7239920  33.7847587  15.3054593
 111.5901225  33.7334680  14.0648687 108.9231331  44.7974041  21.7128705
 109.6240790  45.4310524  21.8658099 108.4526446  45.1388773  20.9524344
 116.7232617  37.3518649  19.5381255 116.0704067  37.5994556  18.8833708
 117.1012997  36.5382787  19.2043733 113.6839791  47.3878342  13.6409426
 113.8662185  46.5699998  14.1037178 114.5072777  47.6046034  13.2034316
 114.0181956  46.3146527  10.9024474 114.5469723  45.8038982  10.2894636
 114.2810176  45.9989057  11.7670007 112.7720190  38.0938460  26.0247293
 112.0960827  37.9932589  26.6949668 113.5947824  37.9377673  26.4883290
 104.5199049  44.3310396  18.6459808 105.1052486  43.5854084  18.7787712
 104.3223888  44.6414353  19.5296472 107.3737704  47.3661644  13.6622250
 106.7048080  47.8507771  13.1786290 107.2350574  47.6130864  14.5765629
  99.1116704  36.9015996  17.3664251  99.1500803  36.3679587  18.1601369
  98.6056997  36.3751202  16.7475228 111.5142973  49.4005387  20.2604909
 112.0661281  49.5637009  21.0253994 111.8549166  49.9909825  19.5884933
 106.4907466  31.7480537  20.8626793 106.5548793  32.6095368  20.4504191
 106.4274586  31.1354539  20.1299152 105.9659739  33.8203669  24.5099828
 106.5931777  33.4380747  25.1237352 105.1087657  33.6017871  24.8755520
 116.3653847  44.2266645  26.1153563 116.9093751  44.8396603  25.6208518
 115.7840692  44.7846223  26.6320576 102.7425281  35.6280099  10.4418182
 103.0378722  34.7190777  10.3885236 101.8413317  35.6067838  10.1199185
 114.6511360  47.3487363  17.2468591 114.5262500  46.5477102  16.7379536
 115.3090451  47.8433556  16.7582561 106.2719528  33.7036095  16.4245731
 105.5506114  34.3172063  16.2853204 107.0612784  34.2393860  16.3462377
 116.7146269  45.1496383  18.8748141 115.7676604  45.0301734  18.8026468
 117.0629042  44.2618881  18.9574402 109.0745842  31.0390522  22.6986383
 109.5980244  31.2852818  23.4612692 108.8558175  31.8710556  22.2789520
 104.4713123  33.3094196  10.5657508 104.1425829  32.4291575  10.3832613
 104.8252494  33.2541865  11.4533897 113.7192702  44.9449099  15.0752493
 113.5717664  44.0165806  15.2560063 114.5446195  44.9669190  14.5909568
 107.5854946  33.5967166  10.9332985 107.9251019  34.1253087  10.2111594
 108.0327067  33.9347572  11.7091552 117.3226824  45.7677658  16.1617366
 118.2473371  45.5620519  16.0241817 117.1542127  45.5194059  17.0706707
 110.2798387  31.9804217  20.3836053 109.9395207  31.1812030  20.7856733
 109.5737393  32.2805928  19.8112886 110.9314859  29.0653529  18.8363376
 111.7540928  28.5914007  18.7142267 111.1752922  29.8444013  19.3362063
 108.4553438  35.7572650  16.6455355 108.3098018  36.0712953  17.5379636
 107.9778641  36.3757550  16.0926254 110.3149820  32.7475198  16.6936244
 110.3011389  31.8516291  16.3568542 111.0322249  32.7545862  17.3274530
 112.1675951  33.1812538  18.7389372 111.9093729  34.1029609  18.7373702
 111.6360991  32.7842973  19.4289836 117.1122140  46.2863325  11.5179457
 117.2859017  45.7209748  10.7653310 117.6051031  47.0864220  11.3358947
 102.9299100  38.2977994  19.5843016 102.3852568  39.0737802  19.7163290
 103.8078450  38.6448799  19.4262137 103.7165122  37.4247890  22.4773173
 102.9746858  37.5730526  23.0637803 103.3957866  37.6856156  21.6139922
 111.6608784  46.9663869  22.2753563 111.9695911  46.7213015  23.1476263
 112.4584266  47.1710507  21.7872433 111.6829396  49.1201778  14.5058939
 111.2434387  48.6278157  15.1991796 112.4337513  48.5774746  14.2651015
 104.1621735  45.3113319  14.5083568 104.9879755  45.0117091  14.1282211
 103.8115787  44.5420942  14.9573356 109.1303268  44.6639787  16.5781241
 108.5083278  44.0010492  16.2783469 109.8008135  44.6900919  15.8954889
 102.3630340  43.2299646  15.4672501 101.5262249  42.8021820  15.2856502
 102.3353986  43.4232089  16.4043292 109.2027796  33.1421575  26.1713747
 109.2515951  34.0183698  25.7891517 109.7450310  32.5998969  25.5985390
 119.6882642  43.6862699  25.4514884 118.8978185  43.6686838  24.9119384
 119.4515996  44.2250992  26.2063921 119.8080517  40.5355165  22.7647613
 119.8578522  40.3705173  23.7063136 119.6994440  39.6682424  22.3745494
 108.6916775  43.2143711  10.0539702 108.8404896  43.8979175   9.4006374
 109.4983219  43.1948801  10.5689157 117.0984279  36.5186093  24.0806920
 117.9994142  36.3792558  23.7890917 117.1732254  36.6840548  25.0205097
 111.4327084  33.8952948  22.9260106 110.5630394  34.1886514  22.6542694
 111.6686565  34.4793393  23.6467369 121.3098713  42.9552107  23.0089634
 121.0183522  43.3182087  23.8453095 120.6970845  42.2419115  22.8302966
 119.5585902  38.0784721  21.4769692 120.0340023  38.2712368  20.6688544
 118.6351467  38.1343907  21.2313076 106.4469408  39.2408888  11.0600771
 106.2015450  38.3371218  11.2580981 106.6165323  39.2426039  10.1180249
 114.1366118  30.1132565  20.4425526 114.6548062  30.8493592  20.1172015
 113.7821251  30.4196558  21.2772285 105.7165056  34.9737246   8.5586932
 105.0234301  35.0481601   7.9026968 105.4716808  34.2097590   9.0808449
 112.1912181  45.7091841   7.5251449 111.6186148  46.3282028   7.0721921
 112.7644974  46.2591203   8.0591371 118.2587571  34.9550481  19.7097998
 119.2104994  35.0548579  19.7310222 118.0891021  34.1628750  20.2196082
 116.2801950  32.0406065  19.8957399 115.6851882  32.3211077  19.2003887
 115.9951647  32.5299965  20.6674140 120.7375648  38.1756601  18.8240298
 120.7051969  37.2372602  19.0099981 121.3476272  38.2540638  18.0906122
 112.4597672  41.0970400  26.3268159 113.3800681  41.2748999  26.5208205
 112.4247255  40.1526445  26.1747858 101.6779837  36.2908994  15.2521433
 101.3582621  35.4374302  14.9595807 101.1313265  36.5057572  16.0079401
 105.4559744  39.0071435  18.9690940 105.6745754  39.9388543  18.9878974
 105.8685518  38.6479409  19.7545744 110.3287610  34.5804641  28.3593689
 110.2284337  35.5298997  28.2905780 110.1109152  34.2522879  27.4869759
 101.5468097  39.9111905  17.2214555 100.8531568  39.4965858  16.7084509
 102.2941088  39.9532442  16.6247974 110.1918880  38.0101779  27.1758750
 109.7085961  38.8102139  27.3822639 110.2779819  38.0209724  26.2226194
 103.4604839  39.8430159  15.0980570 103.4375527  39.9417846  14.1462453
 103.7705476  40.6895310  15.4197736 106.1192217  41.9006314  19.2127184
 107.0735471  41.8690256  19.1457116 105.9204741  41.4396938  20.0277410
 106.7091599  40.4707430  21.7797982 107.5284488  40.9651509  21.8032819
 106.9828407  39.5539398  21.7515549 104.4742446  47.4425934  16.2297382
 104.3396914  46.6826334  15.6635380 104.0574508  48.1666833  15.7626171
 107.6311572  48.3395251  16.4415825 107.5143956  49.2840683  16.3394515
 106.8104018  48.0368812  16.8301624 101.9626514  34.8045564  22.4790179
 102.6085377  34.2944518  22.9677404 101.7543665  35.5414246  23.0533604
 114.4879906  41.8726411  27.9782319 115.3571065  42.0467064  27.6168954
 114.0086657  42.6920828  27.8558049 108.6566086  48.9923512  19.6571753
 109.5593333  49.0247123  19.9738248 108.4303456  48.0623963  19.6718089
 110.4119688  47.7454499  16.3181832 109.4615319  47.7456361  16.2046204
 110.7152174  46.9987234  15.8017866 106.3024005  31.9513181  26.5765193
 107.1655466  31.5949986  26.7868518 105.7289415  31.6127076  27.2640597
 126.1472382  53.5815037  17.3827594 126.7850792  53.4621785  16.6790934
 126.0293224  54.5295881  17.4415546 122.9562088  53.5342466  17.3189119
 122.6180599  53.4183530  16.4309654 123.8251856  53.1333631  17.2990125
 118.8148904  55.3877942  13.3086010 118.2513769  55.2967879  12.5402297
 118.7001299  54.5677846  13.7888502 123.4381871  54.6877317  23.2775324
 123.4270512  54.2930116  22.4055828 123.6002510  53.9543390  23.8709096
 116.3613335  56.8829134  16.1470230 117.1534627  56.5419958  15.7316529
 116.6009986  56.9924109  17.0672384 124.3948462  59.0548910   8.6200475
 123.7436442  59.6402990   8.2334488 125.1892825  59.5855105   8.6795512
 118.3204089  56.1438047   9.0187609 119.0934965  55.5967034   8.8800485
 118.6729488  57.0082296   9.2302070 120.1589132  57.4714429  22.2254508
 119.8678998  58.3760060  22.1101175 120.7946116  57.5130957  22.9398578
 121.0845339  54.8491278  18.8155868 121.6808911  54.6247300  18.1012831
 121.1420310  54.1076023  19.4181316 120.3766656  54.2058819   8.8530434
 120.2602914  53.5303722   9.5211518 120.4868916  53.7191193   8.0362587
 122.7198197  53.6668966  12.5577123 122.3556404  53.1399587  13.2690045
 123.5765313  53.2767435  12.3843609 128.6247498  44.9563299  19.8208389
 128.2930822  45.8258710  19.5969604 128.0293111  44.6399583  20.5002420
 125.1179017  57.1575845  19.2204302 124.8179740  58.0600883  19.1120109
 124.7730077  56.8908028  20.0725455 118.5691499  53.6089641  15.2541006
 117.6441995  53.4765856  15.4618698 118.8175912  54.3883861  15.7510949
 128.5176161  49.6758385  16.9001739 127.6093038  49.6073793  16.6060500
 128.4663757  50.1530330  17.7283565 115.9300310  53.2522915  16.0884795
 116.0592691  53.5057394  17.0024207 115.2497761  53.8450623  15.7689451
 120.0999797  63.9220165  12.1875270 120.0223827  64.8727990  12.2663750
 119.4961440  63.5766037  12.8450196 122.5917027  51.0948030  24.8436637
 121.8150361  51.6541950  24.8339501 123.2307590  51.5804813  25.3651507
 120.8463399  53.9033484  24.4054604 121.5878083  54.4418528  24.1289427
 120.1400384  54.5299772  24.5626155 126.3218739  56.0462624  23.0026765
 126.7302095  55.6045035  22.2581397 125.5996000  55.4715252  23.2560958
 122.6749809  50.9835231  20.3760322 123.5211004  51.4074644  20.5194971
 122.6148446  50.3268855  21.0698885 126.6447553  56.6063815  16.7579054
 126.0156416  56.7709529  16.0555122 126.2573215  57.0205424  17.5290018
 130.5236785  57.5418253  14.1123418 129.8387823  57.9217154  13.5620451
 130.6080634  58.1513579  14.8455365 125.8249254  48.6439599  22.0341496
 125.5810186  49.3981660  21.4975771 126.1009184  49.0224947  22.8688743
 127.7787717  55.1878212  20.7118761 127.9904612  55.8309972  20.0353142
 127.7317465  54.3540528  20.2440691 125.3813946  47.7996032  17.6155333
 124.5198425  48.0977286  17.9072071 125.4076380  48.0166431  16.6836366
 122.1975515  56.3438223  14.0229139 122.6613861  56.6225926  13.2333762
 121.9332313  55.4421667  13.8402230 119.0899596  55.8909704  16.9608902
 119.6600953  56.3196973  16.3226387 119.6807708  55.6092289  17.6593088
 121.1344401  52.4661375  10.8318704 121.8368444  52.9182419  11.2992631
 120.8025030  51.8245194  11.4598597 119.5824763  51.0573132  25.2069914
 118.9523423  51.7389413  25.4405310 119.4760851  50.9456213  24.2623052
 114.8769735  50.7244928  16.1335838 114.0868789  50.9802456  15.6575948
 115.3680982  51.5393266  16.2387878 128.8933545  58.0650167  18.8841119
 129.7150988  57.6630354  18.6023800 128.8895948  57.9618401  19.8357234
 116.8284480  51.0889507  13.0919314 116.0315644  51.2008201  13.6102810
 116.6010073  51.4276159  12.2260205 122.6590148  57.6134210  21.0401829
 122.7234581  58.0754618  21.8760001 121.9501072  56.9831575  21.1684139
 113.1607438  50.9775418  18.5650829 113.4115477  51.8622428  18.8308404
 113.6966986  50.7980020  17.7925920 122.3738166  59.2802318  10.9080809
 122.2383841  60.1253854  11.3365657 122.9147978  59.4821596  10.1446743
 118.8605505  45.3593898  27.5695165 118.4672451  44.8060096  28.2442809
 119.6771646  45.6704476  27.9601682 115.8267563  56.7977756  11.4808734
 116.3392084  57.5921006  11.6314299 116.4790276  56.1004046  11.4142336
 117.6362448  59.9143512  13.5631488 117.8129076  60.8361477  13.3752472
 118.4319281  59.6001931  13.9925867 121.7773466  46.7751777  25.1615421
 122.5183180  47.3758930  25.0819884 122.0091389  46.0329415  24.6033464
 116.9214804  51.9608144  23.4393651 116.8068320  51.0593401  23.7400750
 116.0659322  52.2071841  23.0878467 124.0006642  59.9025884  25.0381151
 123.5570496  59.1162263  24.7202056 124.6623856  60.0905035  24.3725042
 118.7593763  61.4321686  19.5641830 119.3101188  61.3038749  18.7918824
 117.9205239  61.7316575  19.2136723 126.0987880  60.1828684  23.0662553
 126.0806356  61.0037565  22.5742822 127.0207800  60.0582760  23.2912694
 122.5560934  57.6972814  23.9086061 123.0889271  56.9361102  23.6785369
 122.0275015  57.4046466  24.6510216 113.7916480  55.1266410  12.2568305
 114.6291702  55.5363419  12.0402013 113.9694748  54.1865852  12.2268499
 124.8027170  45.1737535  17.4028936 124.2991965  45.1367670  16.5896741
 125.0957777  46.0830278  17.4625593 121.0470056  45.2576265  16.4095118
 121.9123052  45.0619073  16.0501007 121.1147565  45.0286616  17.3364475
 123.9213647  56.8258806  11.4204873 123.3935009  56.0911566  11.1078111
 123.4201150  57.6033483  11.1744841 128.9006493  55.0207827  16.5371919
 128.2430168  55.7107088  16.6252048 129.7046892  55.4104259  16.8805906
 118.6532375  47.4878473  13.7811485 119.2276127  47.2653654  13.0484678
 119.2403357  47.5567167  14.5340086 124.9734326  63.3536524   7.3436532
 124.2996025  63.6568220   7.9521490 125.3600148  64.1565604   6.9941989
 124.1892783  50.8501655  16.8334202 123.2715344  51.0716602  16.6755890
 124.6052926  50.9247965  15.9745909 128.4773748  58.3558201  12.7155004
 128.0236075  57.5149111  12.7720194 127.8467715  58.9919599  13.0529784
 126.9206687  60.1934698  13.6504822 127.2129662  60.7539755  12.9317188
 127.4305308  60.4863259  14.4057981 113.8142651  52.4657126  12.9279038
 113.6167051  51.8726486  12.2030105 113.2589315  52.1609336  13.6454977
 121.7939375  52.3580232  15.0473632 121.8487985  51.4054068  14.9716108
 120.9830577  52.5139671  15.5314930 119.7331735  50.9757292  12.8064010
 118.9199600  51.2751462  13.2129203 120.2290729  50.5812981  13.5238493
 121.8840313  60.9715049  14.7398275 121.8416491  61.1975895  13.8106807
 122.8003011  60.7378423  14.8884076 125.3305946  51.4399116  21.6378904
 125.6855334  51.6670589  22.4973370 125.9778078  51.7717493  21.0156160
 119.2245809  48.5475647  18.4225245 119.8645189  48.4064406  17.7248209
 118.3923340  48.2610161  18.0463847 131.0873063  56.6294079  17.3539505
 131.5209570  56.5369368  18.2022559 131.8004644  56.6051580  16.7159521
 120.0006113  57.8478078  14.5360238 120.7946712  57.3528398  14.3342813
 119.2897806  57.3195941  14.1727943 124.8200958  60.2296173  18.8872606
 124.8737980  60.7987110  19.6550321 123.9515739  60.3998058  18.5226643
 116.3088877  51.9921159  10.6119991 115.3786465  51.9305615  10.8289953
 116.4046349  51.4697112   9.8156632 116.2274426  48.5175972  13.1998232
 116.4881243  49.4321306  13.0907393 117.0491598  48.0500415  13.3494845
 117.6999351  49.9313729  20.3697057 118.3722405  49.7231092  19.7209706
 116.8729138  49.7335815  19.9302289 131.9488612  56.6717780  19.8872390
 132.1424503  57.5763590  20.1331665 131.8489231  56.2125199  20.7210975
 123.6024923  46.5575670  22.3862718 122.9552838  47.2565620  22.2927194
 124.3725939  46.9911814  22.7538966 127.0103721  56.8224523  25.4613271
 126.8589228  56.5935074  24.5443355 127.0008401  57.7795124  25.4744616
 123.7789058  54.3956435  20.4459537 124.7081118  54.5467595  20.2728505
 123.3580088  54.4840456  19.5908184 122.5777389  58.4207100  18.2158075
 122.4388475  58.0525884  19.0884013 121.7891986  58.9354739  18.0442033
 123.1725541  63.5216196   9.5583612 123.3477297  63.0504239  10.3729234
 122.4858329  64.1481962   9.7864872 124.1282604  57.7988702  15.6046913
 123.7932437  57.7589472  16.5004563 123.6286550  57.1333418  15.1317323
 118.1026848  53.2056332  21.1299494 117.9646646  52.4736571  21.7311033
 119.0131772  53.1165233  20.8483682 120.7309149  52.9176292  20.6183174
 121.4408768  52.2769484  20.5769792 120.6878457  53.1689187  21.5409354
 128.7195928  59.8543645  23.5389753 128.6608474  59.1702865  22.8720336
 129.1215446  60.5962635  23.0870379 119.4438083  49.9041510  22.4378813
 118.9075440  49.4532248  23.0900409 118.8554792  50.0387418  21.6949277
 117.7386627  66.6705559  16.3323472 117.9783225  67.3024083  17.0102490
 116.8955823  66.3193599  16.6188831 128.7213335  57.8183229  21.7703732
 127.8340114  57.4809151  21.8930131 129.2911886  57.0866260  22.0072498
 110.3742482  54.1507321  15.0946784 111.0613522  53.8369051  14.5067799
 110.2190611  55.0548685  14.8214035 115.1777204  49.0397517  19.5231808
 115.0935393  48.4323187  18.7882217 114.3559911  49.5306536  19.5241304
 122.2514488  62.4784681  18.7364976 122.1784660  63.2839653  19.2484280
 121.8091882  62.6776647  17.9112997 122.0404268  61.7156451  12.2467797
 121.2571790  62.2578132  12.3406022 122.7397013  62.2330431  12.6462038
 124.7113172  62.3771515  20.8923134 125.4241144  63.0118980  20.8199036
 124.2203201  62.4735381  20.0763136 126.4330699  56.2822768  12.4640426
 125.4986978  56.4024231  12.2945130 126.6107367  55.3795235  12.2000436
 121.9335887  49.6668464  14.6173687 121.5633674  49.1139504  15.3054593
 122.4294979  49.0626597  14.0648687 119.7625085  60.1265959  21.7128705
 120.4634545  60.7602442  21.8658099 119.2920200  60.4680690  20.9524344
 127.5626371  52.6810566  19.5381255 126.9097822  52.9286474  18.8833708
 127.9406751  51.8674704  19.2043733 124.5233545  62.7170259  13.6409426
 124.7055940  61.8991915  14.1037178 125.3466531  62.9337952  13.2034316
 124.8575711  61.6438445  10.9024474 125.3863477  61.1330899  10.2894636
 125.1203930  61.3280975  11.7670007 123.6113944  53.4230377  26.0247293
 122.9354581  53.3224507  26.6949668 124.4341578  53.2669591  26.4883290
 115.3592804  59.6602314  18.6459808 115.9446240  58.9146002  18.7787712
 115.1617642  59.9706271  19.5296472 118.2131459  62.6953561  13.6622250
 117.5441834  63.1799689  13.1786290 118.0744328  62.9422782  14.5765629
 109.9510458  52.2307914  17.3664251 109.9894558  51.6971505  18.1601369
 109.4450751  51.7043120  16.7475228 122.3536727  64.7297305  20.2604909
 122.9055035  64.8928926  21.0253994 122.6942921  65.3201743  19.5884933
 117.3301221  47.0772455  20.8626793 117.3942547  47.9387286  20.4504191
 117.2668341  46.4646456  20.1299152 116.8053493  49.1495587  24.5099828
 117.4325532  48.7672664  25.1237352 115.9481412  48.9309789  24.8755520
 127.2047602  59.5558562  26.1153563 127.7487506  60.1688521  25.6208518
 126.6234447  60.1138141  26.6320576 113.5819036  50.9572016  10.4418182
 113.8772477  50.0482695  10.3885236 112.6807072  50.9359756  10.1199185
 125.4905115  62.6779280  17.2468591 125.3656254  61.8769020  16.7379536
 126.1484206  63.1725474  16.7582561 117.1113283  49.0328013  16.4245731
 116.3899869  49.6463981  16.2853204 117.9006539  49.5685778  16.3462377
 127.5540023  60.4788300  18.8748141 126.6070359  60.3593652  18.8026468
 127.9022796  59.5910798  18.9574402 119.9139596  46.3682439  22.6986383
 120.4373998  46.6144736  23.4612692 119.6951930  47.2002474  22.2789520
 115.3106877  48.6386114  10.5657508 114.9819584  47.7583493  10.3832613
 115.6646248  48.5833783  11.4533897 124.5586456  60.2741017  15.0752493
 124.4111419  59.3457724  15.2560063 125.3839950  60.2961107  14.5909568
 118.4248701  48.9259084  10.9332985 118.7644773  49.4545005  10.2111594
 118.8720821  49.2639490  11.7091552 128.1620578  61.0969575  16.1617366
 129.0867126  60.8912437  16.0241817 127.9935882  60.8485977  17.0706707
 121.1192141  47.3096134  20.3836053 120.7788962  46.5103948  20.7856733
 120.4131148  47.6097845  19.8112886 121.7708613  44.3945447  18.8363376
 122.5934683  43.9205925  18.7142267 122.0146677  45.1735931  19.3362063
 119.2947192  51.0864568  16.6455355 119.1491773  51.4004871  17.5379636
 118.8172396  51.7049468  16.0926254 121.1543575  48.0767115  16.6936244
 121.1405144  47.1808209  16.3568542 121.8716003  48.0837779  17.3274530
 123.0069706  48.5104456  18.7389372 122.7487483  49.4321526  18.7373702
 122.4754746  48.1134890  19.4289836 127.9515894  61.6155243  11.5179457
 128.1252772  61.0501665  10.7653310 128.4444786  62.4156138  11.3358947
 113.7692854  53.6269912  19.5843016 113.2246322  54.4029720  19.7163290
 114.6472204  53.9740716  19.4262137 114.5558876  52.7539808  22.4773173
 113.8140612  52.9022444  23.0637803 114.2351620  53.0148074  21.6139922
 122.5002539  62.2955786  22.2753563 122.8089665  62.0504933  23.1476263
 123.2978021  62.5002425  21.7872433 122.5223151  64.4493696  14.5058939
 122.0828141  63.9570075  15.1991796 123.2731268  63.9066664  14.2651015
 115.0015490  60.6405237  14.5083568 115.8273510  60.3409009  14.1282211
 114.6509542  59.8712859  14.9573356 119.9697023  59.9931705  16.5781241
 119.3477032  59.3302410  16.2783469 120.6401890  60.0192837  15.8954889
 113.2024095  58.5591563  15.4672501 112.3656003  58.1313738  15.2856502
 113.1747740  58.7524007  16.4043292 120.0421550  48.4713493  26.1713747
 120.0909706  49.3475616  25.7891517 120.5844065  47.9290886  25.5985390
 130.5276396  59.0154616  25.4514884 129.7371940  58.9978755  24.9119384
 130.2909751  59.5542910  26.2063921 130.6474271  55.8647083  22.7647613
 130.6972276  55.6997090  23.7063136 130.5388194  54.9974342  22.3745494
 119.5310530  58.5435628  10.0539702 119.6798650  59.2271093   9.4006374
 120.3376973  58.5240719  10.5689157 127.9378033  51.8478011  24.0806920
 128.8387896  51.7084476  23.7890917 128.0126008  52.0132466  25.0205097
 122.2720839  49.2244866  22.9260106 121.4024148  49.5178432  22.6542694
 122.5080319  49.8085311  23.6467369 132.1492468  58.2844024  23.0089634
 131.8577276  58.6474005  23.8453095 131.5364599  57.5711033  22.8302966
 130.3979656  53.4076639  21.4769692 130.8733778  53.6004285  20.6688544
 129.4745222  53.4635825  21.2313076 117.2863163  54.5700806  11.0600771
 117.0409205  53.6663136  11.2580981 117.4559077  54.5717957  10.1180249
 124.9759873  45.4424482  20.4425526 125.4941817  46.1785509  20.1172015
 124.6215005  45.7488476  21.2772285 116.5558810  50.3029164   8.5586932
 115.8628055  50.3773519   7.9026968 116.3110562  49.5389507   9.0808449
 123.0305935  61.0383759   7.5251449 122.4579902  61.6573946   7.0721921
 123.6038729  61.5883121   8.0591371 129.0981325  50.2842399  19.7097998
 130.0498748  50.3840497  19.7310222 128.9284776  49.4920668  20.2196082
 127.1195705  47.3697982  19.8957399 126.5245637  47.6502995  19.2003887
 126.8345401  47.8591883  20.6674140 131.5769403  53.5048519  18.8240298
 131.5445723  52.5664519  19.0099981 132.1870027  53.5832555  18.0906122
 123.2991426  56.4262318  26.3268159 124.2194436  56.6040917  26.5208205
 123.2641009  55.4818363  26.1747858 112.5173591  51.6200911  15.2521433
 112.1976376  50.7666220  14.9595807 111.9707020  51.8349490  16.0079401
 116.2953499  54.3363352  18.9690940 116.5139509  55.2680460  18.9878974
 116.7079273  53.9771327  19.7545744 121.1681364  49.9096558  28.3593689
 121.0678091  50.8590915  28.2905780 120.9502906  49.5814797  27.4869759
 112.3861851  55.2403823  17.2214555 111.6925323  54.8257776  16.7084509
 113.1334842  55.2824359  16.6247974 121.0312634  53.3393697  27.1758750
 120.5479716  54.1394057  27.3822639 121.1173573  53.3501642  26.2226194
 114.2998594  55.1722077  15.0980570 114.2769282  55.2709764  14.1462453
 114.6099230  56.0187228  15.4197736 116.9585972  57.2298232  19.2127184
 117.9129225  57.1982174  19.1457116 116.7598495  56.7688855  20.0277410
 117.5485354  55.7999348  21.7797982 118.3678243  56.2943426  21.8032819
 117.8222162  54.8831316  21.7515549 115.3136201  62.7717851  16.2297382
 115.1790668  62.0118252  15.6635380 114.8968263  63.4958751  15.7626171
 118.4705326  63.6687168  16.4415825 118.3537711  64.6132601  16.3394515
 117.6497773  63.3660730  16.8301624 112.8020268  50.1337482  22.4790179
 113.4479132  49.6236436  22.9677404 112.5937419  50.8706163  23.0533604
 125.3273660  57.2018329  27.9782319 126.1964820  57.3758981  27.6168954
 124.8480412  58.0212746  27.8558049 119.4959841  64.3215430  19.6571753
 120.3987087  64.3539040  19.9738248 119.2697211  63.3915881  19.6718089
 121.2513443  63.0746417  16.3181832 120.3009074  63.0748278  16.2046204
 121.5545929  62.3279151  15.8017866 117.1417759  47.2805099  26.5765193
 118.0049221  46.9241904  26.7868518 116.5683170  46.9418994  27.2640597
 133.7955842  68.8634383  17.3189119 133.4574354  68.7475448  16.4309654
 134.6645611  68.4625548  17.2990125 129.6542658  70.7169860  13.3086010
 129.0907523  70.6259797  12.5402297 129.5395053  69.8969764  13.7888502
 134.2775625  70.0169235  23.2775324 134.2664266  69.6222033  22.4055828
 134.4396265  69.2835308  23.8709096 127.2007090  72.2121051  16.1470230
 127.9928382  71.8711876  15.7316529 127.4403740  72.3216026  17.0672384
 130.9982886  72.8006347  22.2254508 130.7072752  73.7051978  22.1101175
 131.6339871  72.8422874  22.9398578 131.9239093  70.1783195  18.8155868
 132.5202666  69.9539218  18.1012831 131.9814065  69.4367941  19.4181316
 133.5591951  68.9960884  12.5577123 133.1950159  68.4691505  13.2690045
 134.4159067  68.6059353  12.3843609 135.9572772  72.4867762  19.2204302
 135.6573495  73.3892801  19.1120109 135.6123831  72.2199945  20.0725455
 129.4085253  68.9381559  15.2541006 128.4835750  68.8057773  15.4618698
 129.6569666  69.7175778  15.7510949 126.7694064  68.5814833  16.0884795
 126.8986445  68.8349312  17.0024207 126.0891515  69.1742541  15.7689451
 133.4310781  66.4239948  24.8436637 132.6544115  66.9833868  24.8339501
 134.0701344  66.9096731  25.3651507 131.6857153  69.2325401  24.4054604
 132.4271838  69.7710445  24.1289427 130.9794139  69.8591690  24.5626155
 137.1612493  71.3754542  23.0026765 137.5695849  70.9336952  22.2581397
 136.4389755  70.8007169  23.2560958 133.5143563  66.3127149  20.3760322
 134.3604758  66.7366562  20.5194971 133.4542201  65.6560773  21.0698885
 137.4841308  71.9355732  16.7579054 136.8550170  72.1001447  16.0555122
 137.0966970  72.3497342  17.5290018 136.6643008  63.9731517  22.0341496
 136.4203940  64.7273577  21.4975771 136.9402939  64.3516865  22.8688743
 136.2207700  63.1287950  17.6155333 135.3592179  63.4269204  17.9072071
 136.2470135  63.3458349  16.6836366 133.0369270  71.6730141  14.0229139
 133.5007615  71.9517844  13.2333762 132.7726068  70.7713585  13.8402230
 129.9293351  71.2201622  16.9608902 130.4994708  71.6488890  16.3226387
 130.5201462  70.9384207  17.6593088 131.9738156  67.7953293  10.8318704
 132.6762199  68.2474337  11.2992631 131.6418784  67.1537112  11.4598597
 130.4218517  66.3865050  25.2069914 129.7917178  67.0681330  25.4405310
 130.3154605  66.2748131  24.2623052 125.7163490  66.0536846  16.1335838
 124.9262544  66.3094374  15.6575948 126.2074737  66.8685183  16.2387878
 127.6678235  66.4181425  13.0919314 126.8709398  66.5300119  13.6102810
 127.4403827  66.7568077  12.2260205 133.4983903  72.9426128  21.0401829
 133.5628335  73.4046535  21.8760001 132.7894826  72.3123493  21.1684139
 124.0001193  66.3067336  18.5650829 124.2509231  67.1914346  18.8308404
 124.5360741  66.1271938  17.7925920 129.6999260  60.6885815  27.5695165
 129.3066205  60.1352014  28.2442809 130.5165400  60.9996394  27.9601682
 126.6661318  72.1269674  11.4808734 127.1785838  72.9212924  11.6314299
 127.3184030  71.4295964  11.4142336 132.6167221  62.1043694  25.1615421
 133.3576934  62.7050848  25.0819884 132.8485144  61.3621332  24.6033464
 127.7608559  67.2900062  23.4393651 127.6462074  66.3885319  23.7400750
 126.9053077  67.5363759  23.0878467 134.8400397  75.2317802  25.0381151
 134.3964251  74.4454181  24.7202056 135.5017610  75.4196953  24.3725042
 129.5987518  76.7613604  19.5641830 130.1494943  76.6330667  18.7918824
 128.7598994  77.0608493  19.2136723 133.3954689  73.0264731  23.9086061
 133.9283026  72.2653020  23.6785369 132.8668770  72.7338383  24.6510216
 124.6310234  70.4558328  12.2568305 125.4685456  70.8655336  12.0402013
 124.8088502  69.5157770  12.2268499 135.6420924  60.5029453  17.4028936
 135.1385720  60.4659588  16.5896741 135.9351531  61.4122195  17.4625593
 131.8863810  60.5868182  16.4095118 132.7516807  60.3910991  16.0501007
 131.9541319  60.3578534  17.3364475 129.4926129  62.8170390  13.7811485
 130.0669881  62.5945572  13.0484678 130.0797112  62.8859085  14.5340086
 135.0286537  66.1793573  16.8334202 134.1109099  66.4008520  16.6755890
 135.4446681  66.2539883  15.9745909 124.6536406  67.7949043  12.9279038
 124.4560805  67.2018404  12.2030105 124.0983070  67.4901253  13.6454977
 132.6333129  67.6872150  15.0473632 132.6881739  66.7345986  14.9716108
 131.8224331  67.8431589  15.5314930 130.5725489  66.3049209  12.8064010
 129.7593355  66.6043380  13.2129203 131.0684483  65.9104898  13.5238493
 136.1699701  66.7691034  21.6378904 136.5249089  66.9962507  22.4973370
 136.8171832  67.1009411  21.0156160 130.0639564  63.8767565  18.4225245
 130.7038943  63.7356324  17.7248209 129.2317094  63.5902078  18.0463847
 130.8399868  73.1769995  14.5360238 131.6340466  72.6820316  14.3342813
 130.1291560  72.6487858  14.1727943 135.6594712  75.5588091  18.8872606
 135.7131735  76.1279027  19.6550321 134.7909494  75.7289976  18.5226643
 127.1482631  67.3213077  10.6119991 126.2180219  67.2597533  10.8289953
 127.2440103  66.7989030   9.8156632 127.0668180  63.8467890  13.1998232
 127.3274998  64.7613223  13.0907393 127.8885353  63.3792332  13.3494845
 128.5393106  65.2605647  20.3697057 129.2116159  65.0523009  19.7209706
 127.7122892  65.0627733  19.9302289 134.4418678  61.8867588  22.3862718
 133.7946593  62.5857538  22.2927194 135.2119693  62.3203732  22.7538966
 134.6182812  69.7248353  20.4459537 135.5474872  69.8759513  20.2728505
 134.1973842  69.8132374  19.5908184 133.4171144  73.7499017  18.2158075
 133.2782230  73.3817802  19.0884013 132.6285740  74.2646657  18.0442033
 134.9676359  73.1280620  15.6046913 134.6326192  73.0881390  16.5004563
 134.4680305  72.4625336  15.1317323 128.9420603  68.5348250  21.1299494
 128.8040401  67.8028489  21.7311033 129.8525526  68.4457150  20.8483682
 131.5702904  68.2468209  20.6183174 132.2802522  67.6061402  20.5769792
 131.5272212  68.4981104  21.5409354 130.2831838  65.2333427  22.4378813
 129.7469195  64.7824166  23.0900409 129.6948546  65.3679336  21.6949277
 121.2136237  69.4799238  15.0946784 121.9007276  69.1660968  14.5067799
 121.0584365  70.3840603  14.8214035 126.0170959  64.3689435  19.5231808
 125.9329148  63.7615105  18.7882217 125.1953665  64.8598453  19.5241304
 133.0908243  77.8076599  18.7364976 133.0178414  78.6131571  19.2484280
 132.6485636  78.0068565  17.9112997 135.5506926  77.7063433  20.8923134
 136.2634899  78.3410898  20.8199036 135.0596955  77.8027299  20.0763136
 132.7729641  64.9960382  14.6173687 132.4027429  64.4431422  15.3054593
 133.2688734  64.3918515  14.0648687 130.6018840  75.4557877  21.7128705
 131.3028299  76.0894359  21.8658099 130.1313955  75.7972608  20.9524344
 134.4507699  68.7522295  26.0247293 133.7748336  68.6516424  26.6949668
 135.2735333  68.5961509  26.4883290 126.1986558  74.9894232  18.6459808
 126.7839995  74.2437919  18.7787712 126.0011396  75.2998188  19.5296472
 120.7904213  67.5599832  17.3664251 120.8288312  67.0263422  18.1601369
 120.2844506  67.0335037  16.7475228 133.1930482  80.0589222  20.2604909
 133.7448790  80.2220844  21.0253994 133.5336675  80.6493660  19.5884933
 128.1694975  62.4064372  20.8626793 128.2336302  63.2679203  20.4504191
 128.1062095  61.7938374  20.1299152 127.6447248  64.4787505  24.5099828
 128.2719286  64.0964582  25.1237352 126.7875166  64.2601707  24.8755520
 124.4212790  66.2863934  10.4418182 124.7166231  65.3774612  10.3885236
 123.5200826  66.2651673  10.1199185 127.9507037  64.3619931  16.4245731
 127.2293623  64.9755898  16.2853204 128.7400293  64.8977695  16.3462377
 130.7533351  61.6974357  22.6986383 131.2767753  61.9436654  23.4612692
 130.5345684  62.5294392  22.2789520 126.1500632  63.9678032  10.5657508
 125.8213338  63.0875411  10.3832613 126.5040003  63.9125700  11.4533897
 129.2642455  64.2551001  10.9332985 129.6038528  64.7836923  10.2111594
 129.7114576  64.5931408  11.7091552 131.9585896  62.6388052  20.3836053
 131.6182716  61.8395865  20.7856733 131.2524902  62.9389763  19.8112886
 132.6102368  59.7237365  18.8363376 133.4328437  59.2497843  18.7142267
 132.8540431  60.5027848  19.3362063 130.1340947  66.4156485  16.6455355
 129.9885527  66.7296788  17.5379636 129.6566150  67.0341386  16.0926254
 131.9937329  63.4059033  16.6936244 131.9798898  62.5100126  16.3568542
 132.7109757  63.4129697  17.3274530 133.8463460  63.8396373  18.7389372
 133.5881238  64.7613444  18.7373702 133.3148500  63.4426808  19.4289836
 124.6086609  68.9561830  19.5843016 124.0640077  69.7321638  19.7163290
 125.4865959  69.3032634  19.4262137 125.3952631  68.0831726  22.4773173
 124.6534367  68.2314361  23.0637803 125.0745375  68.3439991  21.6139922
 133.3396293  77.6247704  22.2753563 133.6483420  77.3796851  23.1476263
 134.1371775  77.8294343  21.7872433 125.8409244  75.9697155  14.5083568
 126.6667264  75.6700926  14.1282211 125.4903296  75.2004777  14.9573356
 130.8090777  75.3223623  16.5781241 130.1870787  74.6594328  16.2783469
 131.4795644  75.3484755  15.8954889 124.0417849  73.8883481  15.4672501
 123.2049758  73.4605655  15.2856502 124.0141495  74.0815924  16.4043292
 130.8815305  63.8005411  26.1713747 130.9303460  64.6767534  25.7891517
 131.4237819  63.2582804  25.5985390 133.1114593  64.5536783  22.9260106
 132.2417903  64.8470349  22.6542694 133.3474074  65.1377228  23.6467369
 128.1256917  69.8992724  11.0600771 127.8802959  68.9955054  11.2580981
 128.2952832  69.9009874  10.1180249 135.8153627  60.7716400  20.4425526
 136.3335571  61.5077427  20.1172015 135.4608760  61.0780393  21.2772285
 127.3952565  65.6321081   8.5586932 126.7021810  65.7065436   7.9026968
 127.1504317  64.8681425   9.0808449 134.1385181  71.7554235  26.3268159
 135.0588190  71.9332834  26.5208205 134.1034764  70.8110281  26.1747858
 123.3567346  66.9492829  15.2521433 123.0370130  66.0958137  14.9595807
 122.8100774  67.1641407  16.0079401 127.1347253  69.6655270  18.9690940
 127.3533263  70.5972378  18.9878974 127.5473027  69.3063245  19.7545744
 132.0075119  65.2388476  28.3593689 131.9071846  66.1882833  28.2905780
 131.7896661  64.9106715  27.4869759 123.2255606  70.5695741  17.2214555
 122.5319077  70.1549693  16.7084509 123.9728597  70.6116277  16.6247974
 131.8706389  68.6685615  27.1758750 131.3873470  69.4685975  27.3822639
 131.9567328  68.6793560  26.2226194 125.1392348  70.5013994  15.0980570
 125.1163036  70.6001682  14.1462453 125.4492985  71.3479145  15.4197736
 127.7979726  72.5590149  19.2127184 128.7522980  72.5274092  19.1457116
 127.5992250  72.0980773  20.0277410 128.3879108  71.1291265  21.7797982
 129.2071997  71.6235344  21.8032819 128.6615916  70.2123234  21.7515549
 126.1529955  78.1009769  16.2297382 126.0184423  77.3410170  15.6635380
 125.7362017  78.8250669  15.7626171 129.3099081  78.9979086  16.4415825
 129.1931465  79.9424518  16.3394515 128.4891527  78.6952647  16.8301624
 123.6414023  65.4629399  22.4790179 124.2872886  64.9528353  22.9677404
 123.4331174  66.1998081  23.0533604 136.1667415  72.5310247  27.9782319
 137.0358574  72.7050899  27.6168954 135.6874166  73.3504664  27.8558049
 130.3353595  79.6507348  19.6571753 131.2380842  79.6830958  19.9738248
 130.1090965  78.7207799  19.6718089 127.9811514  62.6097016  26.5765193
 128.8442975  62.2533821  26.7868518 127.4076924  62.2710911  27.2640597
 136.8564713  79.6981353  19.5231808 136.7722902  79.0907022  18.7882217
 136.0347420  80.1890371  19.5241304 136.2346385  83.4123644  22.4773173
 135.4928121  83.5606279  23.0637803 135.9139129  83.6731909  21.6139922
 134.4807777  80.7921317  22.4790179 135.1266641  80.2820271  22.9677404
 134.2724928  81.5289999  23.0533604   6.9114475  77.4026798 108.1608941
   6.1578183  76.8334196 108.0052945   7.0462016  77.3689463 109.1079575
   0.9878621  77.5555435 105.2711084   0.8496519  77.7457031 104.3432273
   0.6314839  78.3174818 105.7279135   1.0148000  79.6231962 110.2822355
   1.4484507  79.5307251 111.1305409   1.7279581  79.5989462 109.6442371
   1.8763550  79.6655663 112.8155241   2.0699440  80.5701473 113.0614516
   1.7764168  79.2063082 113.6493826   3.1305613  76.2229329 109.4603145
   3.1195489  77.1054045 109.0897078   2.2622992  75.8700880 109.2657682
   3.7330223  77.3729548 106.0652607   4.1761369  76.6236874 105.6671731
   2.8556733  77.3639685 105.6826339   0.7657427  81.3759595 103.0746537
   1.2908751  81.7146868 102.3495857   0.6779780  80.4406611 102.8909671
   0.5749208  78.8584965 115.6930463   0.6247213  78.6934973 116.6345986
   0.4663132  77.9912225 115.3028344   2.0767405  81.2781907 115.9372485
   1.7852214  81.6411888 116.7735946   1.4639537  80.5648915 115.7585817
   3.2763088  78.8434787 108.4575055   4.1109979  79.2824591 108.6212615
   3.4122216  78.3673440 107.6383301   1.5044340  76.4986401 111.7523148
   1.4720660  75.5602402 111.9382832   2.1144964  76.5770438 111.0188973
   1.6538829  73.2897445 111.7981431   1.1377877  72.5055901 111.6111360
   2.5378777  72.9616161 111.9627951   7.3220890  77.5602408 110.8929185
   8.0524279  77.2987696 111.4536888   6.7127836  76.8231130 110.9331253
   5.4036187  75.7010271 111.4903636   4.6769351  75.5666236 110.8820128
   4.9883474  76.0087099 112.2960354   3.0213982  71.9222123 108.8437068
   3.6158473  71.6817859 108.1330376   3.0940566  71.2029254 109.4710604
   1.0172717  72.4892251 105.1109197   0.7609651  72.0888886 105.9417405
   0.3925585  73.2036045 104.9859337   5.3285055  75.2288324 107.6180489
   4.7684613  75.2981513 108.3912051   4.7228558  75.0529309 106.8979985
   6.9141073  91.9044838 110.3110445   7.5519483  91.7851585 109.6073785
   6.7961916  92.8525682 110.3698397   3.7230780  91.8572266 110.2471969
   3.3849291  91.7413331 109.3592504   4.5920548  91.4563431 110.2272975
   5.1617154  97.3778710 101.5483325   4.5105134  97.9632790 101.1617339
   5.9561517  97.9084905 101.6078363   1.8514031  93.1721078 111.7438718
   2.4477603  92.9477100 111.0295681   1.9089002  92.4305823 112.3464166
   1.4239059  90.6260513  99.5788909   1.6764580  90.1042035  98.8172372
   0.4863618  90.4626659  99.6815593   6.4682342  89.6296292 107.3863653
   7.2545431  89.2115715 107.0354070   6.7321046  90.5342384 107.5545301
   6.6392419  95.0669142 102.0852309   6.0038252  95.1403769 102.7973214
   6.3089826  95.6562741 101.4071389  11.8690769  89.5671525 108.2896631
  12.6015941  88.9970742 108.5234461  11.1130125  89.1793125 108.7303137
   1.1435348  92.5288619 101.7813284   1.0271606  91.8533523 102.4494369
   1.2537608  92.0420993 100.9645437   3.4866889  91.9898766 105.4859974
   3.1225096  91.4629387 106.1972895   4.3434005  91.5997235 105.3126459
   9.3916189  83.2793099 112.7491240   9.0599514  84.1488510 112.5252455
   8.7961803  82.9629383 113.4285270   3.1272376  87.0188666 100.4821322
   3.2946778  87.8868902 100.8491793   2.9369545  87.1815948  99.5582611
   5.8847709  95.4805645 112.1487152   5.5848432  96.3830684 112.0402960
   5.5398768  95.2137828 113.0008305   9.2844853  87.9988185 109.8284590
   8.3761730  87.9303594 109.5343351   9.2332448  88.4760130 110.6566415
   3.1061597  89.4746324 101.4667989   2.9861222  89.9203374 102.3053469
   2.4114185  89.8231641 100.9081527  11.1506499  86.2004624 111.6062464
  10.5080879  86.4937157 110.9602258  10.6461428  86.0857544 112.4115660
   8.8046663  89.9467797 102.2948323   9.7164519  90.1795184 102.1196020
   8.2956310  90.5304841 101.7323402   3.4418500  89.3065031 113.3043172
   4.2879696  89.7304445 113.4477821   3.3817138  88.6498656 113.9981736
   7.4116245  94.9293615 109.6861904   6.7825107  95.0939329 108.9837972
   7.0241907  95.3435225 110.4572868  11.2905477  95.8648053 107.0406268
  10.6056515  96.2446954 106.4903301  11.3749326  96.4743380 107.7738216
   6.5917946  86.9669400 114.9624346   6.3478878  87.7211460 114.4258622
   6.8677876  87.3454747 115.7971593   8.5456409  93.5108012 113.6401612
   8.7573304  94.1539772 112.9635993   8.4986157  92.6770329 113.1723542
   6.1482637  86.1225833 110.5438184   5.2867117  86.4207086 110.8354921
   6.1745072  86.3396232 109.6119216   2.9644207  94.6668023 106.9511990
   3.4282552  94.9455726 106.1616612   2.7001005  93.7651468 106.7685080
   1.9013093  90.7891176 103.7601555   2.6037136  91.2412219 104.2275481
   1.5693721  90.1474995 104.3881448   9.6602236  96.3879968 111.8123969
  10.4819680  95.9860155 111.5306651   9.6564639  96.2848202 112.7640085
  17.7508230  92.7318716 108.1608941  16.9971938  92.1626114 108.0052945
  17.8855771  92.6981380 109.1079575   3.1406858  97.6032118 103.8363660
   3.0052532  98.4483654 104.2648508   3.6816670  97.8051396 103.0729594
   6.4899321  81.1262680 112.3662553   6.1463591  82.0164322 112.2901664
   6.8578284  80.9364338 111.5032138   6.4549604  91.1171291 100.8734988
   5.9396227  91.8875896 101.1123376   6.1826912  90.4436427 101.4968050
   4.0396715  85.9620992 105.9320227   3.1838311  85.5727842 105.7525866
   4.4523667  86.0412953 105.0720012   5.5695862  83.4967335 110.3311787
   5.0660657  83.4597470 109.5179592   5.8626468  84.4060078 110.3908443
   1.8138747  83.5806065 109.3377968   2.6791744  83.3848874 108.9783858
   1.8816256  83.3516417 110.2647325  11.4283878  93.8703646 102.8088162
  10.6513321  93.5314805 102.3643324  12.1075359  93.8756269 102.1343127
   6.2435907  88.9898383 102.6994770   5.9386043  89.3044533 103.5504913
   7.1966349  89.0679803 102.7422103   4.6882339  95.1488607 104.3487724
   4.1603700  94.4141366 104.0360961   4.1869842  95.9263283 104.1027692
   9.6675185  93.3437627 109.4654770   9.0098859  94.0336889 109.5534899
  10.4715584  93.7334059 109.8088756   8.4780644  91.6982000 107.5158712
   8.9912525  92.3311992 108.0180421   9.1281868  91.0983195 107.1502072
   1.7223734  82.6849522 105.4369405   1.0688147  82.3698539 104.8126019
   1.6804208  82.0625262 106.1629227   2.8334939  92.9668817  97.3522697
   1.9262001  92.7358070  97.5513846   3.3305971  92.1706436  97.5396678
   5.7403018 101.6766324 100.2719383   5.0664717 101.9798021 100.8804341
   6.1268840 102.4795404  99.9224840   4.9561475  89.1731455 109.7617052
   4.0384036  89.3946402 109.6038740   5.3721618  89.2477766 108.9028760
   5.7396522  90.5722871 104.8919732   6.4868341  91.0844268 104.5826854
   6.0088112  90.2506924 105.7524126   4.0123173  93.0681412 101.8746687
   3.1034392  92.7840445 101.9719156   4.0418256  93.4880490 101.0149994
   9.2442440  96.6788001 105.6437854   8.7904767  95.8378911 105.7003045
   8.6136407  97.3149400 105.9812634   8.1875359  87.6079987 106.8738522
   7.4498116  87.0957374 107.2048764   8.4402133  87.1680369 106.0621799
   7.6875379  98.5164498 106.5787672   7.9798354  99.0769555 105.8600038
   8.1974000  98.8093059 107.3340832   8.2886987  80.3856239 107.4680291
   8.5945864  79.5253603 107.1806206   9.0139592  80.9773860 107.2679285
   2.5608067  90.6810032 107.9756482   2.6156676  89.7283869 107.8998959
   1.7499269  90.8369472 108.4597780   3.7099260  94.6090155  99.2134765
   3.2718690  93.8926014  98.7540403   4.4509701  94.8366270  98.6519857
   2.6509004  99.2944849 107.6681126   2.6085183  99.5205695 106.7389658
   3.5671703  99.0608224 107.8166927   6.0974638  89.7628917 114.5661755
   6.4524026  89.9900390 115.4256221   6.7446769  90.0947293 113.9439010
  11.8272375  92.8847353 105.2711084  11.6890274  93.0748948 104.3432273
  11.4708594  93.6466735 105.7279135  11.8541755  94.9523880 110.2822355
  12.2878261  94.8599169 111.1305409  12.5673335  94.9281380 109.6442371
  12.7157304  94.9947580 112.8155241  12.9093194  95.8993391 113.0614516
  12.6157922  94.5354999 113.6493826   4.3693615  84.8805471 115.3145568
   3.7221530  85.5795420 115.2210045   5.1394630  85.3141615 115.6821816
   4.5457749  92.7186236 113.3742388   5.4749809  92.8697395 113.2011355
   4.1248779  92.8070256 112.5191034   3.9394233 101.8445997 102.4866462
   4.1145989 101.3734040 103.3012085   3.2527021 102.4711763 102.7147723
   4.8951296  96.1218503 108.5329763   4.5601129  96.0819273 109.4287413
   4.3955242  95.4563219 108.0600173   7.8310488  93.4674537  98.8066823
   7.2139659  92.7421365  98.7099876   7.3626976  94.2283897  98.4633897
   9.4882027  96.1413029 114.6986583   8.6008806  95.8038951 114.8212982
  10.0580578  95.4096061 114.9355348   2.8072960 100.0386252 105.1750648
   2.0240482 100.5807932 105.2688872   3.5065705 100.5560231 105.5744889
   6.1169610  85.8480881 107.8184853   6.6138310  85.0950844 107.4985923
   5.3456591  85.8845198 107.2528062  13.9699367  91.5521247 109.4603145
  13.9589244  92.4345962 109.0897078  13.1016747  91.1992798 109.2657682
   7.1999391  94.6052568 105.3923276   6.2655669  94.7254031 105.2227981
   7.3776059  93.7025035 105.1283286   2.7004579  87.9898264 107.5456538
   2.3302366  87.4369305 108.2337443   3.1963671  87.3856398 106.9931538
  10.5871942  90.4469888 105.9273311  11.0532394  91.2797879 105.8533613
  11.0379443  89.9814869 106.6318569   8.6548173  96.7913709 102.9259463
   8.9308017  96.6770304 103.8353337   7.7852672  96.3931194 102.8871636
   8.5588605  82.8150475 109.9664212   7.6451685  83.0454702 110.1346419
   8.9881706  82.8988919 110.8178244   8.3295063  91.0040367 112.4664106
   7.6766514  91.2516274 111.8116559   8.7075443  90.1904505 112.1326583
   5.2902237 101.0400060 106.5692276   5.4724632 100.2221716 107.0320029
   6.1135223 101.2567752 106.1317166   5.6244403  99.9668245 103.8307325
   6.1532169  99.4560700 103.2177487   5.8872622  99.6510775 104.6952858
   6.2573806 101.0009081 110.1751441   6.1324946 100.1998821 109.6662387
   6.9152898 101.4955274 109.6865411   8.3208715  98.8018101 111.8030991
   7.3739050  98.6823452 111.7309318   8.6691488  97.9140599 111.8857253
   0.6808288  84.6912240 115.6269233   1.2042690  84.9374536 116.3895542
   0.4620621  85.5232275 115.2072371   5.3255148  98.5970817 108.0035344
   5.1780111  97.6687524 108.1842914   6.1508642  98.6190908 107.5192419
   8.9289270  99.4199376 109.0900216   9.8535817  99.2142237 108.9524667
   8.7604573  99.1715777 109.9989558   1.8860833  85.6325935 113.3118904
   1.5457654  84.8333748 113.7139584   1.1799840  85.9327646 112.7395737
   2.5377305  82.7175247 111.7646227   3.3603374  82.2435725 111.6425117
   2.7815369  83.4965731 112.2644913   1.1785540  85.7463506 102.0609128
   1.8993902  86.1244759 101.5572845   0.5550844  86.4652383 102.1644106
   5.3216662  86.4508655 102.9967461   5.5380277  87.3333293 102.6956289
   4.8410730  86.0594868 102.2673103   1.9212267  86.3996916 109.6219095
   1.9073835  85.5038009 109.2851393   2.6384695  86.4067580 110.2557381
   3.7738397  86.8334256 111.6672222   3.5156175  87.7551327 111.6656553
   3.2423438  86.4364691 112.3572686   8.7184586  99.9385043 104.4462308
   8.8921464  99.3731466 103.6936160   9.2113477 100.7385938 104.2641798
   1.3249163  85.2811296 104.8906665   1.4465074  84.3527942 105.0897553
   1.0351205  85.2949982 103.9784980   4.1940353  82.9666207 108.0273385
   4.2162050  83.0305540 107.0725364   4.6108412  82.1270715 108.2213891
  14.5723977  92.7021466 106.0652607  15.0155123  91.9528791 105.6671731
  13.6950488  92.6931603 105.6826339   9.7059759  99.2551808 101.5459206
  10.4010663  99.8758500 101.7646521  10.0482909  98.4047159 101.8211584
  11.6051182  96.7051513 103.0746537  12.1302506  97.0438786 102.3495857
  11.5173534  95.7698528 102.8909671  11.4142963  94.1876883 115.6930463
  11.4640968  94.0226891 116.6345986  11.3056886  93.3204142 115.3028344
   8.7046725  90.1707811 117.0089770   9.6056588  90.0314276 116.7173768
   8.7794700  90.3362266 117.9487947  12.9161160  96.6073825 115.9372485
  12.6245968  96.9703805 116.7735946  12.3033291  95.8940833 115.7585817
  14.1156842  94.1726704 108.4575055  14.9503733  94.6116509 108.6212615
  14.2515971  93.6965358 107.6383301  11.1648348  91.7306439 114.4052543
  11.6402470  91.9234086 113.5971394  10.2413913  91.7865625 114.1595926
   5.7428564  83.7654283 113.3708377   6.2610508  84.5015310 113.0454865
   5.3883697  84.0718276 114.2055136   5.9941159  80.1854565 108.8909273
   6.2742912  79.5177754 109.5169700   6.7791766  80.3783661 108.3783937
   3.7974627  99.3613559 100.4534300   3.2248594  99.9803746 100.0004771
   4.3707421  99.9112921 100.9874222   9.8650017  88.6072199 112.6380848
  10.8167440  88.7070297 112.6593072   9.6953467  87.8150468 113.1478933
   7.8864396  85.6927783 112.8240249   7.2914329  85.9732795 112.1286738
   7.6014093  86.1821684 113.5956990   7.0171887  99.6450709 101.5842882
   7.9502560  99.5796271 101.7875757   6.9295100 100.4806976 101.1257415
   9.6459904  98.9616580  98.5446829   9.5673535  98.6276443  99.4382587
  10.4669570  99.4538348  98.5438302  12.3438095  91.8278319 111.7523148
  12.3114415  90.8894320 111.9382832  12.9538718  91.9062356 111.0188973
   4.1821426  90.6974372  97.7950352   5.1280530  90.5680580  97.8638770
   3.8035671  89.9589034  98.2719780  12.4932583  88.6189363 111.7981431
  11.9771632  87.8347819 111.6111360  13.3772532  88.2908079 111.9627951
  10.1543310  82.3630378 107.7577244   9.9568131  82.0545466 108.6420576
  10.7643016  83.0892017 107.8875174  18.1614645  92.8894326 110.8929185
  18.8918033  92.6279614 111.4536888  17.5521590  92.1523048 110.9331253
  16.2429942  91.0302189 111.4903636  15.5163105  90.8958153 110.8820128
  15.8277229  91.3379017 112.2960354   2.3664343  88.6224348  97.7305237
   1.4595798  88.3257461  97.8067951   2.6440324  88.3254167  96.8639524
   3.9826409  83.1661238 103.8849479   3.1727137  82.8208323 104.2604725
   4.6710825  82.8568782 104.4737090   5.9116957  82.2439285 105.5073775
   6.4647995  82.6634738 106.1663798   6.1487043  81.3175033 105.5496731
   1.1363127  85.4811284  97.8717217   1.9982291  85.8066182  98.1313034
   1.3213472  84.6942780  97.3590282   9.2895764  84.3539810 105.0152440
   8.7094433  85.0124614 104.6330492   9.0231697  83.5317155 104.6039857
   7.7399330  83.7544868 107.2173760   8.2399109  83.8661402 106.4088079
   8.3834938  83.4505921 107.8574568   8.0720642  86.5139901 104.0708788
   7.1846497  86.7989551 103.8528983   8.4874631  86.3533664 103.2236065
  11.4235178  86.5386421 107.7863127  12.1995568  87.0282874 108.0587744
  10.6983312  86.9644476 108.2434997  13.8607737  87.2514041 108.8437068
  14.4552227  87.0109777 108.1330376  13.9334320  86.5321171 109.4710604
   7.2163855  96.2784575  98.1656808   7.9199705  96.4834578  98.7814463
   6.4926504  96.8461337  98.4305891   8.0461666  92.0294436 104.2859078
   7.9896867  92.4862988 103.4466710   8.5990008  91.2685121 104.1081921
  11.8566472  87.8184168 105.1109197  11.6003406  87.4180804 105.9417405
  11.2319340  88.5327962 104.9859337  16.1678809  90.5580242 107.6180489
  15.6078367  90.6273431 108.3912051  15.5622313  90.3821226 106.8979985
   9.1250553  96.7167104 100.2155268   9.9596157  96.2848303 100.0332743
   8.9634896  96.5449118 101.1432162   8.7796445  93.2199218 101.5811607
   8.7245249  93.0543489 100.6400051   8.1542500  93.9275251 101.7373797
   2.0892570  82.7207327 101.1596926   2.0771240  83.6649167 101.3165196
   2.9815992  82.5377472 100.8656387   5.9044690  79.3150103 105.4142862
   5.1377086  78.7608590 105.5599545   6.3155395  79.3871972 106.2757014
  17.7534828 107.2336756 110.3110445  18.3913238 107.1143503 109.6073785
  17.6355671 108.1817599 110.3698397  14.5624534 107.1864184 110.2471969
  14.2243046 107.0705248 109.3592504  15.4314302 106.7855349 110.2272975
  10.4211350 109.0399660 106.2368860   9.8576215 108.9489597 105.4685148
  10.3063745 108.2199564 106.7171353  16.0010909 112.7070628 101.5483325
  15.3498888 113.2924708 101.1617339  16.7955271 113.2376823 101.6078363
   9.9266536 109.7959765 101.9470459  10.6997412 109.2488752 101.8083335
  10.2791935 110.6604014 102.1584921  12.6907785 108.5012996 111.7438718
  13.2871357 108.2769018 111.0295681  12.7482757 107.7597741 112.3464166
  12.2632814 105.9552431  99.5788909  12.5158334 105.4333952  98.8172372
  11.3257373 105.7918576  99.6815593  17.3076096 104.9588209 107.3863653
  18.0939186 104.5407633 107.0354070  17.5714801 105.8634302 107.5545301
  17.4786174 110.3961060 102.0852309  16.8432007 110.4695686 102.7973214
  17.1483580 110.9854658 101.4071389  22.7084523 104.8963443 108.2896631
  23.4409695 104.3262659 108.5234461  21.9523879 104.5085043 108.7303137
  11.9829102 107.8580537 101.7813284  11.8665360 107.1825440 102.4494369
  12.0931362 107.3712911 100.9645437  14.3260643 107.3190684 105.4859974
  13.9618850 106.7921305 106.1972895  15.1827759 106.9289153 105.3126459
  20.2309944  98.6085017 112.7491240  19.8993269  99.4780428 112.5252455
  19.6355557  98.2921301 113.4285270  13.9666130 102.3480584 100.4821322
  14.1340533 103.2160820 100.8491793  13.7763299 102.5107865  99.5582611
  16.7241463 110.8097563 112.1487152  16.4242186 111.7122601 112.0402960
  16.3792523 110.5429746 113.0008305  10.1753945 107.2611359 108.1823857
   9.2504441 107.1287574 108.3901549  10.4238358 108.0405579 108.6793799
  20.1238607 103.3280103 109.8284590  19.2155484 103.2595511 109.5343351
  20.0726203 103.8052048 110.6566415  13.9455351 104.8038241 101.4667989
  13.8254976 105.2495292 102.3053469  13.2507939 105.1523559 100.9081527
  11.7062243 117.5741883 105.1158120  11.6286273 118.5249708 105.1946601
  11.1023887 117.2287755 105.7733046  21.9900254 101.5296541 111.6062464
  21.3474634 101.8229074 110.9602258  21.4855182 101.4149462 112.4115660
  19.6440417 105.2759714 102.2948323  20.5558273 105.5087101 102.1196020
  19.1350064 105.8596759 101.7323402  14.2812255 104.6356949 113.3043172
  15.1273450 105.0596363 113.4477821  14.2210893 103.9790573 113.9981736
  18.2510000 110.2585533 109.6861904  17.6218862 110.4231247 108.9837972
  17.8635662 110.6727142 110.4572868  22.1299231 111.1939971 107.0406268
  21.4450270 111.5738872 106.4903301  22.2143081 111.8035297 107.7738216
  17.4311700 102.2961317 114.9624346  17.1872632 103.0503378 114.4258622
  17.7071631 102.6746665 115.7971593  19.3850163 108.8399930 113.6401612
  19.5967058 109.4831690 112.9635993  19.3379911 108.0062246 113.1723542
  16.9876392 101.4517750 110.5438184  16.1260871 101.7499004 110.8354921
  17.0138827 101.6688149 109.6119216  13.8037961 109.9959941 106.9511990
  14.2676307 110.2747644 106.1616612  13.5394760 109.0943386 106.7685080
  10.6962042 109.5431423 109.8891753  11.2663400 109.9718691 109.2509237
  11.2870154 109.2614007 110.5875938  12.7406847 106.1183093 103.7601555
  13.4430891 106.5704137 104.2275481  12.4087476 105.4766912 104.3881448
   6.4832181 104.3766646 109.0618688   5.6931235 104.6324175 108.5858799
   6.9743429 105.1914984 109.1670729  20.4995991 111.7171885 111.8123969
  21.3213435 111.3152072 111.5306651  20.4958394 111.6140119 112.7640085
   8.4346927 104.7411225 106.0202165   7.6378090 104.8529919 106.5385661
   8.2072519 105.0797877 105.1543055  28.5901984 108.0610634 108.1608941
  27.8365692 107.4918032 108.0052945  28.7249525 108.0273298 109.1079575
  13.9800612 112.9324036 103.8363660  13.8446287 113.7775572 104.2648508
  14.5210425 113.1343314 103.0729594   7.4330009 110.4499474 104.4091585
   7.9454530 111.2442724 104.5597150   8.0852722 109.7525764 104.3425186
  17.3293076  96.4554598 112.3662553  16.9857345  97.3456240 112.2901664
  17.6972038  96.2656255 111.5032138   5.3978926 108.7788128 105.1851155
   6.2354148 109.1885137 104.9684863   5.5757194 107.8387570 105.1551349
  17.2943358 106.4463209 100.8734988  16.7789982 107.2167814 101.1123376
  17.0220667 105.7728345 101.4968050  14.8790469 101.2912910 105.9320227
  14.0232066 100.9019760 105.7525866  15.2917421 101.3704871 105.0720012
  16.4089616  98.8259253 110.3311787  15.9054412  98.7889388 109.5179592
  16.7020223  99.7351996 110.3908443  12.6532502  98.9097983 109.3377968
  13.5185499  98.7140791 108.9783858  12.7210011  98.6808334 110.2647325
  22.2677632 109.1995564 102.8088162  21.4907075 108.8606723 102.3643324
  22.9469113 109.2048187 102.1343127  17.0829662 104.3190301 102.6994770
  16.7779797 104.6336450 103.5504913  18.0360104 104.3971721 102.7422103
  15.5276093 110.4780524 104.3487724  14.9997455 109.7433284 104.0360961
  15.0263596 111.2555201 104.1027692  20.5068939 108.6729545 109.4654770
  19.8492614 109.3628806 109.5534899  21.3109339 109.0625977 109.8088756
  10.2594821 101.1400191 106.7094335  10.8338573 100.9175372 105.9767528
  10.8465803 101.2088885 107.4622936  19.3174398 107.0273918 107.5158712
  19.8306280 107.6603909 108.0180421  19.9675622 106.4275113 107.1502072
  10.5864408 103.1704652 100.7290220   9.7501720 103.5079338 101.0499495
  10.4469178 103.0353631  99.7917357  12.5617489  98.0141440 105.4369405
  11.9081901  97.6990457 104.8126019  12.5197963  97.3917180 106.1629227
  13.6728694 108.2960735  97.3522697  12.7655755 108.0649988  97.5513846
  14.1699726 107.4998354  97.5396678  16.5796772 117.0058242 100.2719383
  15.9058471 117.3089939 100.8804341  16.9662594 117.8087322  99.9224840
  15.7955229 104.5023373 109.7617052  14.8777790 104.7238320 109.6038740
  16.2115373 104.5769684 108.9028760  16.5790277 105.9014789 104.8919732
  17.3262096 106.4136186 104.5826854  16.8481866 105.5798841 105.7524126
  14.8516927 108.3973329 101.8746687  13.9428146 108.1132362 101.9719156
  14.8812011 108.8172408 101.0149994  20.0836194 112.0079919 105.6437854
  19.6298522 111.1670829 105.7003045  19.4530161 112.6441317 105.9812634
  19.0269114 102.9371905 106.8738522  18.2891871 102.4249291 107.2048764
  19.2795888 102.4972287 106.0621799  18.5269134 113.8456416 106.5787672
  18.8192108 114.4061473 105.8600038  19.0367754 114.1384977 107.3340832
  19.1280741  95.7148157 107.4680291  19.4339618  94.8545520 107.1806206
  19.8533346  96.3065777 107.2679285   5.4205097 106.1178844 105.8561889
   5.2229497 105.5248204 105.1312955   4.8651761 105.8131054 106.5737828
  13.4001821 106.0101950 107.9756482  13.4550431 105.0575786 107.8998959
  12.5893023 106.1661389 108.4597780  14.5493015 109.9382073  99.2134765
  14.1112445 109.2217932  98.7540403  15.2903456 110.1658188  98.6519857
  11.3394181 104.6279010 105.7346861  10.5262046 104.9273180 106.1412053
  11.8353175 104.2334699 106.4521343  13.4902759 114.6236767 107.6681126
  13.4478938 114.8497613 106.7389658  14.4065458 114.3900141 107.8166927
  16.9368393 105.0920834 114.5661755  17.2917780 105.3192307 115.4256221
  17.5840524 105.4239211 113.9439010  22.6666130 108.2139270 105.2711084
  22.5284028 108.4040866 104.3432273  22.3102348 108.9758653 105.7279135
  10.8308256 102.1997365 111.3508096  11.4707635 102.0586124 110.6531059
   9.9985786 101.9131879 110.9746698  22.6935509 110.2815797 110.2822355
  23.1272016 110.1891086 111.1305409  23.4067090 110.2573298 109.6442371
  11.6068560 111.4999796 107.4643088  12.4009158 111.0050116 107.2625663
  10.8960252 110.9717659 107.1010794   7.9151323 105.6442878 103.5402841
   6.9848911 105.5827333 103.7572803   8.0108795 105.1218830 102.7439482
   7.8336872 102.1697690 106.1281083   8.0943689 103.0843024 106.0190243
   8.6554044 101.7022133 106.2777696  23.5551059 110.3239498 112.8155241
  23.7486949 111.2285308 113.0614516  23.4551677 109.8646917 113.6493826
  15.2087369 100.2097388 115.3145568  14.5615285 100.9087338 115.2210045
  15.9788385 100.6433532 115.6821816  15.3851504 108.0478153 113.3742388
  16.3143564 108.1989313 113.2011355  14.9642534 108.1362174 112.5191034
  14.7787988 117.1737914 102.4866462  14.9539743 116.7025957 103.3012085
  14.0920776 117.8003680 102.7147723  15.7345051 111.4510420 108.5329763
  15.3994883 111.4111190 109.4287413  15.2348996 110.7855136 108.0600173
  18.6704242 108.7966455  98.8066823  18.0533413 108.0713283  98.7099876
  18.2020731 109.5575815  98.4633897  10.4602788 103.0151879  97.9288127
   9.5832255 102.8940680  97.5650374  10.9360541 102.2237957  97.6767016
  20.3275781 111.4704947 114.6986583  19.4402560 111.1330869 114.8212982
  20.8974332 110.7387978 114.9355348  13.6466714 115.3678169 105.1750648
  12.8634236 115.9099850 105.2688872  14.3459460 115.8852149 105.5744889
  16.9563364 101.1772799 107.8184853  17.4532064 100.4242761 107.4985923
  16.1850346 101.2137116 107.2528062  24.8093122 106.8813164 109.4603145
  24.7982998 107.7637880 109.0897078  23.9410501 106.5284715 109.2657682
  18.0393145 109.9344486 105.3923276  17.1049424 110.0545949 105.2227981
  18.2169814 109.0316953 105.1283286  13.5398333 103.3190182 107.5456538
  13.1696121 102.7661222 108.2337443  14.0357426 102.7148315 106.9931538
  21.4265697 105.7761805 105.9273311  21.8926149 106.6089797 105.8533613
  21.8773197 105.3106787 106.6318569  19.4941928 112.1205627 102.9259463
  19.7701772 112.0062221 103.8353337  18.6246426 111.7223112 102.8871636
  19.3982359  98.1442392 109.9664212  18.4845439  98.3746619 110.1346419
  19.8275461  98.2280836 110.8178244  19.1688818 106.3332284 112.4664106
  18.5160268 106.5808192 111.8116559  19.5469198 105.5196423 112.1326583
  16.1295992 116.3691978 106.5692276  16.3118386 115.5513633 107.0320029
  16.9528978 116.5859670 106.1317166  16.4638157 115.2960163 103.8307325
  16.9925924 114.7852617 103.2177487  16.7266377 114.9802693 104.6952858
   5.1881482 104.6093734 103.3701033   5.4834923 103.7004413 103.3168087
   4.2869518 104.5881474 103.0482035  17.0967561 116.3300998 110.1751441
  16.9718700 115.5290738 109.6662387  17.7546652 116.8247192 109.6865411
   8.7175729 102.6849731 109.3528581   7.9962315 103.2985699 109.2136055
   9.5068985 103.2207496 109.2745227  19.1602469 114.1310019 111.8030991
  18.2132805 114.0115370 111.7309318  19.5085242 113.2432517 111.8857253
  11.5202043 100.0204157 115.6269233  12.0436444 100.2666454 116.3895542
  11.3014376 100.8524192 115.2072371   6.9169324 102.2907832 103.4940358
   6.5882030 101.4105211 103.3115464   7.2708694 102.2355501 104.3816747
  16.1648903 113.9262735 108.0035344  16.0173865 112.9979442 108.1842914
  16.9902396 113.9482825 107.5192419  10.0311147 102.5780802 103.8615836
  10.3707219 103.1066723 103.1394444  10.4783267 102.9161208 104.6374402
  19.7683024 114.7491293 109.0900216  20.6929572 114.5434155 108.9524667
  19.5998328 114.5007695 109.9989558  12.7254588 100.9617853 113.3118904
  12.3851408 100.1625666 113.7139584  12.0193594 101.2619563 112.7395737
  13.3771060  98.0467165 111.7646227  14.1997129  97.5727643 111.6425117
  13.6209123  98.8257649 112.2644913  12.0179294 101.0755423 102.0609128
  12.7387657 101.4536676 101.5572845  11.3944598 101.7944300 102.1644106
  16.1610417 101.7800572 102.9967461  16.3774031 102.6625210 102.6956289
  15.6804484 101.3886786 102.2673103  10.9009638 104.7386286 109.5738205
  10.7554219 105.0526589 110.4662487  10.4234842 105.3571186 109.0209104
  12.7606021 101.7288834 109.6219095  12.7467590 100.8329927 109.2851393
  13.4778449 101.7359497 110.2557381  14.6132152 102.1626174 111.6672222
  14.3549930 103.0843244 111.6656553  14.0817192 101.7656608 112.3572686
  19.5578341 115.2676961 104.4462308  19.7315218 114.7023383 103.6936160
  20.0507232 116.0677856 104.2641798  12.1642917 100.6103214 104.8906665
  12.2858828  99.6819860 105.0897553  11.8744959 100.6241900 103.9784980
  15.0334108  98.2958124 108.0273385  15.0555804  98.3597457 107.0725364
  15.4502167  97.4562633 108.2213891  25.4117732 108.0313384 106.0652607
  25.8548878 107.2820709 105.6671731  24.5344242 108.0223520 105.6826339
  20.5453513 114.5843725 101.5459206  21.2404418 115.2050418 101.7646521
  20.8876663 113.7339077 101.8211584  22.4444936 112.0343431 103.0746537
  22.9696260 112.3730704 102.3495857  22.3567289 111.0990446 102.8909671
  22.2536717 109.5168801 115.6930463  22.3034722 109.3518808 116.6345986
  22.1450641 108.6496060 115.3028344  11.1372976 112.1957347 102.9822552
  11.2861096 112.8792811 102.3289225  11.9439420 112.1762437 103.4972008
  19.5440480 105.4999729 117.0089770  20.4450343 105.3606194 116.7173768
  19.6188454 105.6654184 117.9487947  23.7554914 111.9365742 115.9372485
  23.4639723 112.2995723 116.7735946  23.1427046 111.2232751 115.7585817
  24.9550597 109.5018622 108.4575055  25.7897488 109.9408426 108.6212615
  25.0909725 109.0257275 107.6383301  22.0042102 107.0598357 114.4052543
  22.4796224 107.2526003 113.5971394  21.0807668 107.1157543 114.1595926
   8.8925609 108.2222524 103.9883621   8.6471651 107.3184854 104.1863831
   9.0621524 108.2239675 103.0463099  16.5822319  99.0946201 113.3708377
  17.1004263  99.8307227 113.0454865  16.2277452  99.4010194 114.2055136
   8.1621257 103.9550882 101.4869783   7.4690502 104.0295237 100.8309819
   7.9173009 103.1911225 102.0091299  16.8334913  95.5146483 108.8909273
  17.1136667  94.8469672 109.5169700  17.6185520  95.7075579 108.3783937
  14.6368382 114.6905477 100.4534300  14.0642349 115.3095664 100.0004771
  15.2101175 115.2404839 100.9874222  20.7043771 103.9364117 112.6380848
  21.6561194 104.0362215 112.6593072  20.5347222 103.1442386 113.1478933
  18.7258151 101.0219700 112.8240249  18.1308083 101.3024713 112.1286738
  18.4407848 101.5113601 113.5956990  17.8565641 114.9742627 101.5842882
  18.7896315 114.9088189 101.7875757  17.7688854 115.8098894 101.1257415
  20.4853658 114.2908497  98.5446829  20.4067290 113.9568361  99.4382587
  21.3063325 114.7830265  98.5438302  23.1831849 107.1570237 111.7523148
  23.1508169 106.2186238 111.9382832  23.7932473 107.2354273 111.0188973
  15.0215180 106.0266290  97.7950352  15.9674285 105.8972498  97.8638770
  14.6429425 105.2880952  98.2719780  23.3326338 103.9481280 111.7981431
  22.8165386 103.1639737 111.6111360  24.2166286 103.6199997 111.9627951
  20.9937065  97.6922296 107.7577244  20.7961886  97.3837384 108.6420576
  21.6036770  98.4183935 107.8875174  29.0008399 108.2186244 110.8929185
  29.7311788 107.9571532 111.4536888  28.3915345 107.4814966 110.9331253
  27.0823696 106.3594106 111.4903636  26.3556860 106.2250071 110.8820128
  26.6670983 106.6670935 112.2960354  13.2058097 103.9516266  97.7305237
  12.2989553 103.6549379  97.8067951  13.4834078 103.6546084  96.8639524
  14.8220163  98.4953156 103.8849479  14.0120891  98.1500241 104.2604725
  15.5104580  98.1860700 104.4737090  16.7510711  97.5731203 105.5073775
  17.3041750  97.9926656 106.1663798  16.9880798  96.6466951 105.5496731
  11.9756882 100.8103201  97.8717217  12.8376046 101.1358100  98.1313034
  12.1607226 100.0234697  97.3590282  20.1289518  99.6831728 105.0152440
  19.5488187 100.3416532 104.6330492  19.8625451  98.8609072 104.6039857
  18.5793085  99.0836786 107.2173760  19.0792863  99.1953320 106.4088079
  19.2228693  98.7797838 107.8574568  18.9114396 101.8431818 104.0708788
  18.0240251 102.1281469 103.8528983  19.3268385 101.6825582 103.2236065
  22.2628933 101.8678339 107.7863127  23.0389323 102.3574792 108.0587744
  21.5377067 102.2936393 108.2434997  24.7001491 102.5805958 108.8437068
  25.2945982 102.3401694 108.1330376  24.7728075 101.8613089 109.4710604
  18.0557610 111.6076493  98.1656808  18.7593460 111.8126495  98.7814463
  17.3320259 112.1753255  98.4305891  18.8855420 107.3586354 104.2859078
  18.8290622 107.8154906 103.4466710  19.4383763 106.5977039 104.1081921
  22.6960226 103.1476086 105.1109197  22.4397160 102.7472722 105.9417405
  22.0713094 103.8619880 104.9859337  27.0072564 105.8872159 107.6180489
  26.4472122 105.9565349 108.3912051  26.4016067 105.7113144 106.8979985
  19.9644307 112.0459022 100.2155268  20.7989911 111.6140221 100.0332743
  19.8028650 111.8741036 101.1432162  19.6190199 108.5491135 101.5811607
  19.5639003 108.3835407 100.6400051  18.9936255 109.2567168 101.7373797
  12.9286325  98.0499244 101.1596926  12.9164995  98.9941084 101.3165196
  13.8209747  97.8669390 100.8656387  16.7438444  94.6442021 105.4142862
  15.9770840  94.0900508 105.5599545  17.1549149  94.7163890 106.2757014
  28.5928582 122.5628673 110.3110445  29.2306992 122.4435421 109.6073785
  28.4749425 123.5109517 110.3698397  25.4018289 122.5156101 110.2471969
  25.0636800 122.3997166 109.3592504  26.2708057 122.1147266 110.2272975
  21.2605104 124.3691578 106.2368860  20.6969969 124.2781515 105.4685148
  21.1457499 123.5491482 106.7171353  23.5301540 123.8304913 111.7438718
  24.1265112 123.6060936 111.0295681  23.5876511 123.0889659 112.3464166
  23.1026568 121.2844349  99.5788909  23.3552089 120.7625870  98.8172372
  22.1651127 121.1210494  99.6815593  28.1469851 120.2880127 107.3863653
  28.9332940 119.8699550 107.0354070  28.4108555 121.1926219 107.5545301
  28.3179928 125.7252977 102.0852309  27.6825761 125.7987604 102.7973214
  27.9877335 126.3146576 101.4071389  33.5478278 120.2255360 108.2896631
  34.2803450 119.6554577 108.5234461  32.7917634 119.8376961 108.7303137
  22.8222857 123.1872455 101.7813284  22.7059115 122.5117358 102.4494369
  22.9325117 122.7004829 100.9645437  25.1654398 122.6482602 105.4859974
  24.8012605 122.1213223 106.1972895  26.0221514 122.2581071 105.3126459
  31.0703698 113.9376934 112.7491240  30.7387023 114.8072345 112.5252455
  30.4749312 113.6213218 113.4285270  24.8059885 117.6772501 100.4821322
  24.9734287 118.5452738 100.8491793  24.6157054 117.8399783  99.5582611
  27.5635218 126.1389480 112.1487152  27.2635941 127.0414519 112.0402960
  27.2186277 125.8721664 113.0008305  21.0147699 122.5903277 108.1823857
  20.0898196 122.4579491 108.3901549  21.2632113 123.3697496 108.6793799
  30.9632362 118.6572021 109.8284590  30.0549239 118.5887429 109.5343351
  30.9119957 119.1343965 110.6566415  24.7849106 120.1330159 101.4667989
  24.6648731 120.5787210 102.3053469  24.0901694 120.4815477 100.9081527
  32.8294008 116.8588459 111.6062464  32.1868388 117.1520992 110.9602258
  32.3248937 116.7441379 112.4115660  30.4834172 120.6051632 102.2948323
  31.3952028 120.8379019 102.1196020  29.9743819 121.1888676 101.7323402
  25.1206009 119.9648867 113.3043172  25.9667205 120.3888280 113.4477821
  25.0604647 119.3082491 113.9981736  29.0903754 125.5877451 109.6861904
  28.4612616 125.7523165 108.9837972  28.7029416 126.0019060 110.4572868
  32.9692986 126.5231888 107.0406268  32.2844024 126.9030790 106.4903301
  33.0536835 127.1327215 107.7738216  28.2705455 117.6253235 114.9624346
  28.0266387 118.3795296 114.4258622  28.5465385 118.0038583 115.7971593
  30.2243918 124.1691847 113.6401612  30.4360813 124.8123607 112.9635993
  30.1773666 123.3354164 113.1723542  27.8270146 116.7809668 110.5438184
  26.9654626 117.0790922 110.8354921  27.8532581 116.9980067 109.6119216
  24.6431716 125.3251859 106.9511990  25.1070061 125.6039562 106.1616612
  24.3788514 124.4235303 106.7685080  23.5800602 121.4475011 103.7601555
  24.2824645 121.8996055 104.2275481  23.2481230 120.8058830 104.3881448
  17.3225936 119.7058564 109.0618688  16.5324990 119.9616092 108.5858799
  17.8137183 120.5206902 109.1670729  31.3389745 127.0463803 111.8123969
  32.1607189 126.6443990 111.5306651  31.3352148 126.9432037 112.7640085
  19.2740681 120.0703143 106.0202165  18.4771845 120.1821837 106.5385661
  19.0466273 120.4089795 105.1543055  39.4295739 123.3902551 108.1608941
  38.6759447 122.8209949 108.0052945  39.5643280 123.3565216 109.1079575
  28.1686830 111.7846516 112.3662553  27.8251100 112.6748157 112.2901664
  28.5365793 111.5948173 111.5032138  28.1337113 121.7755127 100.8734988
  27.6183736 122.5459731 101.1123376  27.8614421 121.1020263 101.4968050
  25.7184224 116.6204827 105.9320227  24.8625820 116.2311678 105.7525866
  26.1311176 116.6996788 105.0720012  27.2483371 114.1551171 110.3311787
  26.7448166 114.1181306 109.5179592  27.5413977 115.0643913 110.3908443
  23.4926256 114.2389900 109.3377968  24.3579253 114.0432709 108.9783858
  23.5603765 114.0100252 110.2647325  33.1071387 124.5287481 102.8088162
  32.3300830 124.1898641 102.3643324  33.7862868 124.5340104 102.1343127
  27.9223416 119.6482219 102.6994770  27.6173552 119.9628368 103.5504913
  28.8753858 119.7263639 102.7422103  31.3462694 124.0021463 109.4654770
  30.6886368 124.6920724 109.5534899  32.1503093 124.3917894 109.8088756
  21.0988575 116.4692108 106.7094335  21.6732327 116.2467290 105.9767528
  21.6859558 116.5380803 107.4622936  30.1568153 122.3565835 107.5158712
  30.6700034 122.9895827 108.0180421  30.8069377 121.7567031 107.1502072
  21.4258163 118.4996569 100.7290220  20.5895475 118.8371256 101.0499495
  21.2862932 118.3645549  99.7917357  23.4011243 113.3433357 105.4369405
  22.7475656 113.0282374 104.8126019  23.3591717 112.7209098 106.1629227
  24.5122448 123.6252652  97.3522697  23.6049510 123.3941906  97.5513846
  25.0093480 122.8290272  97.5396678  26.6348984 119.8315291 109.7617052
  25.7171545 120.0530238 109.6038740  27.0509127 119.9061601 108.9028760
  27.4184031 121.2306706 104.8919732  28.1655850 121.7428104 104.5826854
  27.6875621 120.9090759 105.7524126  25.6910681 123.7265247 101.8746687
  24.7821901 123.4424280 101.9719156  25.7205765 124.1464326 101.0149994
  30.9229949 127.3371837 105.6437854  30.4692276 126.4962747 105.7003045
  30.2923916 127.9733235 105.9812634  29.8662868 118.2663823 106.8738522
  29.1285625 117.7541209 107.2048764  30.1189642 117.8264204 106.0621799
  29.9674496 111.0440075 107.4680291  30.2733373 110.1837438 107.1806206
  30.6927101 111.6357695 107.2679285  16.2598852 121.4470761 105.8561889
  16.0623252 120.8540122 105.1312955  15.7045516 121.1422971 106.5737828
  24.2395576 121.3393868 107.9756482  24.2944185 120.3867704 107.8998959
  23.4286778 121.4953307 108.4597780  25.3886769 125.2673991  99.2134765
  24.9506199 124.5509850  98.7540403  26.1297210 125.4950106  98.6519857
  22.1787935 119.9570928 105.7346861  21.3655801 120.2565098 106.1412053
  22.6746930 119.5626616 106.4521343  27.7762147 120.4212752 114.5661755
  28.1311535 120.6484225 115.4256221  28.4234278 120.7531129 113.9439010
  33.5059884 123.5431188 105.2711084  33.3677783 123.7332784 104.3432273
  33.1496103 124.3050571 105.7279135  21.6702010 117.5289283 111.3508096
  22.3101390 117.3878042 110.6531059  20.8379541 117.2423796 110.9746698
  33.5329264 125.6107715 110.2822355  33.9665770 125.5183004 111.1305409
  34.2460844 125.5865215 109.6442371  18.7545078 120.9734795 103.5402841
  17.8242666 120.9119251 103.7572803  18.8502550 120.4510748 102.7439482
  18.6730627 117.4989608 106.1281083  18.9337444 118.4134941 106.0190243
  19.4947799 117.0314051 106.2777696  34.3944813 125.6531416 112.8155241
  34.5880703 126.5577226 113.0614516  34.2945431 125.1938835 113.6493826
  26.0481124 115.5389306 115.3145568  25.4009039 116.2379256 115.2210045
  26.8182139 115.9725450 115.6821816  26.2245258 123.3770071 113.3742388
  27.1537318 123.5281231 113.2011355  25.8036288 123.4654092 112.5191034
  29.5097997 124.1258372  98.8066823  28.8927168 123.4005201  98.7099876
  29.0414485 124.8867733  98.4633897  21.2996543 118.3443797  97.9288127
  20.4226009 118.2232598  97.5650374  21.7754296 117.5529875  97.6767016
  31.1669536 126.7996865 114.6986583  30.2796315 126.4622787 114.8212982
  31.7368087 126.0679896 114.9355348  27.7957119 116.5064717 107.8184853
  28.2925818 115.7534679 107.4985923  27.0244100 116.5429033 107.2528062
  35.6486876 122.2105082 109.4603145  35.6376753 123.0929798 109.0897078
  34.7804256 121.8576633 109.2657682  28.8786900 125.2636404 105.3923276
  27.9443178 125.3837866 105.2227981  29.0563568 124.3608871 105.1283286
  24.3792088 118.6482100 107.5456538  24.0089875 118.0953140 108.2337443
  24.8751180 118.0440233 106.9931538  32.2659451 121.1053723 105.9273311
  32.7319903 121.9381715 105.8533613  32.7166952 120.6398705 106.6318569
  30.3335682 127.4497544 102.9259463  30.6095526 127.3354139 103.8353337
  29.4640181 127.0515029 102.8871636  30.2376114 113.4734310 109.9664212
  29.3239194 113.7038537 110.1346419  30.6669215 113.5572754 110.8178244
  30.0082572 121.6624202 112.4664106  29.3554022 121.9100110 111.8116559
  30.3862952 120.8488340 112.1326583  16.0275237 119.9385652 103.3701033
  16.3228678 119.0296330 103.3168087  15.1263272 119.9173391 103.0482035
  19.5569484 118.0141649 109.3528581  18.8356069 118.6277616 109.2136055
  20.3462739 118.5499413 109.2745227  22.3595797 115.3496075 115.6269233
  22.8830199 115.5958372 116.3895542  22.1408130 116.1816110 115.2072371
  17.7563078 117.6199750 103.4940358  17.4275784 116.7397129 103.3115464
  18.1102449 117.5647418 104.3816747  20.8704901 117.9072719 103.8615836
  21.2100974 118.4358641 103.1394444  21.3177022 118.2453126 104.6374402
  23.5648342 116.2909770 113.3118904  23.2245163 115.4917583 113.7139584
  22.8587348 116.5911481 112.7395737  24.2164814 113.3759083 111.7646227
  25.0390883 112.9019561 111.6425117  24.4602878 114.1549566 112.2644913
  22.8573049 116.4047341 102.0609128  23.5781411 116.7828594 101.5572845
  22.2338353 117.1236218 102.1644106  27.0004171 117.1092490 102.9967461
  27.2167786 117.9917128 102.6956289  26.5198239 116.7178703 102.2673103
  21.7403393 120.0678203 109.5738205  21.5947974 120.3818506 110.4662487
  21.2628596 120.6863104 109.0209104  23.5999776 117.0580751 109.6219095
  23.5861344 116.1621845 109.2851393  24.3172204 117.0651415 110.2557381
  25.4525906 117.4918091 111.6672222  25.1943684 118.4135162 111.6656553
  24.9210947 117.0948526 112.3572686  23.0036672 115.9395132 104.8906665
  23.1252583 115.0111778 105.0897553  22.7138714 115.9533818 103.9784980
  25.8727862 113.6250042 108.0273385  25.8949559 113.6889375 107.0725364
  26.2895921 112.7854551 108.2213891  36.2511486 123.3605302 106.0652607
  36.6942632 122.6112627 105.6671731  35.3737997 123.3515438 105.6826339
  33.2838691 127.3635349 103.0746537  33.8090015 127.7022621 102.3495857
  33.1961043 126.4282364 102.8909671  33.0930472 124.8460719 115.6930463
  33.1428477 124.6810726 116.6345986  32.9844395 123.9787978 115.3028344
  30.3834234 120.8291647 117.0089770  31.2844097 120.6898111 116.7173768
  30.4582209 120.9946101 117.9487947  34.5948669 127.2657660 115.9372485
  34.3033477 127.6287641 116.7735946  33.9820800 126.5524668 115.7585817
  35.7944351 124.8310540 108.4575055  36.6291242 125.2700344 108.6212615
  35.9303480 124.3549193 107.6383301  32.8435857 122.3890275 114.4052543
  33.3189979 122.5817921 113.5971394  31.9201422 122.4449461 114.1595926
  19.7319364 123.5514442 103.9883621  19.4865405 122.6476772 104.1863831
  19.9015278 123.5531592 103.0463099  27.4216073 114.4238118 113.3708377
  27.9398017 115.1599145 113.0454865  27.0671206 114.7302112 114.2055136
  19.0015011 119.2842799 101.4869783  18.3084256 119.3587154 100.8309819
  18.7566763 118.5203143 102.0091299  27.6728668 110.8438401 108.8909273
  27.9530421 110.1761590 109.5169700  28.4579275 111.0367496 108.3783937
  31.5437526 119.2656035 112.6380848  32.4954949 119.3654132 112.6593072
  31.3740976 118.4734303 113.1478933  29.5651905 116.3511618 112.8240249
  28.9701838 116.6316631 112.1286738  29.2801602 116.8405519 113.5956990
  34.0225604 122.4862154 111.7523148  33.9901924 121.5478155 111.9382832
  34.6326227 122.5646191 111.0188973  25.8608935 121.3558207  97.7950352
  26.8068039 121.2264416  97.8638770  25.4823180 120.6172869  98.2719780
  34.1720092 119.2773198 111.7981431  33.6559141 118.4931655 111.6111360
  35.0560041 118.9491914 111.9627951  31.8330819 113.0214213 107.7577244
  31.6355640 112.7129302 108.6420576  32.4430525 113.7475852 107.8875174
  39.8402154 123.5478161 110.8929185  40.5705542 123.2863449 111.4536888
  39.2309099 122.8106883 110.9331253  37.9217451 121.6886024 111.4903636
  37.1950614 121.5541989 110.8820128  37.5064738 121.9962852 112.2960354
  24.0451852 119.2808184  97.7305237  23.1383307 118.9841297  97.8067951
  24.3227833 118.9838002  96.8639524  25.6613917 113.8245074 103.8849479
  24.8514646 113.4792158 104.2604725  26.3498334 113.5152617 104.4737090
  27.5904466 112.9023120 105.5073775  28.1435504 113.3218574 106.1663798
  27.8274552 111.9758868 105.5496731  22.8150636 116.1395119  97.8717217
  23.6769800 116.4650017  98.1313034  23.0000981 115.3526615  97.3590282
  30.9683273 115.0123645 105.0152440  30.3881942 115.6708450 104.6330492
  30.7019206 114.1900990 104.6039857  29.4186839 114.4128703 107.2173760
  29.9186618 114.5245238 106.4088079  30.0622447 114.1089756 107.8574568
  29.7508151 117.1723736 104.0708788  28.8634006 117.4573386 103.8528983
  30.1662140 117.0117499 103.2236065  33.1022687 117.1970257 107.7863127
  33.8783077 117.6866709 108.0587744  32.3770821 117.6228311 108.2434997
  35.5395246 117.9097876 108.8437068  36.1339736 117.6693612 108.1330376
  35.6121829 117.1905007 109.4710604  29.7249175 122.6878272 104.2859078
  29.6684376 123.1446823 103.4466710  30.2777517 121.9268956 104.1081921
  33.5353981 118.4768004 105.1109197  33.2790915 118.0764639 105.9417405
  32.9106849 119.1911798 104.9859337  37.8466318 121.2164077 107.6180489
  37.2865876 121.2857266 108.3912051  37.2409822 121.0405062 106.8979985
  30.8038062 127.3750940 100.2155268  31.6383666 126.9432138 100.0332743
  30.6422405 127.2032953 101.1432162  30.4583954 123.8783053 101.5811607
  30.4032758 123.7127324 100.6400051  29.8330009 124.5859086 101.7373797
  23.7680079 113.3791162 101.1596926  23.7558749 114.3233002 101.3165196
  24.6603501 113.1961307 100.8656387  27.5832199 109.9733939 105.4142862
  26.8164595 109.4192425 105.5599545  27.9942904 110.0455807 106.2757014
  41.9097453 129.2668852 112.7491240  41.5780778 130.1364263 112.5252455
  41.3143066 128.9505136 113.4285270  43.6687763 132.1880377 111.6062464
  43.0262143 132.4812910 110.9602258  43.1642691 132.0733297 112.4115660
  39.0080585 127.1138433 112.3662553  38.6644854 128.0040075 112.2901664
  39.3759547 126.9240091 111.5032138  38.0877125 129.4843088 110.3311787
  37.5841921 129.4473224 109.5179592  38.3807732 130.3935831 110.3908443
  34.2404998 128.6725275 105.4369405  33.5869410 128.3574292 104.8126019
  34.1985472 128.0501015 106.1629227  40.8068250 126.3731992 107.4680291
  41.1127127 125.5129356 107.1806206  41.5320855 126.9649613 107.2679285
  41.0769868 128.8026228 109.9664212  40.1632948 129.0330455 110.1346419
  41.5062970 128.8864672 110.8178244  35.0558569 128.7051000 111.7646227
  35.8784638 128.2311478 111.6425117  35.2996632 129.4841484 112.2644913
  36.7121616 128.9541960 108.0273385  36.7343313 129.0181293 107.0725364
  37.1289676 128.1146468 108.2213891  38.2609828 129.7530036 113.3708377
  38.7791772 130.4891063 113.0454865  37.9064961 130.0594029 114.2055136
  38.5122422 126.1730318 108.8909273  38.7924176 125.5053508 109.5169700
  39.2973029 126.3659414 108.3783937  42.6724574 128.3506131 107.7577244
  42.4749395 128.0421219 108.6420576  43.2824279 129.0767770 107.8875174
  36.5007672 129.1536991 103.8849479  35.6908400 128.8084076 104.2604725
  37.1892089 128.8444535 104.4737090  38.4298220 128.2315038 105.5073775
  38.9829259 128.6510491 106.1663798  38.6668307 127.3050786 105.5496731
  41.8077027 130.3415563 105.0152440  41.2275696 131.0000367 104.6330492
  41.5412960 129.5192908 104.6039857  40.2580594 129.7420621 107.2173760
  40.7580372 129.8537155 106.4088079  40.9016202 129.4381674 107.8574568
  46.3789000 133.2389794 108.8437068  46.9733491 132.9985530 108.1330376
  46.4515584 132.5196924 109.4710604  38.4225953 125.3025856 105.4142862
  37.6558349 124.7484343 105.5599545  38.8336658 125.3747725 106.2757014
   6.9114476  54.4088921  94.8854247   6.1578185  53.8396319  94.7298252
   7.0462018  54.3751585  95.8324882   0.9878622  54.5617557  91.9956390
   0.8496520  54.7519153  91.0677580   0.6314841  55.3236940  92.4524442
   1.0148001  56.6294084  97.0067662   1.4484508  56.5369374  97.8550716
   1.7279582  56.6051585  96.3687678   1.8763551  56.6717785  99.5400547
   2.0699441  57.5763596  99.7859822   1.7764169  56.2125204 100.3739132
   3.1305614  53.2291452  96.1848451   3.1195490  54.1116167  95.8142384
   2.2622994  52.8763003  95.9902988   3.7330224  54.3791671  92.7897914
   4.1761370  53.6298996  92.3917037   2.8556734  54.3701807  92.4071646
   0.7657429  58.3821718  89.7991843   1.2908753  58.7208991  89.0741163
   0.6779781  57.4468733  89.6154978   0.5749210  55.8647088 102.4175770
   0.6247215  55.6997096 103.3591293   0.4663133  54.9974347 102.0273651
   2.0767407  58.2844030 102.6617791   1.7852215  58.6474010 103.4981252
   1.4639538  57.5711038 102.4831124   3.2763089  55.8496909  95.1820362
   4.1109980  56.2886713  95.3457922   3.4122218  55.3735563  94.3628607
   1.5044342  53.5048524  98.4768455   1.4720662  52.5664525  98.6628138
   2.1144965  53.5832561  97.7434280   1.6538830  50.2959567  98.5226738
   1.1377879  49.5118024  98.3356667   2.5378779  49.9678284  98.6873257
   7.3220891  54.5664531  97.6174491   8.0524280  54.3049819  98.1782195
   6.7127837  53.8293253  97.6576559   5.4036189  52.7072393  98.2148943
   4.6769352  52.5728358  97.6065434   4.9883475  53.0149222  99.0205661
   3.0213983  48.9284246  95.5682374   3.6158474  48.6879982  94.8575683
   3.0940567  48.2091376  96.1955911   1.0172718  49.4954373  91.8354504
   0.7609653  49.0951009  92.6662712   0.3925586  50.2098167  91.7104643
   5.3285056  52.2350446  94.3425795   4.7684614  52.3043636  95.1157358
   4.7228560  52.0591431  93.6225292   6.9141075  68.9106960  97.0355751
   7.5519485  68.7913708  96.3319091   6.7961918  69.8587804  97.0943703
   3.7230781  68.8634389  96.9717276   3.3849292  68.7475453  96.0837811
   4.5920549  68.4625554  96.9518282   4.2050564  70.0169240 102.9303481
   4.1939205  69.6222039 102.0583985   4.3671203  69.2835313 103.5237253
   5.1617155  74.3840833  88.2728632   4.5105135  74.9694913  87.8862646
   5.9561518  74.9147028  88.3323669   0.9257825  72.8006352 101.8782665
   0.6347691  73.7051983 101.7629332   1.5614809  72.8422880 102.5926735
   1.8514032  70.1783201  98.4684025   2.4477604  69.9539223  97.7540988
   1.9089003  69.4367946  99.0709473   1.4239060  67.6322636  86.3034216
   1.6764581  67.1104157  85.5417679   0.4863619  67.4688781  86.4060900
   6.4682343  66.6358414  94.1108959   7.2545432  66.2177837  93.7599376
   6.7321047  67.5404506  94.2790608   6.6392420  72.0731265  88.8097616
   6.0038253  72.1465891  89.5218521   6.3089827  72.6624863  88.1316695
  11.8690770  66.5733647  95.0141938  12.6015942  66.0032864  95.2479767
  11.1130126  66.1855248  95.4548443   1.1435349  69.5350742  88.5058591
   1.0271607  68.8595645  89.1739675   1.2537609  69.0483116  87.6890744
   3.4866890  68.9960889  92.2105280   3.1225097  68.4691510  92.9218202
   4.3434006  68.6059358  92.0371766   9.3916191  60.2855222  99.4736546
   9.0599515  61.1550633  99.2497761   8.7961804  59.9691506 100.1530577
   3.1272377  64.0250789  87.2066629   3.2946779  64.8931025  87.5737100
   2.9369546  64.1878070  86.2827918   5.8847710  72.4867768  98.8732459
   5.5848433  73.3892806  98.7648266   5.5398770  72.2199951  99.7253612
   9.2844854  65.0050308  96.5529896   8.3761731  64.9365716  96.2588657
   9.2332450  65.4822253  97.3811722   3.1061598  66.4808446  88.1913296
   2.9861223  66.9265497  89.0298776   2.4114186  66.8293764  87.6326834
   3.3585720  66.4239953 104.4964794   2.5819054  66.9833873 104.4867658
   3.9976283  66.9096736 105.0179664  11.1506500  63.2066746  98.3307770
  10.5080881  63.4999279  97.6847565  10.6461429  63.0919666  99.1360967
   8.8046664  66.9529919  89.0193630   9.7164520  67.1857306  88.8441327
   8.2956311  67.5366964  88.4568708   1.6132092  69.2325407 104.0582761
   2.3546776  69.7710451 103.7817584   0.9069077  69.8591695 104.2154312
   7.0887432  71.3754547 102.6554922   7.4970788  70.9336958 101.9109555
   6.3664693  70.8007175 102.9089115   3.4418502  66.3127154 100.0288479
   4.2879697  66.7366567 100.1723128   3.3817139  65.6560778 100.7227042
   7.4116246  71.9355738  96.4107211   6.7825109  72.1001452  95.7083279
   7.0241908  72.3497347  97.1818175  11.2905478  72.8710176  93.7651575
  10.6056516  73.2509077  93.2148608  11.3749327  73.4805502  94.4983523
   6.5917947  63.9731522 101.6869653   6.3478879  64.7273583 101.1503928
   6.8677878  64.3516870 102.5216900   8.5456410  70.5170135 100.3646918
   8.7573305  71.1601895  99.6881299   8.4986158  69.6832451  99.8968848
   6.1482639  63.1287955  97.2683490   5.2867118  63.4269209  97.5600228
   6.1745073  63.3458354  96.3364523   2.9644208  71.6730146  93.6757296
   3.4282554  71.9517849  92.8861919   2.7001006  70.7713590  93.4930387
   1.9013094  67.7953298  90.4846861   2.6037138  68.2474342  90.9520788
   1.5693723  67.1537117  91.1126754   9.6602238  73.3942090  98.5369276
  10.4819681  72.9922277  98.2551957   9.6564641  73.2910324  99.4885391
   3.4258841  72.9426133 100.6929986   3.4903274  73.4046541 101.5288158
   2.7169765  72.3123498 100.8212296  17.7508231  69.7380839  94.8854247
  16.9971939  69.1688237  94.7298252  17.8855772  69.7043503  95.8324882
   3.1406859  74.6094241  90.5608966   3.0052534  75.4545777  90.9893814
   3.6816671  74.8113519  89.7974900   2.5442159  62.1043700 104.8143578
   3.2851873  62.7050853 104.7348041   2.7760082  61.3621338 104.2561621
   4.7675335  75.2317807 104.6909309   4.3239189  74.4454186 104.3730213
   5.4292549  75.4196958 104.0253199   6.8656573  75.5120607 102.7190710
   6.8475049  76.3329488 102.2270979   7.7876493  75.3874683 102.9440851
   3.3229627  73.0264737 103.5614218   3.8557964  72.2653025 103.3313526
   2.7943709  72.7338389 104.3038373   6.4899322  58.1324803  99.0907860
   6.1463592  59.0226444  99.0146971   6.8578285  57.9426460  98.2277445
   6.4549605  68.1233414  87.5980295   5.9396229  68.8938019  87.8368682
   6.1826914  67.4498550  88.2213357   4.0396716  62.9683115  92.6565533
   3.1838313  62.5789965  92.4771172   4.4523668  63.0475075  91.7965319
   5.5695863  60.5029458  97.0557093   5.0660658  60.4659593  96.2424898
   5.8626470  61.4122201  97.1153750   1.8138749  60.5868188  96.0623275
   2.6791745  60.3910996  95.7029164   1.8816258  60.3578539  96.9892632
  11.4283879  70.8765769  89.5333469  10.6513322  70.5376928  89.0888631
  12.1075360  70.8818392  88.8588434   6.2435908  65.9960506  89.4240076
   5.9386044  66.3106655  90.2750219   7.1966350  66.0741926  89.4667409
   4.6882340  72.1550729  91.0733030   4.1603702  71.4203489  90.7606268
   4.1869843  72.9325406  90.8272999   9.6675186  70.3499750  96.1900077
   9.0098861  71.0399011  96.2780205  10.4715585  70.7396182  96.5334063
   8.4780645  68.7044122  94.2404018   8.9912527  69.3374114  94.7425728
   9.1281869  68.1045318  93.8747378   1.7223735  59.6911644  92.1614711
   1.0688148  59.3760662  91.5371326   1.6804210  59.0687385  92.8874534
   2.8334940  69.9730940  84.0768003   1.9262002  69.7420193  84.2759152
   3.3305972  69.1768559  84.2641985   5.7403019  78.6828447  86.9964689
   5.0664718  78.9860143  87.6049647   6.1268841  79.4857527  86.6470146
   4.9561476  66.1793578  96.4862359   4.0384037  66.4008525  96.3284047
   5.3721619  66.2539888  95.6274066   5.7396524  67.5784994  91.6165039
   6.4868343  68.0906391  91.3072161   6.0088113  67.2569046  92.4769433
   4.0123174  70.0743534  88.5991993   3.1034393  69.7902567  88.6964463
   4.0418258  70.4942613  87.7395300   9.2442441  73.6850124  92.3683161
   8.7904768  72.8441034  92.4248351   8.6136408  74.3211522  92.7057941
   8.1875361  64.6142110  93.5983828   7.4498118  64.1019496  93.9294071
   8.4402134  64.1742492  92.7867105   7.6875380  75.5226621  93.3032979
   7.9798355  76.0831678  92.5845345   8.1974001  75.8155182  94.0586138
   8.2886988  57.3918362  94.1925598   8.5945865  56.5315725  93.9051513
   9.0139593  57.9835982  93.9924592   2.5608068  67.6872155  94.7001789
   2.6156678  66.7345991  94.6244265   1.7499270  67.8431594  95.1843087
   3.7099262  71.6152278  85.9380072   3.2718691  70.8988137  85.4785709
   4.4509702  71.8428393  85.3765163   2.6509006  76.3006972  94.3926432
   2.6085184  76.5267818  93.4634964   3.5671704  76.0670346  94.5412233
   6.0974639  66.7691039 101.2907061   6.4524027  66.9962512 102.1501527
   6.7446771  67.1009416 100.6684317  11.8272376  69.8909475  91.9956390
  11.6890275  70.0811071  91.0677580  11.4708595  70.6528858  92.4524442
  11.8541756  71.9586002  97.0067662  12.2878263  71.8661291  97.8550716
  12.5673337  71.9343503  96.3687678   5.5869651  75.5588096  98.5400763
   5.6406673  76.1279033  99.3078479   4.7184432  75.7289981  98.1754800
  12.7157306  72.0009703  99.5400547  12.9093196  72.9055513  99.7859822
  12.6157924  71.5417122 100.3739132   4.3693616  61.8867593 102.0390875
   3.7221531  62.5857543 101.9455351   5.1394632  62.3203737 102.4067123
   7.7772414  72.1516446 105.1141428   7.6257921  71.9226997 104.1971512
   7.7677094  73.1087047 105.1272773   4.5457751  69.7248358 100.0987694
   5.4749811  69.8759518  99.9256662   4.1248781  69.8132379  99.2436341
   3.3446082  73.7499023  97.8686232   3.2057168  73.3817807  98.7412170
   2.5560679  74.2646662  97.6970190   3.9394234  78.8508119  89.2111769
   4.1145990  78.3796162  90.0257391   3.2527022  79.4773885  89.4393029
   4.8951298  73.1280625  95.2575070   4.5601130  73.0881395  96.1532720
   4.3955243  72.4625341  94.7845480   7.8310489  70.4736660  85.5312130
   7.2139660  69.7483488  85.4345182   7.3626978  71.2346020  85.1879204
   1.4977842  68.2468215 100.2711331   2.2077461  67.6061407 100.2297949
   1.4547150  68.4981110 101.1937511   9.4864621  75.1835568 103.1917910
   9.4277167  74.4994788 102.5248493   9.8884139  75.9254558 102.7398536
   9.4882028  73.1475152 101.4231890   8.6008807  72.8101074 101.5458288
  10.0580579  72.4158183 101.6600655   3.0183182  77.8076604  98.3893133
   2.9453353  78.6131576  98.9012437   2.5760575  78.0068570  97.5641154
   2.8072961  77.0448374  91.8995954   2.0240483  77.5870055  91.9934179
   3.5065706  77.5622354  92.2990195   6.1169611  62.8543004  94.5430160
   6.6138311  62.1012966  94.2231230   5.3456593  62.8907321  93.9773369
  13.9699369  68.5583369  96.1848451  13.9589245  69.4408085  95.8142384
  13.1016748  68.2054920  95.9902988   5.4781865  77.7063438 100.5451291
   6.1909837  78.3410903 100.4727193   4.9871894  77.8027304  99.7291293
   7.1999392  71.6114691  92.1168583   6.2655671  71.7316154  91.9473287
   7.3776060  70.7087158  91.8528593   2.7004580  64.9960387  94.2701844
   2.3302368  64.4431427  94.9582750   3.1963672  64.3918520  93.7176844
  10.5871943  67.4532010  92.6518617  11.0532395  68.2860002  92.5778920
  11.0379444  66.9876992  93.3563876   8.6548174  73.7975832  89.6504769
   8.9308018  73.6832426  90.5598643   7.7852673  73.3993316  89.6116942
   8.5588606  59.8212597  96.6909519   7.6451686  60.0516824  96.8591725
   8.9881707  59.9051041  97.5423551   8.3295065  68.0102489  99.1909413
   7.6766515  68.2578397  98.5361865   8.7075444  67.1966627  98.8571890
   5.2902238  78.0462182  93.2937583   5.4724633  77.2283838  93.7565335
   6.1135224  78.2629875  92.8562473   5.6244404  76.9730368  90.5552631
   6.1532170  76.4622822  89.9422793   5.8872623  76.6572898  91.4198164
   4.3782638  68.7522300 105.6775450   3.7023275  68.6516430 106.3477825
   5.2010271  68.5961514 106.1411447   3.1205420  80.0589228  99.9133066
   3.6723728  80.2220849 100.6782151   3.4611614  80.6493666  99.2413091
   7.9716295  74.8850485 105.7681720   8.5156199  75.4980444 105.2736675
   7.3903140  75.4430064 106.2848733   6.2573808  78.0071203  96.8996748
   6.1324947  77.2060943  96.3907693   6.9152899  78.5017397  96.4110718
   8.3208716  75.8080223  98.5276298   7.3739052  75.6885575  98.4554625
   8.6691489  74.9202721  98.6102559   0.6808289  61.6974362 102.3514540
   1.2042691  61.9436659 103.1140849   0.4620623  62.5294397 101.9317677
   5.3255149  75.6032940  94.7280650   5.1780112  74.6749647  94.9088220
   6.1508643  75.6253030  94.2437725   8.9289271  76.4261498  95.8145523
   9.8535819  76.2204360  95.6769974   8.7604575  76.1777900  96.7234864
   1.8860835  62.6388057 100.0364210   1.5457655  61.8395871 100.4384890
   1.1799841  62.9389768  99.4641044   2.5377306  59.7237370  98.4891533
   3.3603376  59.2497848  98.3670424   2.7815370  60.5027854  98.9890220
   1.1785541  62.7525628  88.7854435   1.8993903  63.1306881  88.2818152
   0.5550845  63.4714505  88.8889413   5.3216664  63.4570777  89.7212767
   5.5380278  64.3395415  89.4201596   4.8410731  63.0656991  88.9918409
   1.9212268  63.4059039  96.3464402   1.9073837  62.5100132  96.0096699
   2.6384696  63.4129702  96.9802688   3.7738399  63.8396379  98.3917529
   3.5156177  64.7613449  98.3901859   3.2423439  63.4426813  99.0817993
   8.7184587  76.9447166  91.1707614   8.8921465  76.3793588  90.4181467
   9.2113479  77.7448061  90.9887104   1.3249164  62.2873419  91.6151972
   1.4465075  61.3590065  91.8142859   1.0351206  62.3012105  90.7030287
   4.1940354  59.9728329  94.7518692   4.2162051  60.0367662  93.7970671
   4.6108413  59.1332838  94.9459198  14.5723979  69.7083589  92.7897914
  15.0155125  68.9590914  92.3917037  13.6950489  69.6993725  92.4071646
   9.7059760  76.2613930  88.2704513  10.4010665  76.8820623  88.4891827
  10.0482910  75.4109281  88.5456891  11.6051183  73.7113636  89.7991843
  12.1302507  74.0500909  89.0741163  11.5173536  72.7760651  89.6154978
   3.2671232  77.6247709 101.9281720   3.5758358  77.3796856 102.8004420
   4.0646714  77.8294348 101.4400590   3.2891844  79.7785619  94.1587097
   2.8496834  79.2861998  94.8519953   4.0399961  79.2358587  93.9179172
   0.8090243  63.8005416 105.8241904   0.8578399  64.6767539 105.4419674
   1.3512758  63.2582809 105.2513547  11.2945089  74.3446539 105.1043041
  10.5040633  74.3270678 104.5647541  11.0578444  74.8834833 105.8592078
  11.4142964  71.1939006 102.4175770  11.4640969  71.0289013 103.3591293
  11.3056888  70.3266265 102.0273651   8.7046727  67.1769934 103.7335077
   9.6056589  67.0376399 103.4419074   8.7794701  67.3424389 104.6733254
   3.0389532  64.5536789 102.5788263   2.1692841  64.8470355 102.3070851
   3.2749012  65.1377234 103.2995527  12.9161161  73.6135947 102.6617791
  12.6245969  73.9765928 103.4981252  12.3033292  72.9002956 102.4831124
  14.1156843  71.1788827  95.1820362  14.9503735  71.6178631  95.3457922
  14.2515972  70.7027480  94.3628607  11.1648349  68.7368562 101.1297849
  11.6402471  68.9296208 100.3216701  10.2413915  68.7927748 100.8841233
   5.7428566  60.7716405 100.0953683   6.2610510  61.5077432  99.7700172
   5.3883698  61.0780399 100.9300442   5.9941160  57.1916688  95.6154580
   6.2742914  56.5239877  96.2415006   6.7791767  57.3845784  95.1029244
   3.7974628  76.3675682  87.1779606   3.2248595  76.9865869  86.7250078
   4.3707422  76.9175044  87.7119528   9.8650018  65.6134322  99.3626155
  10.8167441  65.7132420  99.3838379   9.6953469  64.8212591  99.8724239
   7.8864398  62.6989905  99.5485556   7.2914330  62.9794918  98.8532045
   7.6014094  63.1883806 100.3202297   7.0171888  76.6512832  88.3088188
   7.9502561  76.5858394  88.5121064   6.9295101  77.4869099  87.8502721
   9.6459905  75.9678702  85.2692136   9.5673536  75.6338566  86.1627894
  10.4669572  76.4600470  85.2683608  12.3438096  68.8340442  98.4768455
  12.3114416  67.8956442  98.6628138  12.9538720  68.9124478  97.7434280
   4.1821427  67.7036495  84.5195659   5.1280532  67.5742703  84.5884077
   3.8035672  66.9651157  84.9965087  12.4932585  65.6251485  98.5226738
  11.9771633  64.8409942  98.3356667  13.3772533  65.2970202  98.6873257
  10.1543311  59.3692501  94.4822551   9.9568133  59.0607589  95.3665882
  10.7643017  60.0954140  94.6120480  18.1614646  69.8956449  97.6174491
  18.8918034  69.6341737  98.1782195  17.5521591  69.1585170  97.6576559
  16.2429943  68.0364311  98.2148943  15.5163107  67.9020276  97.6065434
  15.8277230  68.3441140  99.0205661   4.0660119  71.7554241 105.9796316
   4.9863129  71.9332840 106.1736362   4.0309702  70.8110286 105.8276015
   2.3664344  65.6286471  84.4550544   1.4595799  65.3319584  84.5313258
   2.6440325  65.3316289  83.5884830   3.9826410  60.1723361  90.6094785
   3.1727138  59.8270446  90.9850031   4.6710827  59.8630904  91.1982397
   5.9116958  59.2501408  92.2319082   6.4647997  59.6696861  92.8909105
   6.1487044  58.3237156  92.2742038   1.9350057  65.2388481 108.0121846
   1.8346784  66.1882838 107.9433937   1.7171599  64.9106720 107.1397916
   1.1363129  62.4873406  84.5962523   1.9982293  62.8128305  84.8558340
   1.3213473  61.7004902  84.0835589   9.2895765  61.3601933  91.7397746
   8.7094434  62.0186737  91.3575799   9.0231698  60.5379277  91.3285164
   7.7399332  60.7606990  93.9419066   8.2399110  60.8723525  93.1333385
   8.3834939  60.4568043  94.5819875   1.7981327  68.6685620 106.8286907
   1.3148409  69.4685980 107.0350796   1.8842266  68.6793565 105.8754351
   8.0720643  63.5202023  90.7954094   7.1846498  63.8051674  90.5774289
   8.4874632  63.3595786  89.9481371  11.4235179  63.5448544  94.5108434
  12.1995569  64.0344997  94.7833050  10.6983313  63.9706598  94.9680303
  13.8607738  64.2576163  95.5682374  14.4552229  64.0171899  94.8575683
  13.9334322  63.5383294  96.1955911   7.2163857  73.2846698  84.8902114
   7.9199707  73.4896700  85.5059770   6.4926505  73.8523460  85.1551198
   8.0461667  69.0356559  91.0104385   7.9896868  69.4925110  90.1712017
   8.5990009  68.2747244  90.8327227  11.8566473  64.8246291  91.8354504
  11.6003407  64.4242927  92.6662712  11.2319341  65.5390085  91.7104643
  16.1678811  67.5642364  94.3425795  15.6078369  67.6335553  95.1157358
  15.5622314  67.3883349  93.6225292   9.1250554  73.7229227  86.9400574
   9.9596158  73.2910425  86.7578049   8.9634897  73.5511241  87.8677469
   8.7796446  70.2261340  88.3056914   8.7245250  70.0605612  87.3645358
   8.1542501  70.9337373  88.4619103   6.0942353  72.5310252 107.6310477
   6.9633513  72.7050904 107.2697111   5.6149105  73.3504669 107.5086206
   2.0892572  59.7269449  87.8842232   2.0771241  60.6711289  88.0410503
   2.9815994  59.5439595  87.5901693   2.0182136  78.4038340  95.9709989
   1.0677767  78.4040201  95.8574361   2.3214622  77.6571074  95.4546023
   5.9044691  56.3212226  92.1388169   5.1377087  55.7670713  92.2844851
   6.3155396  56.3934095  93.0002321  17.7534829  84.2398878  97.0355751
  18.3913239  84.1205625  96.3319091  17.6355672  85.1879722  97.0943703
  14.5624535  84.1926306  96.9717276  14.2243047  84.0767371  96.0837811
  15.4314304  83.7917471  96.9518282  10.4211351  86.0461783  92.9614167
   9.8576216  85.9551720  92.1930455  10.3063746  85.2261687  93.4416659
  15.0444318  85.3461158 102.9303481  15.0332959  84.9513956 102.0583985
  15.2064958  84.6127231 103.5237253   7.9675783  87.5412974  95.7998387
   8.7597075  87.2003799  95.3844687   8.2072433  87.6507949  96.7200541
  16.0010910  89.7132750  88.2728632  15.3498890  90.2986831  87.8862646
  16.7955273  90.2438945  88.3323669   9.9266537  86.8021887  88.6715766
  10.6997413  86.2550875  88.5328642  10.2791936  87.6666137  88.8830227
  11.7651580  88.1298270 101.8782665  11.4741446  89.0343901 101.7629332
  12.4008564  88.1714797 102.5926735  12.6907786  85.5075118  98.4684025
  13.2871359  85.2831141  97.7540988  12.7482758  84.7659864  99.0709473
  12.2632815  82.9614554  86.3034216  12.5158335  82.4396075  85.5417679
  11.3257374  82.7980699  86.4060900  17.3076098  81.9650332  94.1108959
  18.0939187  81.5469755  93.7599376  17.5714802  82.8696424  94.2790608
  17.4786175  87.4023182  88.8097616  16.8432008  87.4757809  89.5218521
  17.1483581  87.9916781  88.1316695  22.7084525  81.9025565  95.0141938
  23.4409697  81.3324782  95.2479767  21.9523880  81.5147166  95.4548443
  11.9829104  84.8642660  88.5058591  11.8665362  84.1887563  89.1739675
  12.0931363  84.3775033  87.6890744  14.3260644  84.3252807  92.2105280
  13.9618852  83.7983428  92.9218202  15.1827760  83.9351276  92.0371766
  20.2309945  75.6147139  99.4736546  19.8993270  76.4842550  99.2497761
  19.6355558  75.2983423 100.1530577  13.9666131  79.3542706  87.2066629
  14.1340534  80.2222943  87.5737100  13.7763301  79.5169988  86.2827918
  16.7241465  87.8159685  98.8732459  16.4242188  88.7184724  98.7648266
  16.3792524  87.5491868  99.7253612  10.1753946  84.2673482  94.9069163
   9.2504443  84.1349696  95.1146855  10.4238359  85.0467701  95.4039106
  20.1238608  80.3342225  96.5529896  19.2155486  80.2657634  96.2588657
  20.0726204  80.8114170  97.3811722  13.9455352  81.8100364  88.1913296
  13.8254978  82.2557415  89.0298776  13.2507941  82.1585682  87.6326834
   7.5362757  83.9106756  95.7412953   7.6655138  84.1641235  96.6552364
   6.8560208  84.5034464  95.4217608  11.7062244  94.5804006  91.8403427
  11.6286274  95.5311831  91.9191907  11.1023888  94.2349878  92.4978353
  14.1979474  81.7531871 104.4964794  13.4212808  82.3125791 104.4867658
  14.8370037  82.2388654 105.0179664  21.9900255  78.5358664  98.3307770
  21.3474635  78.8291197  97.6847565  21.4855183  78.4211584  99.1360967
  19.6440418  82.2821837  89.0193630  20.5558275  82.5149224  88.8441327
  19.1350066  82.8658881  88.4568708  12.4525846  84.5617324 104.0582761
  13.1940531  85.1002368 103.7817584  11.7462832  85.1883613 104.2154312
  17.9281186  86.7046465 102.6554922  18.3364542  86.2628875 101.9109555
  17.2058448  86.1299092 102.9089115  14.2812256  81.6419072 100.0288479
  15.1273451  82.0658485 100.1723128  14.2210894  80.9852696 100.7227042
  18.2510001  87.2647655  96.4107211  17.6218863  87.4293370  95.7083279
  17.8635663  87.6789265  97.1818175  22.1299233  88.2002093  93.7651575
  21.4450271  88.5800995  93.2148608  22.2143082  88.8097420  94.4983523
  17.4311702  79.3023440 101.6869653  17.1872633  80.0565501 101.1503928
  17.7071632  79.6808788 102.5216900  19.3850164  85.8462052 100.3646918
  19.5967060  86.4893812  99.6881299  19.3379913  85.0124369  99.8968848
  16.9876393  78.4579873  97.2683490  16.1260872  78.7561127  97.5600228
  17.0138828  78.6750272  96.3364523  13.8037963  87.0022064  93.6757296
  14.2676308  87.2809767  92.8861919  13.5394761  86.1005508  93.4930387
  10.6962044  86.5493545  96.6137059  11.2663401  86.9780813  95.9754544
  11.2870156  86.2676130  97.3121245  12.7406849  83.1245216  90.4846861
  13.4430892  83.5766260  90.9520788  12.4087477  82.4829035  91.1126754
  11.1887210  81.7156973 104.8598071  10.5585871  82.3973253 105.0933467
  11.0823298  81.6040054 103.9151209   6.4832183  81.3828769  95.7863995
   5.6931237  81.6386297  95.3104105   6.9743430  82.1977106  95.8916035
  20.4995992  88.7234008  98.5369276  21.3213436  88.3214195  98.2551957
  20.4958395  88.6202242  99.4885391   8.4346928  81.7473348  92.7447472
   7.6378091  81.8592042  93.2630967   8.2072520  82.0860000  91.8788362
  14.2652596  88.2718051 100.6929986  14.3297028  88.7338458 101.5288158
  13.5563520  87.6415416 100.8212296   4.7669886  81.6359259  98.2178986
   5.0177924  82.5206269  98.4836562   5.3029434  81.4563861  97.4454077
  28.5901985  85.0672756  94.8854247  27.8365694  84.4980154  94.7298252
  28.7249526  85.0335421  95.8324882  13.9800613  89.9386159  90.5608966
  13.8446288  90.7837694  90.9893814  14.5210426  90.1405436  89.7974900
  10.4667953  76.0177738 107.2223322  10.0734899  75.4643937 107.8970966
  11.2834093  76.3288317 107.6129839   7.4330011  87.4561597  91.1336892
   7.9454531  88.2504847  91.2842456   8.0852724  86.7587887  91.0670493
   9.2424895  90.5727353  93.2159645   9.4191524  91.4945318  93.0280629
  10.0381729  90.2585772  93.6454025  13.3835914  77.4335617 104.8143578
  14.1245627  78.0342771 104.7348041  13.6153837  76.6913255 104.2561621
   8.5277252  82.6191985 103.0921808   8.4130767  81.7177242 103.3928907
   7.6721770  82.8655682 102.7406624  15.6069090  90.5609725 104.6909309
  15.1632944  89.7746104 104.3730213  16.2686303  90.7488876 104.0253199
  10.3656211  92.0905527  99.2169987  10.9163636  91.9622590  98.4446981
   9.5267687  92.3900416  98.8664880  17.7050328  90.8412525 102.7190710
  17.6868803  91.6621406 102.2270979  18.6270248  90.7166600 102.9440851
  14.1623382  88.3556654 103.5614218  14.6951719  87.5944943 103.3313526
  13.6337463  88.0630306 104.3038373  17.3293077  73.4616720  99.0907860
  16.9857346  74.3518362  99.0146971  17.6972040  73.2718378  98.2277445
   5.3978928  85.7850251  91.9096462   6.2354150  86.1947259  91.6930170
   5.5757195  84.8449693  91.8796656  17.2943360  83.4525332  87.5980295
  16.7789983  84.2229936  87.8368682  17.0220668  82.7790468  88.2213357
  14.8790471  78.2975032  92.6565533  14.0232067  77.9081883  92.4771172
  15.2917422  78.3766993  91.7965319  16.4089617  75.8321376  97.0557093
  15.9054413  75.7951511  96.2424898  16.7020224  76.7414118  97.1153750
  12.6532503  75.9160105  96.0623275  13.5185500  75.7202914  95.7029164
  12.7210012  75.6870457  96.9892632  22.2677634  86.2057686  89.5333469
  21.4907077  85.8668846  89.0888631  22.9469115  86.2110309  88.8588434
  17.0829663  81.3252424  89.4240076  16.7779798  81.6398573  90.2750219
  18.0360105  81.4033844  89.4667409  15.5276095  87.4842647  91.0733030
  14.9997456  86.7495407  90.7606268  15.0263597  88.2617323  90.8272999
  20.5068941  85.6791667  96.1900077  19.8492615  86.3690929  96.2780205
  21.3109340  86.0688099  96.5334063  10.2594822  78.1462313  93.4339642
  10.8338574  77.9237495  92.7012835  10.8465805  78.2151008  94.1868243
  19.3174399  84.0336040  94.2404018  19.8306281  84.6666032  94.7425728
  19.9675623  83.4337236  93.8747378  10.5864409  80.1766774  87.4535527
   9.7501722  80.5141461  87.7744802  10.4469179  80.0415754  86.5162664
  12.5617490  75.0203562  92.1614711  11.9081902  74.7052579  91.5371326
  12.5197964  74.3979303  92.8874534  13.6728695  85.3022857  84.0768003
  12.7655757  85.0712111  84.2759152  14.1699727  84.5060476  84.2641985
  16.5796774  94.0120364  86.9964689  15.9058472  94.3152061  87.6049647
  16.9662596  94.8149445  86.6470146  15.7955230  81.5085496  96.4862359
  14.8777792  81.7300443  96.3284047  16.2115374  81.5831806  95.6274066
  16.5790278  82.9076911  91.6165039  17.3262097  83.4198309  91.3072161
  16.8481868  82.5860964  92.4769433  14.8516928  85.4035452  88.5991993
  13.9428148  85.1194485  88.6964463  14.8812012  85.8234531  87.7395300
  20.0836196  89.0142042  92.3683161  19.6298523  88.1732951  92.4248351
  19.4530162  89.6503440  92.7057941  19.0269115  79.9434028  93.5983828
  18.2891872  79.4311414  93.9294071  19.2795889  79.5034409  92.7867105
  18.5269135  90.8518538  93.3032979  18.8192109  91.4123595  92.5845345
  19.0367755  91.1447099  94.0586138  19.1280743  72.7210280  94.1925598
  19.4339619  71.8607643  93.9051513  19.8533347  73.3127900  93.9924592
   5.4205099  83.1240966  92.5807196   5.2229498  82.5310327  91.8558262
   4.8651763  82.8193176  93.2983134  13.4001822  83.0164073  94.7001789
  13.4550432  82.0637909  94.6244265  12.5893024  83.1723512  95.1843087
  14.5493016  86.9444196  85.9380072  14.1112446  86.2280055  85.4785709
  15.2903457  87.1720311  85.3765163  11.3394182  81.6341132  92.4592168
  10.5262048  81.9335303  92.8657360  11.8353176  81.2396821  93.1766650
  13.4902760  91.6298889  94.3926432  13.4478939  91.8559736  93.4634964
  14.4065459  91.3962264  94.5412233  16.9368394  82.0982957 101.2907061
  17.2917782  82.3254430 102.1501527  17.5840525  82.4301334 100.6684317
  22.6666131  85.2201393  91.9956390  22.5284029  85.4102989  91.0677580
  22.3102350  85.9820776  92.4524442  10.8308257  79.2059488  98.0753403
  11.4707636  79.0648247  97.3776366   9.9985788  78.9194001  97.6992005
  22.6935510  87.2877920  97.0067662  23.1272017  87.1953209  97.8550716
  23.4067091  87.2635420  96.3687678  11.6068561  88.5061918  94.1888395
  12.4009159  88.0112239  93.9870970  10.8960253  87.9779782  93.8256101
  16.4263405  90.8880014  98.5400763  16.4800428  91.4570950  99.3078479
  15.5578187  91.0581899  98.1754800   7.9151324  82.6505000  90.2648148
   6.9848912  82.5889456  90.4818110   8.0108796  82.1280953  89.4684789
   7.8336873  79.1759813  92.8526389   8.0943691  80.0905146  92.7435550
   8.6554046  78.7084256  93.0023002   9.3061799  80.5897570 100.0225214
   9.9784852  80.3814932  99.3737863   8.4791585  80.3919656  99.5830446
  23.5551060  87.3301620  99.5400547  23.7486950  88.2347431  99.7859822
  23.4551678  86.8709040 100.3739132  15.2087371  77.2159511 102.0390875
  14.5615286  77.9149461 101.9455351  15.9788386  77.6495655 102.4067123
  18.6166169  87.4808363 105.1141428  18.4651675  87.2518915 104.1971512
  18.6070848  88.4378965 105.1272773  15.3851505  85.0540276 100.0987694
  16.3143565  85.2051436  99.9256662  14.9642535  85.1424297  99.2436341
  14.1839837  89.0790940  97.8686232  14.0450923  88.7109725  98.7412170
  13.3954433  89.5938580  97.6970190  14.7787989  94.1800037  89.2111769
  14.9539745  93.7088080  90.0257391  14.0920777  94.8065803  89.4393029
  15.7345052  88.4572543  95.2575070  15.3994885  88.4173313  96.1532720
  15.2348998  87.7917259  94.7845480   9.7089296  83.8640173 100.7827651
   9.5709094  83.1320412 101.3839190  10.6194219  83.7749073 100.5011839
  18.6704244  85.8028577  85.5312130  18.0533414  85.0775406  85.4345182
  18.2020732  86.5637938  85.1879204  12.3371597  83.5760132 100.2711331
  13.0471215  82.9353325 100.2297949  12.2940905  83.8273027 101.1937511
  20.3258375  90.5127486 103.1917910  20.2670921  89.8286706 102.5248493
  20.7277894  91.2546476 102.7398536  11.0500531  80.5625350 102.0906970
  10.5137888  80.1116089 102.7428566  10.4617239  80.6971259 101.3477434
   9.3449074  97.3289400  95.9851629   9.5845672  97.9607924  96.6630647
   8.5018271  96.9777440  96.2716988  10.4602790  80.0214002  84.6533434
   9.5832256  79.9002802  84.2895680  10.9360543  79.2300080  84.4012322
  20.3275783  88.4767070 101.4231890  19.4402561  88.1392991 101.5458288
  20.8974334  87.7450101 101.6600655   1.9804930  84.8091161  94.7474941
   2.6675970  84.4952891  94.1595956   1.8253058  85.7132526  94.4742192
   6.7839652  79.6981358  99.1759965   6.6997841  79.0907028  98.4410375
   5.9622358  80.1890376  99.1769461  13.8576936  93.1368522  98.3893133
  13.7847107  93.9423494  98.9012437  13.4154329  93.3360488  97.5641154
  13.6466716  92.3740292  91.8995954  12.8634238  92.9161972  91.9934179
  14.3459461  92.8914272  92.2990195  16.9563366  78.1834922  94.5430160
  17.4532065  77.4304884  94.2231230  16.1850347  78.2199238  93.9773369
  24.8093123  83.8875287  96.1848451  24.7982999  84.7700002  95.8142384
  23.9410503  83.5346838  95.9902988  16.3175620  93.0355356 100.5451291
  17.0303592  93.6702821 100.4727193  15.8265648  93.1319222  99.7291293
  18.0393146  86.9406609  92.1168583  17.1049425  87.0608071  91.9473287
  18.2169815  86.0379076  91.8528593  13.5398334  80.3252305  94.2701844
  13.1696122  79.7723345  94.9582750  14.0357427  79.7210438  93.7176844
  21.4265698  82.7823928  92.6518617  21.8926150  83.6151920  92.5778920
  21.8773198  82.3168910  93.3563876  11.3687533  90.7849800 101.3656862
  12.0696993  91.4186283 101.5186256  10.8982648  91.1264531 100.6052502
  19.4941929  89.1267749  89.6504769  19.7701773  89.0124344  90.5598643
  18.6246428  88.7285234  89.6116942  19.3982361  75.1504515  96.6909519
  18.4845440  75.3808742  96.8591725  19.8275462  75.2342959  97.5423551
  19.1688819  83.3394407  99.1909413  18.5160269  83.5870314  98.5361865
  19.5469199  82.5258545  98.8571890  16.1295993  93.3754100  93.2937583
  16.3118387  92.5575756  93.7565335  16.9528979  93.5921792  92.8562473
  16.4638158  92.3022285  90.5552631  16.9925925  91.7914740  89.9422793
  16.7266378  91.9864816  91.4198164  15.2176392  84.0814218 105.6775450
  14.5417029  83.9808347 106.3477825  16.0404026  83.9253432 106.1411447
   6.9655251  90.3186155  98.2987965   7.5508688  89.5729842  98.4315869
   6.7680090  90.6290111  99.1824629   9.8193906  93.3537402  93.3150407
   9.1504282  93.8383530  92.8314447   9.6806776  93.6006622  94.2293786
   1.5572906  82.8891755  97.0192408   1.5957005  82.3555345  97.8129526
   1.0513199  82.3626960  96.4003385  13.9599175  95.3881145  99.9133066
  14.5117483  95.5512767 100.6782151  14.3005368  95.9785583  99.2413091
   8.9363668  77.7356295 100.5154950   9.0004995  78.5971126 100.1032348
   8.8730788  77.1230297  99.7827309   8.4115941  79.8079428 104.1627985
   9.0387979  79.4256505 104.7765509   7.5543860  79.5893630 104.5283677
  18.8110049  90.2142403 105.7681720  19.3549953  90.8272361 105.2736675
  18.2296894  90.7721981 106.2848733   5.1881483  81.6155857  90.0946339
   5.4834925  80.7066535  90.0413393   4.2869519  81.5943596  89.7727342
  17.0967562  93.3363121  96.8996748  16.9718702  92.5352861  96.3907693
  17.7546653  93.8309314  96.4110718   8.7175730  79.6911854  96.0773888
   7.9962316  80.3047821  95.9381361   9.5068986  80.2269618  95.9990534
  19.1602471  91.1372141  98.5276298  18.2132806  91.0177492  98.4554625
  19.5085244  90.2494639  98.6102559  11.5202044  77.0266280 102.3514540
  12.0436446  77.2728577 103.1140849  11.3014377  77.8586315 101.9317677
   6.9169325  79.2969955  90.2185665   6.5882031  78.4167334  90.0360771
   7.2708696  79.2417623  91.1062054  16.1648904  90.9324857  94.7280650
  16.0173866  90.0041565  94.9088220  16.9902397  90.9544948  94.2437725
  10.0311148  79.5842924  90.5861142  10.3707221  80.1128846  89.8639751
  10.4783269  79.9223331  91.3619709  19.7683026  91.7553416  95.8145523
  20.6929573  91.5496277  95.6769974  19.5998329  91.5069817  96.7234864
  12.7254589  77.9679975 100.0364210  12.3851409  77.1687788 100.4384890
  12.0193595  78.2681686  99.4641044  13.3771061  75.0529288  98.4891533
  14.1997130  74.5789766  98.3670424  13.6209124  75.8319771  98.9890220
  12.0179295  78.0817546  88.7854435  12.7387658  78.4598799  88.2818152
  11.3944599  78.8006423  88.8889413  16.1610418  78.7862695  89.7212767
  16.3774033  79.6687333  89.4201596  15.6804485  78.3948908  88.9918409
  10.9009640  81.7448408  96.2983512  10.7554220  82.0588711  97.1907793
  10.4234843  82.3633309  95.7454411  12.7606022  78.7350956  96.3464402
  12.7467591  77.8392049  96.0096699  13.4778451  78.7421620  96.9802688
  14.6132153  79.1688296  98.3917529  14.3549931  80.0905367  98.3901859
  14.0817194  78.7718731  99.0817993  19.5578342  92.2739083  91.1707614
  19.7315219  91.7085506  90.4181467  20.0507233  93.0739978  90.9887104
   5.3755302  84.2853753  99.2371173   4.8308770  85.0613561  99.3691447
   6.2534652  84.6324557  99.0790295  12.1642918  77.6165336  91.6151972
  12.2858830  76.6881983  91.8142859  11.8744961  77.6304022  90.7030287
  15.0334109  75.3020247  94.7518692  15.0555806  75.3659580  93.7970671
  15.4502168  74.4624756  94.9459198  25.4117733  85.0375506  92.7897914
  25.8548879  84.2882832  92.3917037  24.5344243  85.0285643  92.4071646
  20.5453514  91.5905848  88.2704513  21.2404419  92.2112541  88.4891827
  20.8876665  90.7401199  88.5456891   6.1621324  83.4123649 102.1301330
   5.4203060  83.5606284 102.7165960   5.8414068  83.6731914 101.2668079
  22.4444938  89.0405553  89.7991843  22.9696262  89.3792826  89.0741163
  22.3567290  88.1052569  89.6154978  14.1064986  92.9539627 101.9281720
  14.4152113  92.7088774 102.8004420  14.9040468  93.1586266 101.4400590
  14.1285598  95.1077537  94.1587097  13.6890589  94.6153915  94.8519953
  14.8793715  94.5650504  93.9179172   6.6077937  91.2989078  94.1611725
   7.4335957  90.9992849  93.7810368   6.2571989  90.5296700  94.6101513
  11.5759470  90.6515546  96.2309398  10.9539480  89.9886251  95.9311626
  12.2464337  90.6776678  95.5483046   4.8086542  89.2175404  95.1200658
   3.9718451  88.7897578  94.9384660   4.7810188  89.4107847  96.0571449
  11.6483998  79.1297334 105.8241904  11.6972153  80.0059457 105.4419674
  12.1906512  78.5874727 105.2513547  22.1338844  89.6738457 105.1043041
  21.3434387  89.6562596 104.5647541  21.8972198  90.2126751 105.8592078
  22.2536719  86.5230923 102.4175770  22.3034724  86.3580931 103.3591293
  22.1450642  85.6558182 102.0273651  11.1372977  89.2019469  89.7067859
  11.2861098  89.8854934  89.0534532  11.9439421  89.1824559  90.2217315
  19.5440481  82.5061851 103.7335077  20.4450344  82.3668316 103.4419074
  19.6188456  82.6716306 104.6733254  13.8783286  79.8828706 102.5788263
  13.0086596  80.1762272 102.3070851  14.1142767  80.4669151 103.2995527
  23.7554915  88.9427865 102.6617791  23.4639724  89.3057846 103.4981252
  23.1427047  88.2294873 102.4831124  24.9550598  86.5080745  95.1820362
  25.7897489  86.9470549  95.3457922  25.0909727  86.0319398  94.3628607
  22.0042104  84.0660480 101.1297849  22.4796225  84.2588126 100.3216701
  21.0807669  84.1219665 100.8841233   8.8925610  85.2284647  90.7128928
   8.6471652  84.3246977  90.9109138   9.0621525  85.2301797  89.7708406
  16.5822320  76.1008323 100.0953683  17.1004264  76.8369350  99.7700172
  16.2277453  76.4072316 100.9300442   8.1621258  80.9613004  88.2115089
   7.4690503  81.0357359  87.5555125   7.9173010  80.1973348  88.7336606
  16.8334914  72.5208606  95.6154580  17.1136668  71.8531795  96.2415006
  17.6185521  72.7137701  95.1029244  14.6368383  91.6967600  87.1779606
  14.0642350  92.3157787  86.7250078  15.2101177  92.2466961  87.7119528
  20.7043773  80.9426240  99.3626155  21.6561196  81.0424337  99.3838379
  20.5347223  80.1504508  99.8724239  18.7258152  78.0281823  99.5485556
  18.1308084  78.3086836  98.8532045  18.4407849  78.5175724 100.3202297
  17.8565643  91.9804750  88.3088188  18.7896316  91.9150311  88.5121064
  17.7688855  92.8161017  87.8502721  20.4853659  91.2970620  85.2692136
  20.4067291  90.9630484  86.1627894  21.3063326  91.7892388  85.2683608
  23.1831851  84.1632359  98.4768455  23.1508171  83.2248360  98.6628138
  23.7932474  84.2416396  97.7434280  15.0215181  83.0328412  84.5195659
  15.9674286  82.9034620  84.5884077  14.6429426  82.2943074  84.9965087
  23.3326339  80.9543403  98.5226738  22.8165388  80.1701859  98.3356667
  24.2166288  80.6262119  98.6873257  20.9937066  74.6984418  94.4822551
  20.7961887  74.3899507  95.3665882  21.6036771  75.4246057  94.6120480
  29.0008400  85.2248366  97.6174491  29.7311789  84.9633654  98.1782195
  28.3915346  84.4877088  97.6576559  27.0823697  83.3656229  98.2148943
  26.3556861  83.2312194  97.6065434  26.6670984  83.6733057  99.0205661
  14.9053874  87.0846158 105.9796316  15.8256883  87.2624757 106.1736362
  14.8703457  86.1402204 105.8276015  13.2058099  80.9578389  84.4550544
  12.2989554  80.6611501  84.5313258  13.4834080  80.6608207  83.5884830
   4.1236039  82.2784752  94.9049590   3.8038823  81.4250060  94.6123964
   3.5769467  82.4933330  95.6607558   7.9015946  84.9947193  98.6219097
   8.1201956  85.9264301  98.6407131   8.3141720  84.6355168  99.4073901
  14.8220164  75.5015278  90.6094785  14.0120893  75.1562363  90.9850031
  15.5104581  75.1922822  91.1982397  16.7510713  74.5793325  92.2319082
  17.3041751  74.9988779  92.8909105  16.9880799  73.6529073  92.2742038
  12.7743812  80.5680399 108.0121846  12.6740539  81.5174756 107.9433937
  12.5565354  80.2398638 107.1397916  11.9756883  77.8165324  84.5962523
  12.8376047  78.1420222  84.8558340  12.1607227  77.0296820  84.0835589
   3.9924299  85.8987664  96.8742712   3.2987770  85.4841616  96.3612666
   4.7397290  85.9408200  96.2776131  20.1289520  76.6893850  91.7397746
  19.5488189  77.3478654  91.3575799  19.8625452  75.8671195  91.3285164
  18.5793086  76.0898908  93.9419066  19.0792864  76.2015443  93.1333385
  19.2228694  75.7859961  94.5819875  12.6375082  83.9977538 106.8286907
  12.1542164  84.7977898 107.0350796  12.7236021  84.0085483 105.8754351
   5.9061041  85.8305917  94.7508727   5.8831730  85.9293605  93.7990610
   6.2161678  86.6771068  95.0725893   8.5648419  87.8882072  98.8655341
   9.5191673  87.8566015  98.7985273   8.3660943  87.4272696  99.6805567
   9.1547801  86.4583188 101.4326139   9.9740690  86.9527267 101.4560976
   9.4284609  85.5415157 101.4043706  18.9114398  78.8493941  90.7954094
  18.0240253  79.1343591  90.5774289  19.3268387  78.6887704  89.9481371
  22.2628934  78.8740462  94.5108434  23.0389324  79.3636914  94.7833050
  21.5377068  79.2998516  94.9680303  24.7001492  79.5868081  95.5682374
  25.2945983  79.3463817  94.8575683  24.7728076  78.8675212  96.1955911
   6.9198648  93.4301692  95.8825539   6.7853116  92.6702093  95.3163537
   6.5030710  94.1542592  95.4154328  18.0557611  88.6138615  84.8902114
  18.7593461  88.8188618  85.5059770  17.3320260  89.1815377  85.1551198
  18.8855421  84.3648477  91.0104385  18.8290623  84.8217028  90.1712017
  19.4383764  83.6039161  90.8327227  22.6960227  80.1538209  91.8354504
  22.4397162  79.7534844  92.6662712  22.0713095  80.8682003  91.7104643
  27.0072565  82.8934282  94.3425795  26.4472123  82.9627471  95.1157358
  26.4016069  82.7175266  93.6225292  10.0767774  94.3271009  96.0943982
   9.9600158  95.2716441  95.9922672   9.2560220  94.0244571  96.4829781
  19.9644309  89.0521145  86.9400574  20.7989912  88.6202343  86.7578049
  19.8028651  88.8803158  87.8677469  19.6190201  85.5553258  88.3056914
  19.5639004  85.3897529  87.3645358  18.9936256  86.2629291  88.4619103
   4.4082716  80.7921322 102.1318336   5.0541579  80.2820276 102.6205561
   4.1999867  81.5290004 102.7061761  16.9336108  87.8602170 107.6310477
  17.8027268  88.0342822 107.2697111  16.4542859  88.6796587 107.5086206
  12.9286326  75.0561367  87.8842232  12.9164996  76.0003207  88.0410503
  13.8209748  74.8731512  87.5901693  11.1022288  94.9799271  99.3099910
  12.0049535  95.0122881  99.6266405  10.8759658  94.0499722  99.3246246
  12.8575890  93.7330257  95.9709989  11.9071521  93.7332119  95.8574361
  13.1608376  92.9862992  95.4546023  16.7438446  71.6504144  92.1388169
  15.9770841  71.0962630  92.2844851  17.1549151  71.7226012  93.0002321
   8.7480207  77.9388939 106.2293350   9.6111668  77.5825744 106.4396675
   8.1745617  77.6002834 106.9168754  28.5928584  99.5690796  97.0355751
  29.2306994  99.4497543  96.3319091  28.4749426 100.5171640  97.0943703
  25.4018290  99.5218224  96.9717276  25.0636801  99.4059289  96.0837811
  26.2708058  99.1209389  96.9518282  21.2605106 101.3753700  92.9614167
  20.6969971 101.2843637  92.1930455  21.1457501 100.5553605  93.4416659
  25.8838073 100.6753076 102.9303481  25.8726714 100.2805874 102.0583985
  26.0458712  99.9419148 103.5237253  18.8069538 102.8704892  95.7998387
  19.5990829 102.5295717  95.3844687  19.0466188 102.9799867  96.7200541
  26.8404664 105.0424668  88.2728632  26.1892644 105.6278748  87.8862646
  27.6349027 105.5730863  88.3323669  20.7660291 102.1313805  88.6715766
  21.5391167 101.5842792  88.5328642  21.1185690 102.9958054  88.8830227
  22.6045334 103.4590187 101.8782665  22.3135200 104.3635818 101.7629332
  23.2402318 103.5006715 102.5926735  23.5301541 100.8367036  98.4684025
  24.1265113 100.6123058  97.7540988  23.5876512 100.0951781  99.0709473
  23.1026569  98.2906471  86.3034216  23.3552090  97.7687993  85.5417679
  22.1651128  98.1272617  86.4060900  28.1469852  97.2942250  94.1108959
  28.9332941  96.8761673  93.7599376  28.4108556  98.1988342  94.2790608
  28.3179929 102.7315100  88.8097616  27.6825762 102.8049726  89.5218521
  27.9877336 103.3208699  88.1316695  33.5478279  97.2317483  95.0141938
  34.2803451  96.6616700  95.2479767  32.7917635  96.8439083  95.4548443
  22.8222858 100.1934577  88.5058591  22.7059116  99.5179481  89.1739675
  22.9325118  99.7066951  87.6890744  25.1654399  99.6544724  92.2105280
  24.8012606  99.1275345  92.9218202  26.0221515  99.2643193  92.0371766
  31.0703700  90.9439057  99.4736546  30.7387024  91.8134468  99.2497761
  30.4749313  90.6275341 100.1530577  24.8059886  94.6834624  87.2066629
  24.9734288  95.5514860  87.5737100  24.6157055  94.8461906  86.2827918
  27.5635219 103.1451603  98.8732459  27.2635942 104.0476642  98.7648266
  27.2186279 102.8783786  99.7253612  21.0147701  99.5965400  94.9069163
  20.0898197  99.4641614  95.1146855  21.2632114 100.3759619  95.4039106
  30.9632363  95.6634143  96.5529896  30.0549240  95.5949552  96.2588657
  30.9119959  96.1406088  97.3811722  24.7849107  97.1392282  88.1913296
  24.6648732  97.5849332  89.0298776  24.0901695  97.4877599  87.6326834
  18.3756512  99.2398673  95.7412953  18.5048893  99.4933152  96.6552364
  17.6953963  99.8326381  95.4217608  22.5455999 109.9095923  91.8403427
  22.4680029 110.8603748  91.9191907  21.9417642 109.5641796  92.4978353
  25.0373229  97.0823789 104.4964794  24.2606563  97.6417709 104.4867658
  25.6763792  97.5680572 105.0179664  32.8294009  93.8650582  98.3307770
  32.1868390  94.1583115  97.6847565  32.3248938  93.7503502  99.1360967
  30.4834173  97.6113755  89.0193630  31.3952029  97.8441141  88.8441327
  29.9743820  98.1950799  88.4568708  23.2919601  99.8909242 104.0582761
  24.0334285 100.4294286 103.7817584  22.5856586 100.5175531 104.2154312
  28.7674941 102.0338383 102.6554922  29.1758297 101.5920793 101.9109555
  28.0452202 101.4591010 102.9089115  25.1206011  96.9710989 100.0288479
  25.9667206  97.3950403 100.1723128  25.0604648  96.3144614 100.7227042
  29.0903755 102.5939573  96.4107211  28.4612618 102.7585287  95.7083279
  28.7029417 103.0081183  97.1818175  32.9692987 103.5294011  93.7651575
  32.2844025 103.9092912  93.2148608  33.0536836 104.1389338  94.4983523
  28.2705456  94.6315358 101.6869653  28.0266388  95.3857418 101.1503928
  28.5465387  95.0100705 102.5216900  30.2243919 101.1753970 100.3646918
  30.4360814 101.8185730  99.6881299  30.1773667 100.3416287  99.8968848
  27.8270148  93.7871791  97.2683490  26.9654627  94.0853044  97.5600228
  27.8532582  94.0042190  96.3364523  24.6431717 102.3313981  93.6757296
  25.1070063 102.6101684  92.8861919  24.3788515 101.4297426  93.4930387
  21.5355798 101.8785463  96.6137059  22.1057155 102.3072731  95.9754544
  22.1263910 101.5968047  97.3121245  23.5800603  98.4537134  90.4846861
  24.2824647  98.9058177  90.9520788  23.2481232  97.8120952  91.1126754
  22.0280965  97.0448890 104.8598071  21.3979625  97.7265171 105.0933467
  21.9217053  96.9331972 103.9151209  17.3225937  96.7120686  95.7863995
  16.5324991  96.9678215  95.3104105  17.8137185  97.5269024  95.8916035
  31.3389747 104.0525925  98.5369276  32.1607190 103.6506113  98.2551957
  31.3352150 103.9494160  99.4885391  19.2740683  97.0765266  92.7447472
  18.4771846  97.1883960  93.2630967  19.0466275  97.4151918  91.8788362
  25.1046350 103.6009969 100.6929986  25.1690783 104.0630376 101.5288158
  24.3957274 102.9707334 100.8212296  15.6063640  96.9651177  98.2178986
  15.8571679  97.8498187  98.4836562  16.1423189  96.7855778  97.4454077
  39.4295740 100.3964674  94.8854247  38.6759448  99.8272072  94.7298252
  39.5643281 100.3627338  95.8324882  24.8194368 105.2678076  90.5608966
  24.6840043 106.1129612  90.9893814  25.3604180 105.4697354  89.7974900
  21.3061707  91.3469656 107.2223322  20.9128653  90.7935855 107.8970966
  22.1227848  91.6580235 107.6129839  18.2723765 102.7853514  91.1336892
  18.7848286 103.5796765  91.2842456  18.9246478 102.0879805  91.0670493
  20.0818650 105.9019271  93.2159645  20.2585278 106.8237235  93.0280629
  20.8775483 105.5877690  93.6454025  24.2229668  92.7627535 104.8143578
  24.9639382  93.3634688 104.7348041  24.4547591  92.0205173 104.2561621
  19.3671006  97.9483902 103.0921808  19.2524522  97.0469160 103.3928907
  18.5115524  98.1947599 102.7406624  26.4462844 105.8901643 104.6909309
  26.0026698 105.1038021 104.3730213  27.1080058 106.0780793 104.0253199
  21.2049965 107.4197444  99.2169987  21.7557390 107.2914508  98.4446981
  20.3661441 107.7192333  98.8664880  28.5444082 106.1704443 102.7190710
  28.5262558 106.9913324 102.2270979  29.4664002 106.0458518 102.9440851
  25.0017136 103.6848572 103.5614218  25.5345473 102.9236860 103.3313526
  24.4731218 103.3922224 104.3038373  28.1686831  88.7908638  99.0907860
  27.8251101  89.6810280  99.0146971  28.5365794  88.6010296  98.2277445
  16.2372682 101.1142169  91.9096462  17.0747904 101.5239177  91.6930170
  16.4150950 100.1741611  91.8796656  28.1337114  98.7817249  87.5980295
  27.6183738  99.5521854  87.8368682  27.8614423  98.1082385  88.2213357
  25.7184225  93.6266950  92.6565533  24.8625821  93.2373800  92.4771172
  26.1311177  93.7058911  91.7965319  27.2483372  91.1613293  97.0557093
  26.7448167  91.1243428  96.2424898  27.5413979  92.0706036  97.1153750
  23.4926258  91.2452023  96.0623275  24.3579254  91.0494832  95.7029164
  23.5603767  91.0162375  96.9892632  33.1071388 101.5349604  89.5333469
  32.3300831 101.1960763  89.0888631  33.7862869 101.5402227  88.8588434
  27.9223417  96.6544341  89.4240076  27.6173553  96.9690490  90.2750219
  28.8753859  96.7325761  89.4667409  26.3669849 102.8134565  91.0733030
  25.8391211 102.0787324  90.7606268  25.8657352 103.5909241  90.8272999
  31.3462695 101.0083585  96.1900077  30.6886370 101.6982847  96.2780205
  32.1503094 101.3980017  96.5334063  21.0988577  93.4754231  93.4339642
  21.6732329  93.2529412  92.7012835  21.6859559  93.5442925  94.1868243
  30.1568154  99.3627958  94.2404018  30.6700036  99.9957950  94.7425728
  30.8069378  98.7629153  93.8747378  21.4258164  95.5058692  87.4535527
  20.5895476  95.8433378  87.7744802  21.2862933  95.3707672  86.5162664
  23.4011244  90.3495480  92.1614711  22.7475657  90.0344497  91.5371326
  23.3591719  89.7271220  92.8874534  24.5122449 100.6314775  84.0768003
  23.6049511 100.4004028  84.2759152  25.0093481  99.8352394  84.2641985
  27.4190528 109.3412282  86.9964689  26.7452227 109.6443979  87.6049647
  27.8056350 110.1441362  86.6470146  26.6348985  96.8377413  96.4862359
  25.7171546  97.0592360  96.3284047  27.0509128  96.9123724  95.6274066
  27.4184033  98.2368829  91.6165039  28.1655852  98.7490226  91.3072161
  27.6875622  97.9152882  92.4769433  25.6910683 100.7327370  88.5991993
  24.7821902 100.4486403  88.6964463  25.7205767 101.1526448  87.7395300
  30.9229950 104.3433959  92.3683161  30.4692277 103.5024869  92.4248351
  30.2923917 104.9795358  92.7057941  29.8662870  95.2725945  93.5983828
  29.1285627  94.7603331  93.9294071  30.1189643  94.8326327  92.7867105
  29.3662889 106.1810456  93.3032979  29.6585864 106.7415513  92.5845345
  29.8761510 106.4739017  94.0586138  29.9674497  88.0502197  94.1925598
  30.2733374  87.1899561  93.9051513  30.6927102  88.6419817  93.9924592
  16.2598853  98.4532884  92.5807196  16.0623253  97.8602245  91.8558262
  15.7045517  98.1485094  93.2983134  24.2395577  98.3455990  94.7001789
  24.2944187  97.3929827  94.6244265  23.4286779  98.5015429  95.1843087
  25.3886771 102.2736113  85.9380072  24.9506200 101.5571972  85.4785709
  26.1297211 102.5012228  85.3765163  22.1787937  96.9633050  92.4592168
  21.3655802  97.2627221  92.8657360  22.6746931  96.5688739  93.1766650
  24.3296515 106.9590807  94.3926432  24.2872693 107.1851653  93.4634964
  25.2459213 106.7254182  94.5412233  27.7762148  97.4274875 101.2907061
  28.1311536  97.6546348 102.1501527  28.4234280  97.7593251 100.6684317
  33.5059885 100.5493310  91.9956390  33.3677784 100.7394906  91.0677580
  33.1496104 101.3112693  92.4524442  21.6702011  94.5351406  98.0753403
  22.3101391  94.3940165  97.3776366  20.8379542  94.2485919  97.6992005
  33.5329265 102.6169837  97.0067662  33.9665772 102.5245127  97.8550716
  34.2460846 102.5927338  96.3687678  22.4462315 103.8353836  94.1888395
  23.2402914 103.3404156  93.9870970  21.7354008 103.3071699  93.8256101
  27.2657160 106.2171932  98.5400763  27.3194182 106.7862868  99.3078479
  26.3971941 106.3873817  98.1754800  18.7545079  97.9796918  90.2648148
  17.8242667  97.9181373  90.4818110  18.8502551  97.4572871  89.4684789
  18.6730628  94.5051731  92.8526389  18.9337445  95.4197064  92.7435550
  19.4947800  94.0376173  93.0023002  20.1455553  95.9189488 100.0225214
  20.8178607  95.7106850  99.3737863  19.3185340  95.7211574  99.5830446
  34.3944815 102.6593538  99.5400547  34.5880705 103.5639349  99.7859822
  34.2945433 102.2000957 100.3739132  26.0481125  92.5451429 102.0390875
  25.4009040  93.2441378 101.9455351  26.8182141  92.9787573 102.4067123
  29.4559923 102.8100281 105.1141428  29.3045430 102.5810833 104.1971512
  29.4464603 103.7670882 105.1272773  26.2245260 100.3832194 100.0987694
  27.1537320 100.5343353  99.9256662  25.8036290 100.4716214  99.2436341
  25.0233591 104.4082858  97.8686232  24.8844677 104.0401642  98.7412170
  24.2348188 104.9230497  97.6970190  25.6181743 109.5091955  89.2111769
  25.7933499 109.0379998  90.0257391  24.9314531 110.1357721  89.4393029
  26.5738807 103.7864461  95.2575070  26.2388639 103.7465231  96.1532720
  26.0742752 103.1209177  94.7845480  20.5483050  99.1932091 100.7827651
  20.4102848  98.4612330 101.3839190  21.4587974  99.1040991 100.5011839
  29.5097998 101.1320495  85.5312130  28.8927169 100.4067323  85.4345182
  29.0414487 101.8929855  85.1879204  23.1765351  98.9052050 100.2711331
  23.8864970  98.2645242 100.2297949  23.1334659  99.1564945 101.1937511
  31.1652130 105.8419403 103.1917910  31.1064676 105.1578624 102.5248493
  31.5671648 106.5838393 102.7398536  21.8894285  95.8917268 102.0906970
  21.3531642  95.4408006 102.7428566  21.3010994  96.0263177 101.3477434
  20.1842829 112.6581317  95.9851629  20.4239427 113.2899841  96.6630647
  19.3412025 112.3069357  96.2716988  21.2996544  95.3505919  84.6533434
  20.4226010  95.2294720  84.2895680  21.7754297  94.5591998  84.4012322
  31.1669537 103.8058987 101.4231890  30.2796316 103.4684909 101.5458288
  31.7368088 103.0742019 101.6600655  12.8198684 100.1383079  94.7474941
  13.5069724  99.8244809  94.1595956  12.6646813 101.0424444  94.4742192
  17.6233406  95.0273276  99.1759965  17.5391595  94.4198945  98.4410375
  16.8016113  95.5182294  99.1769461  24.6970690 108.4660440  98.3893133
  24.6240862 109.2715411  98.9012437  24.2548084 108.6652406  97.5641154
  24.4860470 107.7032210  91.8995954  23.7027992 108.2453890  91.9934179
  25.1853215 108.2206189  92.2990195  27.7957120  93.5126839  94.5430160
  28.2925820  92.7596802  94.2231230  27.0244102  93.5491156  93.9773369
  35.6486878  99.2167205  96.1848451  35.6376754 100.0991920  95.8142384
  34.7804257  98.8638756  95.9902988  27.1569374 108.3647274 100.5451291
  27.8697346 108.9994739 100.4727193  26.6659403 108.4611140  99.7291293
  28.8786901 102.2698526  92.1168583  27.9443180 102.3899989  91.9473287
  29.0563569 101.3670993  91.8528593  24.3792089  95.6544222  94.2701844
  24.0089876  95.1015263  94.9582750  24.8751181  95.0502356  93.7176844
  32.2659452  98.1115846  92.6518617  32.7319904  98.9443837  92.5778920
  32.7166953  97.6460827  93.3563876  22.2081288 106.1141717 101.3656862
  22.9090747 106.7478200 101.5186256  21.7376403 106.4556449 100.6052502
  30.3335683 104.4559667  89.6504769  30.6095527 104.3416262  90.5598643
  29.4640182 104.0577152  89.6116942  30.2376115  90.4796433  96.6909519
  29.3239195  90.7100660  96.8591725  30.6669216  90.5634877  97.5423551
  30.0082574  98.6686325  99.1909413  29.3554024  98.9162232  98.5361865
  30.3862953  97.8550463  98.8571890  26.9689747 108.7046018  93.2937583
  27.1512142 107.8867674  93.7565335  27.7922733 108.9213710  92.8562473
  27.3031913 107.6314203  90.5552631  27.8319679 107.1206658  89.9422793
  27.5660132 107.3156733  91.4198164  26.0570147  99.4106136 105.6775450
  25.3810784  99.3100265 106.3477825  26.8797780  99.2545349 106.1411447
  17.8049006 105.6478072  98.2987965  18.3902442 104.9021760  98.4315869
  17.6073844 105.9582029  99.1824629  20.6587661 108.6829320  93.3150407
  19.9898036 109.1675447  92.8314447  20.5200531 108.9298540  94.2293786
  12.3966660  98.2183672  97.0192408  12.4350760  97.6847263  97.8129526
  11.8906953  97.6918878  96.4003385  24.7992929 110.7173063  99.9133066
  25.3511237 110.8804685 100.6782151  25.1399123 111.3077501  99.2413091
  19.7757423  93.0648213 100.5154950  19.8398749  93.9263044 100.1032348
  19.7124543  92.4522215  99.7827309  19.2509695  95.1371346 104.1627985
  19.8781734  94.7548423 104.7765509  18.3937614  94.9185547 104.5283677
  29.6503804 105.5434321 105.7681720  30.1943708 106.1564279 105.2736675
  29.0690649 106.1013899 106.2848733  16.0275238  96.9447775  90.0946339
  16.3228679  96.0358453  90.0413393  15.1263274  96.9235514  89.7727342
  27.9361317 108.6655039  96.8996748  27.8112456 107.8644779  96.3907693
  28.5940408 109.1601232  96.4110718  19.5569485  95.0203771  96.0773888
  18.8356071  95.6339739  95.9381361  20.3462741  95.5561536  95.9990534
  29.9996225 106.4664059  98.5276298  29.0526561 106.3469410  98.4554625
  30.3478998 105.5786557  98.6102559  22.3595798  92.3558198 102.3514540
  22.8830200  92.6020494 103.1140849  22.1408132  93.1878233 101.9317677
  17.7563080  94.6261872  90.2185665  17.4275786  93.7459251  90.0360771
  18.1102450  94.5709541  91.1062054  27.0042658 106.2616775  94.7280650
  26.8567621 105.3333482  94.9088220  27.8296152 106.2836866  94.2437725
  20.8704903  94.9134842  90.5861142  21.2100975  95.4420763  89.8639751
  21.3177023  95.2515248  91.3619709  30.6076780 107.0845334  95.8145523
  31.5323328 106.8788195  95.6769974  30.4392084 106.8361735  96.7234864
  23.5648343  93.2971893 100.0364210  23.2245164  92.4979706 100.4384890
  22.8587350  93.5973604  99.4641044  24.2164815  90.3821205  98.4891533
  25.0390885  89.9081683  98.3670424  24.4602879  91.1611689  98.9890220
  22.8573050  93.4109464  88.7854435  23.5781412  93.7890716  88.2818152
  22.2338354  94.1298340  88.8889413  27.0004173  94.1154613  89.7212767
  27.2167787  94.9979251  89.4201596  26.5198240  93.7240826  88.9918409
  21.7403394  97.0740326  96.2983512  21.5947975  97.3880629  97.1907793
  21.2628598  97.6925226  95.7454411  23.5999777  94.0642874  96.3464402
  23.5861346  93.1683967  96.0096699  24.3172205  94.0713538  96.9802688
  25.4525908  94.4980214  98.3917529  25.1943685  95.4197285  98.3901859
  24.9210948  94.1010649  99.0817993  30.3972096 107.6031001  91.1707614
  30.5708974 107.0377424  90.4181467  30.8900988 108.4031896  90.9887104
  16.2149056  99.6145670  99.2371173  15.6702524 100.3905478  99.3691447
  17.0928406  99.9616475  99.0790295  23.0036673  92.9457254  91.6151972
  23.1252584  92.0173900  91.8142859  22.7138715  92.9595940  90.7030287
  25.8727863  90.6312165  94.7518692  25.8949560  90.6951498  93.7970671
  26.2895922  89.7916673  94.9459198  36.2511488 100.3667424  92.7897914
  36.6942634  99.6174749  92.3917037  35.3737998 100.3577560  92.4071646
  31.3847269 106.9197766  88.2704513  32.0798174 107.5404458  88.4891827
  31.7270419 106.0693117  88.5456891  17.0015078  98.7415567 102.1301330
  16.2596814  98.8898202 102.7165960  16.6807822  99.0023832 101.2668079
  33.2838692 104.3697471  89.7991843  33.8090016 104.7084744  89.0741163
  33.1961045 103.4344486  89.6154978  24.9458741 108.2831545 101.9281720
  25.2545867 108.0380692 102.8004420  25.7434223 108.4878183 101.4400590
  24.9679353 110.4369454  94.1587097  24.5284343 109.9445833  94.8519953
  25.7187470 109.8942422  93.9179172  17.4471692 106.6280995  94.1611725
  18.2729712 106.3284767  93.7810368  17.0965744 105.8588618  94.6101513
  22.4153225 105.9807463  96.2309398  21.7933234 105.3178168  95.9311626
  23.0858092 106.0068595  95.5483046  15.6480297 104.5467322  95.1200658
  14.8112205 104.1189496  94.9384660  15.6203942 104.7399765  96.0571449
  22.4877752  94.4589251 105.8241904  22.5365908  95.3351374 105.4419674
  23.0300267  93.9166645 105.2513547  32.9732598 105.0030375 105.1043041
  32.1828142 104.9854514 104.5647541  32.7365953 105.5418668 105.8592078
  33.0930473 101.8522841 102.4175770  33.1428478 101.6872849 103.3591293
  32.9844396 100.9850100 102.0273651  21.9766732 104.5311387  89.7067859
  22.1254852 105.2146851  89.0534532  22.7833175 104.5116477  90.2217315
  30.3834236  97.8353769 103.7335077  31.2844098  97.6960234 103.4419074
  30.4582210  98.0008224 104.6733254  24.7177041  95.2120624 102.5788263
  23.8480350  95.5054190 102.3070851  24.9536521  95.7961069 103.2995527
  34.5948670 104.2719783 102.6617791  34.3033478 104.6349763 103.4981252
  33.9820801 103.5586791 102.4831124  35.7944352 101.8372662  95.1820362
  36.6291244 102.2762466  95.3457922  35.9303481 101.3611316  94.3628607
  32.8435858  99.3952397 101.1297849  33.3189980  99.5880044 100.3216701
  31.9201424  99.4511583 100.8841233  19.7319365 100.5576564  90.7128928
  19.4865407  99.6538894  90.9109138  19.9015279 100.5593715  89.7708406
  27.4216075  91.4300241 100.0953683  27.9398019  92.1661268  99.7700172
  27.0671207  91.7364234 100.9300442  19.0015012  96.2904922  88.2115089
  18.3084257  96.3649277  87.5555125  18.7566764  95.5265266  88.7336606
  27.6728669  87.8500523  95.6154580  27.9530423  87.1823712  96.2415006
  28.4579276  88.0429619  95.1029244  25.4762137 107.0259517  87.1779606
  24.9036104 107.6449704  86.7250078  26.0494931 107.5758879  87.7119528
  31.5437527  96.2718157  99.3626155  32.4954950  96.3716255  99.3838379
  31.3740978  95.4796426  99.8724239  29.5651907  93.3573741  99.5485556
  28.9701839  93.6378753  98.8532045  29.2801603  93.8467641 100.3202297
  28.6959397 107.3096667  88.3088188  29.6290070 107.2442229  88.5121064
  28.6082610 108.1452934  87.8502721  31.3247414 106.6262538  85.2692136
  31.2461045 106.2922401  86.1627894  32.1457081 107.1184306  85.2683608
  34.0225605  99.4924277  98.4768455  33.9901925  98.5540278  98.6628138
  34.6326229  99.5708314  97.7434280  25.8608936  98.3620330  84.5195659
  26.8068041  98.2326538  84.5884077  25.4823181  97.6234992  84.9965087
  34.1720093  96.2835320  98.5226738  33.6559142  95.4993777  98.3356667
  35.0560042  95.9554037  98.6873257  31.8330820  90.0276336  94.4822551
  31.6355642  89.7191424  95.3665882  32.4430526  90.7537975  94.6120480
  39.8402155 100.5540284  97.6174491  40.5705543 100.2925572  98.1782195
  39.2309100  99.8169006  97.6576559  37.9217452  98.6948146  98.2148943
  37.1950616  98.5604111  97.6065434  37.5064739  99.0024975  99.0205661
  25.7447628 102.4138076 105.9796316  26.6650638 102.5916675 106.1736362
  25.7097211 101.4694122 105.8276015  24.0451853  96.2870306  84.4550544
  23.1383308  95.9903419  84.5313258  24.3227834  95.9900124  83.5884830
  14.9629793  97.6076670  94.9049590  14.6432578  96.7541978  94.6123964
  14.4163222  97.8225248  95.6607558  18.7409701 100.3239111  98.6219097
  18.9595711 101.2556219  98.6407131  19.1535475  99.9647085  99.4073901
  25.6613919  90.8307196  90.6094785  24.8514647  90.4854281  90.9850031
  26.3498336  90.5214740  91.1982397  27.5904467  89.9085243  92.2319082
  28.1435506  90.3280696  92.8909105  27.8274553  88.9820991  92.2742038
  23.6137566  95.8972317 108.0121846  23.5134293  96.8466674 107.9433937
  23.3959108  95.5690555 107.1397916  22.8150638  93.1457242  84.5962523
  23.6769802  93.4712140  84.8558340  23.0000982  92.3588738  84.0835589
  14.8318053 101.2279581  96.8742712  14.1381525 100.8133534  96.3612666
  15.5791044 101.2700118  96.2776131  30.9683274  92.0185768  91.7397746
  30.3881943  92.6770572  91.3575799  30.7019207  91.1963113  91.3285164
  29.4186840  91.4190826  93.9419066  29.9186619  91.5307360  93.1333385
  30.0622448  91.1151879  94.5819875  23.4768836  99.3269455 106.8286907
  22.9935918 100.1269816 107.0350796  23.5629775  99.3377400 105.8754351
  16.7454796 101.1597835  94.7508727  16.7225484 101.2585522  93.7990610
  17.0555432 102.0062986  95.0725893  19.4042174 103.2173990  98.8655341
  20.3585427 103.1857932  98.7985273  19.2054697 102.7564614  99.6805567
  19.9941556 101.7875106 101.4326139  20.8134445 102.2819185 101.4560976
  20.2678364 100.8707074 101.4043706  29.7508152  94.1785858  90.7954094
  28.8634007  94.4635509  90.5774289  30.1662141  94.0179622  89.9481371
  33.1022688  94.2032379  94.5108434  33.8783078  94.6928832  94.7833050
  32.3770822  94.6290434  94.9680303  35.5395247  94.9159999  95.5682374
  36.1339738  94.6755735  94.8575683  35.6121831  94.1967129  96.1955911
  17.7592403 108.7593610  95.8825539  17.6246871 107.9994010  95.3163537
  17.3424465 109.4834509  95.4154328  28.8951366 103.9430533  84.8902114
  29.5987216 104.1480536  85.5059770  28.1714014 104.5107295  85.1551198
  29.7249176  99.6940394  91.0104385  29.6684377 100.1508946  90.1712017
  30.2777518  98.9331079  90.8327227  33.5353982  95.4830126  91.8354504
  33.2790916  95.0826762  92.6662712  32.9106850  96.1973920  91.7104643
  37.8466320  98.2226200  94.3425795  37.2865878  98.2919389  95.1157358
  37.2409823  98.0467184  93.6225292  20.9161528 109.6562927  96.0943982
  20.7993913 110.6008359  95.9922672  20.0953975 109.3536488  96.4829781
  30.8038063 104.3813062  86.9400574  31.6383667 103.9494261  86.7578049
  30.6422406 104.2095076  87.8677469  30.4583955 100.8845176  88.3056914
  30.4032759 100.7189447  87.3645358  29.8330010 101.5921209  88.4619103
  15.2476470  96.1213240 102.1318336  15.8935334  95.6112194 102.6205561
  15.0393621  96.8581922 102.7061761  27.7729862 103.1894088 107.6310477
  28.6421022 103.3634740 107.2697111  27.2936614 104.0088504 107.5086206
  23.7680081  90.3853285  87.8842232  23.7558750  91.3295125  88.0410503
  24.6603503  90.2023430  87.5901693  21.9416043 110.3091189  99.3099910
  22.8443289 110.3414799  99.6266405  21.7153413 109.3791639  99.3246246
  23.6969645 109.0622175  95.9709989  22.7465276 109.0624037  95.8574361
  24.0002131 108.3154910  95.4546023  27.5832200  86.9796061  92.1388169
  26.8164596  86.4254548  92.2844851  27.9942905  87.0517930  93.0002321
  19.5873961  93.2680857 106.2293350  20.4505423  92.9117662 106.4396675
  19.0139372  92.9294752 106.9168754  39.4322338 114.8982713  97.0355751
  40.0700748 114.7789461  96.3319091  39.3143181 115.8463557  97.0943703
  36.2412044 114.8510142  96.9717276  35.9030556 114.7351206  96.0837811
  37.1101813 114.4501307  96.9518282  32.0998860 116.7045618  92.9614167
  31.5363725 116.6135555  92.1930455  31.9851255 115.8845522  93.4416659
  36.7231827 116.0044993 102.9303481  36.7120468 115.6097792 102.0583985
  36.8852467 115.2711066 103.5237253  29.6463292 118.1996810  95.7998387
  30.4384584 117.8587634  95.3844687  29.8859942 118.3091785  96.7200541
  37.6798419 120.3716586  88.2728632  37.0286399 120.9570666  87.8862646
  38.4742782 120.9022781  88.3323669  31.6054046 117.4605723  88.6715766
  32.3784922 116.9134710  88.5328642  31.9579445 118.3249972  88.8830227
  33.4439089 118.7882105 101.8782665  33.1528954 119.6927736 101.7629332
  34.0796073 118.8298633 102.5926735  34.3695295 116.1658954  98.4684025
  34.9658868 115.9414976  97.7540988  34.4270267 115.4243699  99.0709473
  33.9420324 113.6198389  86.3034216  34.1945844 113.0979910  85.5417679
  33.0044883 113.4564534  86.4060900  38.9863607 112.6234167  94.1108959
  39.7726696 112.2053590  93.7599376  39.2502311 113.5280259  94.2790608
  39.1573684 118.0607018  88.8097616  38.5219517 118.1341644  89.5218521
  38.8271090 118.6500616  88.1316695  44.3872034 112.5609401  95.0141938
  45.1197206 111.9908617  95.2479767  43.6311389 112.1731001  95.4548443
  33.6616613 115.5226495  88.5058591  33.5452871 114.8471398  89.1739675
  33.7718872 115.0358869  87.6890744  36.0048153 114.9836642  92.2105280
  35.6406361 114.4567263  92.9218202  36.8615269 114.5935111  92.0371766
  41.9097454 106.2730975  99.4736546  41.5780779 107.1426386  99.2497761
  41.3143067 105.9567259 100.1530577  35.6453640 110.0126542  87.2066629
  35.8128043 110.8806778  87.5737100  35.4550809 110.1753823  86.2827918
  38.4028974 118.4743521  98.8732459  38.1029697 119.3768559  98.7648266
  38.0580033 118.2075704  99.7253612  31.8541455 114.9257317  94.9069163
  30.9291952 114.7933532  95.1146855  32.1025868 115.7051537  95.4039106
  41.8026117 110.9926061  96.5529896  40.8942995 110.9241469  96.2588657
  41.7513713 111.4698006  97.3811722  35.6242861 112.4684199  88.1913296
  35.5042486 112.9141250  89.0298776  34.9295450 112.8169517  87.6326834
  29.2150266 114.5690591  95.7412953  29.3442647 114.8225070  96.6552364
  28.5347717 115.1618299  95.4217608  33.3849753 125.2387841  91.8403427
  33.3073783 126.1895666  91.9191907  32.7811397 124.8933713  92.4978353
  35.8766983 112.4115706 104.4964794  35.1000317 112.9709627 104.4867658
  36.5157546 112.8972489 105.0179664  43.6687764 109.1942499  98.3307770
  43.0262144 109.4875032  97.6847565  43.1642692 109.0795420  99.1360967
  41.3227927 112.9405672  89.0193630  42.2345784 113.1733059  88.8441327
  40.8137575 113.5242717  88.4568708  34.1313355 115.2201160 104.0582761
  34.8728040 115.7586204 103.7817584  33.4250341 115.8467448 104.2154312
  39.6068695 117.3630300 102.6554922  40.0152051 116.9212711 101.9109555
  38.8845957 116.7882928 102.9089115  35.9599765 112.3002907 100.0288479
  36.8060960 112.7242321 100.1723128  35.8998403 111.6436531 100.7227042
  39.9297510 117.9231491  96.4107211  39.3006372 118.0877205  95.7083279
  39.5423172 118.3373100  97.1818175  43.8086742 118.8585929  93.7651575
  43.1237780 119.2384830  93.2148608  43.8930591 119.4681255  94.4983523
  39.1099210 109.9607275 101.6869653  38.8660142 110.7149336 101.1503928
  39.3859141 110.3392623 102.5216900  41.0637673 116.5045888 100.3646918
  41.2754568 117.1477648  99.6881299  41.0167422 115.6708204  99.8968848
  38.6663902 109.1163708  97.2683490  37.8048381 109.4144962  97.5600228
  38.6926337 109.3334107  96.3364523  35.4825472 117.6605899  93.6757296
  35.9463817 117.9393602  92.8861919  35.2182270 116.7589343  93.4930387
  32.3749553 117.2077380  96.6137059  32.9450910 117.6364649  95.9754544
  32.9657665 116.9259965  97.3121245  34.4194358 113.7829051  90.4846861
  35.1218401 114.2350095  90.9520788  34.0874986 113.1412870  91.1126754
  32.8674719 112.3740808 104.8598071  32.2373380 113.0557089 105.0933467
  32.7610807 112.2623890 103.9151209  28.1619692 112.0412604  95.7863995
  27.3718746 112.2970132  95.3104105  28.6530939 112.8560942  95.8916035
  42.1783501 119.3817843  98.5369276  43.0000945 118.9798030  98.2551957
  42.1745904 119.2786077  99.4885391  30.1134437 112.4057183  92.7447472
  29.3165600 112.5175877  93.2630967  29.8860029 112.7443835  91.8788362
  35.9440105 118.9301886 100.6929986  36.0084537 119.3922294 101.5288158
  35.2351029 118.2999251 100.8212296  26.4457395 112.2943094  98.2178986
  26.6965433 113.1790104  98.4836562  26.9816943 112.1147696  97.4454077
  50.2689494 115.7256592  94.8854247  49.5153203 115.1563990  94.7298252
  50.4037035 115.6919256  95.8324882  35.6588122 120.5969994  90.5608966
  35.5233797 121.4421530  90.9893814  36.1997935 120.7989272  89.7974900
  32.1455462 106.6761574 107.2223322  31.7522408 106.1227772 107.8970966
  32.9621602 106.9872152 107.6129839  29.1117520 118.1145432  91.1336892
  29.6242040 118.9088682  91.2842456  29.7640233 117.4171722  91.0670493
  30.9212404 121.2311188  93.2159645  31.0979033 122.1529153  93.0280629
  31.7169238 120.9169607  93.6454025  35.0623423 108.0919453 104.8143578
  35.8033136 108.6926606 104.7348041  35.2941346 107.3497091 104.2561621
  30.2064761 113.2775820 103.0921808  30.0918276 112.3761077 103.3928907
  29.3509279 113.5239517 102.7406624  37.2856599 121.2193560 104.6909309
  36.8420453 120.4329939 104.3730213  37.9473812 121.4072711 104.0253199
  32.0443720 122.7489362  99.2169987  32.5951145 122.6206425  98.4446981
  31.2055196 123.0484251  98.8664880  39.3837837 121.4996360 102.7190710
  39.3656312 122.3205241 102.2270979  40.3057757 121.3750436 102.9440851
  35.8410891 119.0140490 103.5614218  36.3739228 118.2528778 103.3313526
  35.3124972 118.7214142 104.3038373  39.0080586 104.1200556  99.0907860
  38.6644855 105.0102197  99.0146971  39.3759548 103.9302213  98.2277445
  27.0766436 116.4434086  91.9096462  27.9141658 116.8531095  91.6930170
  27.2544704 115.5033528  91.8796656  38.9730869 114.1109167  87.5980295
  38.4577492 114.8813772  87.8368682  38.7008177 113.4374303  88.2213357
  36.5577980 108.9558868  92.6565533  35.7019576 108.5665718  92.4771172
  36.9704931 109.0350828  91.7965319  38.0877126 106.4905211  97.0557093
  37.5841922 106.4535346  96.2424898  38.3807733 107.3997954  97.1153750
  34.3320012 106.5743941  96.0623275  35.1973009 106.3786749  95.7029164
  34.3997521 106.3454292  96.9892632  43.9465143 116.8641522  89.5333469
  43.1694585 116.5252681  89.0888631  44.6256624 116.8694145  88.8588434
  38.7617172 111.9836259  89.4240076  38.4567307 112.2982408  90.2750219
  39.7147614 112.0617679  89.4667409  37.2063604 118.1426482  91.0733030
  36.6784965 117.4079242  90.7606268  36.7051106 118.9201159  90.8272999
  42.1856450 116.3375503  96.1900077  41.5280124 117.0274764  96.2780205
  42.9896849 116.7271935  96.5334063  31.9382331 108.8046149  93.4339642
  32.5126083 108.5821330  92.7012835  32.5253314 108.8734843  94.1868243
  40.9961908 114.6919875  94.2404018  41.5093790 115.3249867  94.7425728
  41.6463132 114.0921071  93.8747378  32.2651918 110.8350610  87.4535527
  31.4289231 111.1725296  87.7744802  32.1256688 110.6999589  86.5162664
  34.2404999 105.6787397  92.1614711  33.5869411 105.3636415  91.5371326
  34.1985473 105.0563138  92.8874534  35.3516204 115.9606693  84.0768003
  34.4443266 115.7295946  84.2759152  35.8487236 115.1644312  84.2641985
  38.2584283 124.6704200  86.9964689  37.5845981 124.9735897  87.6049647
  38.6450105 125.4733280  86.6470146  37.4742739 112.1669331  96.4862359
  36.5565301 112.3884278  96.3284047  37.8902883 112.2415642  95.6274066
  38.2577787 113.5660747  91.6165039  39.0049606 114.0782144  91.3072161
  38.5269377 113.2444799  92.4769433  36.5304437 116.0619287  88.5991993
  35.6215656 115.7778320  88.6964463  36.5599521 116.4818366  87.7395300
  41.7623705 119.6725877  92.3683161  41.3086032 118.8316787  92.4248351
  41.1317671 120.3087275  92.7057941  40.7056624 110.6017863  93.5983828
  39.9679381 110.0895249  93.9294071  40.9583398 110.1618245  92.7867105
  40.2056644 121.5102374  93.3032979  40.4979618 122.0707431  92.5845345
  40.7155264 121.8030935  94.0586138  40.8068252 103.3794115  94.1925598
  41.1127128 102.5191478  93.9051513  41.5320856 103.9711735  93.9924592
  27.0992608 113.7824802  92.5807196  26.9017007 113.1894162  91.8558262
  26.5439272 113.4777012  93.2983134  35.0789331 113.6747908  94.7001789
  35.1337941 112.7221744  94.6244265  34.2680533 113.8307347  95.1843087
  36.2280525 117.6028031  85.9380072  35.7899955 116.8863890  85.4785709
  36.9690966 117.8304146  85.3765163  33.0181691 112.2924968  92.4592168
  32.2049557 112.5919138  92.8657360  33.5140685 111.8980657  93.1766650
  35.1690269 122.2882725  94.3926432  35.1266448 122.5143571  93.4634964
  36.0852968 122.0546099  94.5412233  38.6155903 112.7566792 101.2907061
  38.9705291 112.9838265 102.1501527  39.2628034 113.0885169 100.6684317
  44.3453640 115.8785228  91.9956390  44.2071538 116.0686824  91.0677580
  43.9889859 116.6404611  92.4524442  32.5095766 109.8643323  98.0753403
  33.1495145 109.7232082  97.3776366  31.6773297 109.5777837  97.6992005
  44.3723019 117.9461755  97.0067662  44.8059526 117.8537044  97.8550716
  45.0854600 117.9219256  96.3687678  33.2856070 119.1645754  94.1888395
  34.0796668 118.6696074  93.9870970  32.5747762 118.6363617  93.8256101
  38.1050914 121.5463849  98.5400763  38.1587937 122.1154786  99.3078479
  37.2365696 121.7165734  98.1754800  29.5938833 113.3088835  90.2648148
  28.6636421 113.2473291  90.4818110  29.6896305 112.7864788  89.4684789
  29.5124382 109.8343648  92.8526389  29.7731200 110.7488982  92.7435550
  30.3341555 109.3668091  93.0023002  30.9849308 111.2481405 100.0225214
  31.6572361 111.0398768  99.3737863  30.1579094 111.0503491  99.5830446
  45.2338569 117.9885456  99.5400547  45.4274459 118.8931266  99.7859822
  45.1339187 117.5292875 100.3739132  36.8874880 107.8743346 102.0390875
  36.2402795 108.5733296 101.9455351  37.6575895 108.3079490 102.4067123
  40.2953678 118.1392199 105.1141428  40.1439184 117.9102750 104.1971512
  40.2858357 119.0962800 105.1272773  37.0639014 115.7124111 100.0987694
  37.9931074 115.8635271  99.9256662  36.6430044 115.8008132  99.2436341
  35.8627346 119.7374776  97.8686232  35.7238432 119.3693560  98.7412170
  35.0741942 120.2522415  97.6970190  36.4575498 124.8383872  89.2111769
  36.6327254 124.3671915  90.0257391  35.7708286 125.4649638  89.4393029
  37.4132561 119.1156378  95.2575070  37.0782394 119.0757148  96.1532720
  36.9136507 118.4501094  94.7845480  31.3876805 114.5224008 100.7827651
  31.2496603 113.7904247 101.3839190  32.2981728 114.4332909 100.5011839
  40.3491753 116.4612413  85.5312130  39.7320923 115.7359241  85.4345182
  39.8808241 117.2221773  85.1879204  34.0159106 114.2343968 100.2711331
  34.7258724 113.5937160 100.2297949  33.9728414 114.4856863 101.1937511
  42.0045884 121.1711321 103.1917910  41.9458430 120.4870541 102.5248493
  42.4065403 121.9130311 102.7398536  32.7288040 111.2209186 102.0906970
  32.1925397 110.7699924 102.7428566  32.1404748 111.3555094 101.3477434
  32.1390299 110.6797837  84.6533434  31.2619765 110.5586638  84.2895680
  32.6148052 109.8883915  84.4012322  42.0063292 119.1350905 101.4231890
  41.1190070 118.7976827 101.5458288  42.5761843 118.4033936 101.6600655
  23.6592439 115.4674997  94.7474941  24.3463479 115.1536727  94.1595956
  23.5040567 116.3716361  94.4742192  28.4627161 110.3565193  99.1759965
  28.3785350 109.7490863  98.4410375  27.6409867 110.8474212  99.1769461
  35.5364445 123.7952357  98.3893133  35.4634616 124.6007329  98.9012437
  35.0941838 123.9944323  97.5641154  35.3254225 123.0324127  91.8995954
  34.5421746 123.5745808  91.9934179  36.0246970 123.5498107  92.2990195
  38.6350875 108.8418757  94.5430160  39.1319574 108.0888719  94.2231230
  37.8637856 108.8783074  93.9773369  46.4880632 114.5459122  96.1848451
  46.4770508 115.4283838  95.8142384  45.6198012 114.1930673  95.9902988
  37.9963128 123.6939191 100.5451291  38.7091101 124.3286656 100.4727193
  37.5053157 123.7903057  99.7291293  39.7180655 117.5990444  92.1168583
  38.7836934 117.7191907  91.9473287  39.8957324 116.6962911  91.8528593
  35.2185843 110.9836140  94.2701844  34.8483631 110.4307180  94.9582750
  35.7144936 110.3794273  93.7176844  43.1053207 113.4407763  92.6518617
  43.5713659 114.2735755  92.5778920  43.5560707 112.9752745  93.3563876
  33.0475042 121.4433635 101.3656862  33.7484502 122.0770118 101.5186256
  32.5770157 121.7848366 100.6052502  41.1729438 119.7851585  89.6504769
  41.4489282 119.6708179  90.5598643  40.3033937 119.3869070  89.6116942
  41.0769869 105.8088350  96.6909519  40.1632949 106.0392577  96.8591725
  41.5062971 105.8926794  97.5423551  40.8476328 113.9978242  99.1909413
  40.1947778 114.2454150  98.5361865  41.2256708 113.1842381  98.8571890
  37.8083502 124.0337936  93.2937583  37.9905896 123.2159591  93.7565335
  38.6316488 124.2505628  92.8562473  38.1425667 122.9606121  90.5552631
  38.6713434 122.4498575  89.9422793  38.4053887 122.6448651  91.4198164
  36.8963901 114.7398053 105.6775450  36.2204538 114.6392183 106.3477825
  37.7191535 114.5837267 106.1411447  28.6442760 120.9769990  98.2987965
  29.2296197 120.2313678  98.4315869  28.4467599 121.2873947  99.1824629
  31.4981415 124.0121237  93.3150407  30.8291791 124.4967365  92.8314447
  31.3594285 124.2590458  94.2293786  23.2360415 113.5475590  97.0192408
  23.2744514 113.0139181  97.8129526  22.7300708 113.0210796  96.4003385
  35.6386684 126.0464981  99.9133066  36.1904992 126.2096602 100.6782151
  35.9792877 126.6369419  99.2413091  30.6151177 108.3940131 100.5154950
  30.6792504 109.2554962 100.1032348  30.5518297 107.7814132  99.7827309
  30.0903450 110.4663263 104.1627985  30.7175488 110.0840341 104.7765509
  29.2331369 110.2477465 104.5283677  40.4897558 120.8726238 105.7681720
  41.0337462 121.4856197 105.2736675  39.9084403 121.4305817 106.2848733
  26.8668992 112.2739692  90.0946339  27.1622433 111.3650371  90.0413393
  25.9657028 112.2527432  89.7727342  38.7755071 123.9946956  96.8996748
  38.6506211 123.1936696  96.3907693  39.4334162 124.4893150  96.4110718
  30.3963239 110.3495689  96.0773888  29.6749825 110.9631657  95.9381361
  31.1856495 110.8853454  95.9990534  40.8389980 121.7955976  98.5276298
  39.8920315 121.6761328  98.4554625  41.1872753 120.9078474  98.6102559
  33.1989553 107.6850115 102.3514540  33.7223955 107.9312412 103.1140849
  32.9801886 108.5170150 101.9317677  28.5956834 109.9553790  90.2185665
  28.2669540 109.0751169  90.0360771  28.9496205 109.9001459  91.1062054
  37.8436413 121.5908693  94.7280650  37.6961375 120.6625400  94.9088220
  38.6689906 121.6128783  94.2437725  31.7098657 110.2426760  90.5861142
  32.0494730 110.7712681  89.8639751  32.1570778 110.5807166  91.3619709
  41.4470535 122.4137251  95.8145523  42.3717082 122.2080113  95.6769974
  41.2785838 122.1653653  96.7234864  34.4042098 108.6263810 100.0364210
  34.0638918 107.8271624 100.4384890  33.6981104 108.9265521  99.4641044
  35.0558570 105.7113123  98.4891533  35.8784639 105.2373601  98.3670424
  35.2996633 106.4903607  98.9890220  33.6966804 108.7401381  88.7854435
  34.4175167 109.1182634  88.2818152  33.0732108 109.4590258  88.8889413
  37.8397927 109.4446530  89.7212767  38.0561542 110.3271168  89.4201596
  37.3591994 109.0532744  88.9918409  32.5797149 112.4032244  96.2983512
  32.4341729 112.7172547  97.1907793  32.1022352 113.0217144  95.7454411
  34.4393531 109.3934792  96.3464402  34.4255100 108.4975885  96.0096699
  35.1565960 109.4005455  96.9802688  36.2919662 109.8272132  98.3917529
  36.0337440 110.7489202  98.3901859  35.7604703 109.4302566  99.0817993
  41.2365851 122.9322919  91.1707614  41.4102728 122.3669341  90.4181467
  41.7294742 123.7323814  90.9887104  27.0542811 114.9437588  99.2371173
  26.5096279 115.7197396  99.3691447  27.9322161 115.2908392  99.0790295
  33.8430427 108.2749172  91.6151972  33.9646339 107.3465818  91.8142859
  33.5532470 108.2887858  90.7030287  36.7121618 105.9604082  94.7518692
  36.7343315 106.0243415  93.7970671  37.1289677 105.1208591  94.9459198
  47.0905242 115.6959342  92.7897914  47.5336388 114.9466667  92.3917037
  46.2131752 115.6869478  92.4071646  42.2241023 122.2489683  88.2704513
  42.9191928 122.8696376  88.4891827  42.5664174 121.3985034  88.5456891
  27.8408833 114.0707484 102.1301330  27.0990569 114.2190120 102.7165960
  27.5201577 114.3315750 101.2668079  44.1232447 119.6989389  89.7991843
  44.6483771 120.0376662  89.0741163  44.0354799 118.7636404  89.6154978
  35.7852495 123.6123462 101.9281720  36.0939622 123.3672609 102.8004420
  36.5827977 123.8170101 101.4400590  35.8073107 125.7661372  94.1587097
  35.3678098 125.2737751  94.8519953  36.5581224 125.2234340  93.9179172
  28.2865446 121.9572913  94.1611725  29.1123466 121.6576685  93.7810368
  27.9359498 121.1880535  94.6101513  33.2546979 121.3099381  96.2309398
  32.6326989 120.6470086  95.9311626  33.9251846 121.3360513  95.5483046
  26.4874051 119.8759239  95.1200658  25.6505960 119.4481414  94.9384660
  26.4597697 120.0691683  96.0571449  33.3271507 109.7881169 105.8241904
  33.3759662 110.6643292 105.4419674  33.8694021 109.2458562 105.2513547
  43.8126353 120.3322292 105.1043041  43.0221896 120.3146431 104.5647541
  43.5759707 120.8710586 105.8592078  43.9324228 117.1814759 102.4175770
  43.9822233 117.0164766 103.3591293  43.8238151 116.3142018 102.0273651
  32.8160486 119.8603305  89.7067859  32.9648607 120.5438769  89.0534532
  33.6226930 119.8408395  90.2217315  41.2227990 113.1645687 103.7335077
  42.1237853 113.0252152 103.4419074  41.2975965 113.3300142 104.6733254
  35.5570795 110.5412542 102.5788263  34.6874105 110.8346108 102.3070851
  35.7930276 111.1252987 103.2995527  45.4342424 119.6011700 102.6617791
  45.1427233 119.9641681 103.4981252  44.8214556 118.8878709 102.4831124
  46.6338107 117.1664580  95.1820362  47.4684998 117.6054384  95.3457922
  46.7697236 116.6903233  94.3628607  43.6829613 114.7244315 101.1297849
  44.1583734 114.9171961 100.3216701  42.7595178 114.7803501 100.8841233
  30.5713119 115.8868482  90.7128928  30.3259161 114.9830812  90.9109138
  30.7409034 115.8885633  89.7708406  38.2609829 106.7592159 100.0953683
  38.7791773 107.4953185  99.7700172  37.9064962 107.0656152 100.9300442
  29.8408767 111.6196840  88.2115089  29.1478012 111.6941195  87.5555125
  29.5960519 110.8557183  88.7336606  38.5122423 103.1792441  95.6154580
  38.7924177 102.5115630  96.2415006  39.2973030 103.3721537  95.1029244
  36.3155892 122.3551435  87.1779606  35.7429859 122.9741622  86.7250078
  36.8888686 122.9050797  87.7119528  42.3831282 111.6010075  99.3626155
  43.3348705 111.7008173  99.3838379  42.2134732 110.8088344  99.8724239
  40.4045661 108.6865658  99.5485556  39.8095593 108.9670671  98.8532045
  40.1195358 109.1759559 100.3202297  39.5353152 122.6388585  88.3088188
  40.4683825 122.5734147  88.5121064  39.4476364 123.4744852  87.8502721
  42.1641168 121.9554455  85.2692136  42.0854800 121.6214319  86.1627894
  42.9850835 122.4476223  85.2683608  44.8619359 114.8216195  98.4768455
  44.8295680 113.8832195  98.6628138  45.4719983 114.9000231  97.7434280
  36.7002690 113.6912248  84.5195659  37.6461795 113.5618456  84.5884077
  36.3216935 112.9526910  84.9965087  45.0113848 111.6127238  98.5226738
  44.4952897 110.8285695  98.3356667  45.8953796 111.2845955  98.6873257
  42.6724575 105.3568254  94.4822551  42.4749396 105.0483342  95.3665882
  43.2824280 106.0829893  94.6120480  50.6795909 115.8832202  97.6174491
  51.4099298 115.6217490  98.1782195  50.0702855 115.1460924  97.6576559
  48.7611206 114.0240064  98.2148943  48.0344370 113.8896029  97.6065434
  48.3458493 114.3316893  99.0205661  36.5841383 117.7429994 105.9796316
  37.5044392 117.9208593 106.1736362  36.5490966 116.7986039 105.8276015
  34.8845608 111.6162224  84.4550544  33.9777063 111.3195337  84.5313258
  35.1621589 111.3192042  83.5884830  25.8023548 112.9368587  94.9049590
  25.4826332 112.0833896  94.6123964  25.2556976 113.1517166  95.6607558
  29.5803455 115.6531028  98.6219097  29.7989465 116.5848136  98.6407131
  29.9929229 115.2939003  99.4073901  36.5007673 106.1599114  90.6094785
  35.6908402 105.8146199  90.9850031  37.1892090 105.8506658  91.1982397
  38.4298222 105.2377161  92.2319082  38.9829260 105.6572614  92.8909105
  38.6668308 104.3112909  92.2742038  34.4531321 111.2264234 108.0121846
  34.3528048 112.1758591 107.9433937  34.2352863 110.8982473 107.1397916
  33.6544392 108.4749159  84.5962523  34.5163556 108.8004058  84.8558340
  33.8394736 107.6880655  84.0835589  25.6711808 116.5571499  96.8742712
  24.9775279 116.1425452  96.3612666  26.4184799 116.5992035  96.2776131
  41.8077029 107.3477686  91.7397746  41.2275698 108.0062490  91.3575799
  41.5412961 106.5255030  91.3285164  40.2580595 106.7482743  93.9419066
  40.7580373 106.8599278  93.1333385  40.9016203 106.4443796  94.5819875
  34.3162591 114.6561373 106.8286907  33.8329673 115.4561733 107.0350796
  34.4023530 114.6669318 105.8754351  27.5848550 116.4889753  94.7508727
  27.5619239 116.5877440  93.7990610  27.8949187 117.3354904  95.0725893
  30.2435928 118.5465908  98.8655341  31.1979182 118.5149850  98.7985273
  30.0448452 118.0856532  99.6805567  30.8335310 117.1167024 101.4326139
  31.6528199 117.6111103 101.4560976  31.1072118 116.1998992 101.4043706
  40.5901907 109.5077776  90.7954094  39.7027762 109.7927427  90.5774289
  41.0055896 109.3471540  89.9481371  43.9416443 109.5324297  94.5108434
  44.7176833 110.0220750  94.7833050  43.2164577 109.9582351  94.9680303
  46.3789001 110.2451916  95.5682374  46.9733492 110.0047652  94.8575683
  46.4515585 109.5259047  96.1955911  28.5986157 124.0885527  95.8825539
  28.4640625 123.3285928  95.3163537  28.1818219 124.8126427  95.4154328
  39.7345120 119.2722451  84.8902114  40.4380970 119.4772453  85.5059770
  39.0107769 119.8399213  85.1551198  40.5642930 115.0232312  91.0104385
  40.5078132 115.4800864  90.1712017  41.1171273 114.2622997  90.8327227
  44.3747736 110.8122044  91.8354504  44.1184671 110.4118680  92.6662712
  43.7500604 111.5265838  91.7104643  48.6860074 113.5518117  94.3425795
  48.1259632 113.6211307  95.1157358  48.0803578 113.3759102  93.6225292
  31.7555283 124.9854844  96.0943982  31.6387667 125.9300277  95.9922672
  30.9347729 124.6828406  96.4829781  41.6431817 119.7104980  86.9400574
  42.4777421 119.2786178  86.7578049  41.4816160 119.5386994  87.8677469
  41.2977710 116.2137093  88.3056914  41.2426513 116.0481365  87.3645358
  40.6723765 116.9213126  88.4619103  26.0870225 111.4505158 102.1318336
  26.7329088 110.9404112 102.6205561  25.8787376 112.1873839 102.7061761
  38.6123617 118.5186005 107.6310477  39.4814776 118.6926657 107.2697111
  38.1330368 119.3380422 107.5086206  34.6073835 105.7145202  87.8842232
  34.5952505 106.6587042  88.0410503  35.4997257 105.5315348  87.5901693
  32.7809797 125.6383106  99.3099910  33.6837044 125.6706716  99.6266405
  32.5547167 124.7083557  99.3246246  34.5363399 124.3914093  95.9709989
  33.5859030 124.3915954  95.8574361  34.8395885 123.6446827  95.4546023
  38.4225955 102.3087979  92.1388169  37.6558350 101.7546466  92.2844851
  38.8336660 102.3809848  93.0002321  30.4267716 108.5972775 106.2293350
  31.2899177 108.2409580 106.4396675  29.8533126 108.2586670 106.9168754
  50.2716093 130.2274631  97.0355751  50.9094503 130.1081378  96.3319091
  50.1536935 131.1755475  97.0943703  47.0805799 130.1802059  96.9717276
  46.7424310 130.0643124  96.0837811  47.9495567 129.7793224  96.9518282
  42.9392615 132.0337536  92.9614167  42.3757480 131.9427473  92.1930455
  42.8245010 131.2137440  93.4416659  47.5625582 131.3336911 102.9303481
  47.5514223 130.9389709 102.0583985  47.7246221 130.6002984 103.5237253
  45.2089050 131.4950871  98.4684025  45.8052622 131.2706894  97.7540988
  45.2664021 130.7535617  99.0709473  44.7814078 128.9490307  86.3034216
  45.0339599 128.4271828  85.5417679  43.8438637 128.7856452  86.4060900
  49.8257361 127.9526085  94.1108959  50.6120450 127.5345508  93.7599376
  50.0896065 128.8572177  94.2790608  49.9967438 133.3898935  88.8097616
  49.3613271 133.4633562  89.5218521  49.6664845 133.9792534  88.1316695
  55.2265788 127.8901318  95.0141938  55.9590960 127.3200535  95.2479767
  54.4705144 127.5022919  95.4548443  44.5010367 130.8518413  88.5058591
  44.3846625 130.1763316  89.1739675  44.6112627 130.3650787  87.6890744
  46.8441908 130.3128560  92.2105280  46.4800115 129.7859181  92.9218202
  47.7009024 129.9227029  92.0371766  52.7491209 121.6022892  99.4736546
  52.4174533 122.4718303  99.2497761  52.1536822 121.2859176 100.1530577
  46.4847395 125.3418459  87.2066629  46.6521797 126.2098696  87.5737100
  46.2944564 125.5045741  86.2827918  49.2422728 133.8035438  98.8732459
  48.9423451 134.7060477  98.7648266  48.8973788 133.5367621  99.7253612
  42.6935210 130.2549235  94.9069163  41.7685706 130.1225449  95.1146855
  42.9419623 131.0343454  95.4039106  52.6419872 126.3217978  96.5529896
  51.7336749 126.2533387  96.2588657  52.5907468 126.7989923  97.3811722
  46.4636616 127.7976117  88.1913296  46.3436241 128.2433168  89.0298776
  45.7689204 128.1461435  87.6326834  40.0544021 129.8982509  95.7412953
  40.1836402 130.1516988  96.6552364  39.3741472 130.4910217  95.4217608
  46.7160738 127.7407624 104.4964794  45.9394072 128.3001544 104.4867658
  47.3551301 128.2264407 105.0179664  54.5081518 124.5234417  98.3307770
  53.8655899 124.8166950  97.6847565  54.0036447 124.4087337  99.1360967
  52.1621682 128.2697590  89.0193630  53.0739538 128.5024977  88.8441327
  51.6531329 128.8534634  88.4568708  44.9707110 130.5493077 104.0582761
  45.7121794 131.0878121 103.7817584  44.2644095 131.1759366 104.2154312
  50.4462450 132.6922218 102.6554922  50.8545806 132.2504628 101.9109555
  49.7239711 132.1174845 102.9089115  46.7993520 127.6294825 100.0288479
  47.6454715 128.0534238 100.1723128  46.7392157 126.9728449 100.7227042
  50.7691264 133.2523409  96.4107211  50.1400127 133.4169123  95.7083279
  50.3816926 133.6665018  97.1818175  54.6480496 134.1877846  93.7651575
  53.9631534 134.5676748  93.2148608  54.7324345 134.7973173  94.4983523
  49.9492965 125.2899193 101.6869653  49.7053897 126.0441254 101.1503928
  50.2252895 125.6684541 102.5216900  51.9031428 131.8337805 100.3646918
  52.1148323 132.4769565  99.6881299  51.8561176 131.0000122  99.8968848
  49.5057657 124.4455626  97.2683490  48.6442136 124.7436880  97.5600228
  49.5320091 124.6626025  96.3364523  46.3219226 132.9897817  93.6757296
  46.7857572 133.2685520  92.8861919  46.0576024 132.0881261  93.4930387
  45.2588112 129.1120969  90.4846861  45.9612156 129.5642013  90.9520788
  44.9268741 128.4704788  91.1126754  43.7068474 127.7032726 104.8598071
  43.0767134 128.3849006 105.0933467  43.6004562 127.5915807 103.9151209
  39.0013446 127.3704522  95.7863995  38.2112500 127.6262050  95.3104105
  39.4924694 128.1852859  95.8916035  53.0177256 134.7109761  98.5369276
  53.8394699 134.3089948  98.2551957  53.0139659 134.6077995  99.4885391
  40.9528192 127.7349101  92.7447472  40.1559355 127.8467795  93.2630967
  40.7253784 128.0735753  91.8788362  37.2851149 127.6235012  98.2178986
  37.5359188 128.5082022  98.4836562  37.8210698 127.4439614  97.4454077
  61.1083249 131.0548509  94.8854247  60.3546957 130.4855907  94.7298252
  61.2430790 131.0211174  95.8324882  42.9849216 122.0053491 107.2223322
  42.5916162 121.4519690 107.8970966  43.8015357 122.3164070 107.6129839
  45.9017177 123.4211371 104.8143578  46.6426891 124.0218524 104.7348041
  46.1335100 122.6789008 104.2561621  41.0458515 128.6067738 103.0921808
  40.9312031 127.7052995 103.3928907  40.1903033 128.8531435 102.7406624
  49.8474340 119.4492473  99.0907860  49.5038610 120.3394115  99.0146971
  50.2153303 119.2594131  98.2277445  49.8124623 129.4401085  87.5980295
  49.2971247 130.2105689  87.8368682  49.5401932 128.7666221  88.2213357
  47.3971734 124.2850785  92.6565533  46.5413330 123.8957636  92.4771172
  47.8098686 124.3642746  91.7965319  48.9270881 121.8197129  97.0557093
  48.4235676 121.7827264  96.2424898  49.2201488 122.7289871  97.1153750
  45.1713767 121.9035858  96.0623275  46.0366763 121.7078667  95.7029164
  45.2391276 121.6746210  96.9892632  54.7858897 132.1933439  89.5333469
  54.0088340 131.8544599  89.0888631  55.4650378 132.1986062  88.8588434
  49.6010926 127.3128177  89.4240076  49.2961062 127.6274326  90.2750219
  50.5541368 127.3909597  89.4667409  53.0250204 131.6667420  96.1900077
  52.3673879 132.3566682  96.2780205  53.8290603 132.0563852  96.5334063
  42.7776086 124.1338066  93.4339642  43.3519838 123.9113248  92.7012835
  43.3647068 124.2026761  94.1868243  51.8355663 130.0211793  94.2404018
  52.3487545 130.6541785  94.7425728  52.4856887 129.4212989  93.8747378
  43.1045673 126.1642527  87.4535527  42.2682985 126.5017214  87.7744802
  42.9650442 126.0291507  86.5162664  45.0798753 121.0079315  92.1614711
  44.4263166 120.6928332  91.5371326  45.0379228 120.3855056  92.8874534
  46.1909958 131.2898610  84.0768003  45.2837020 131.0587864  84.2759152
  46.6880990 130.4936229  84.2641985  48.3136494 127.4961249  96.4862359
  47.3959055 127.7176196  96.3284047  48.7296637 127.5707559  95.6274066
  49.0971542 128.8952664  91.6165039  49.8443360 129.4074062  91.3072161
  49.3663131 128.5736717  92.4769433  47.3698192 131.3911205  88.5991993
  46.4609411 131.1070238  88.6964463  47.3993276 131.8110284  87.7395300
  52.6017459 135.0017795  92.3683161  52.1479786 134.1608704  92.4248351
  51.9711426 135.6379193  92.7057941  51.5450379 125.9309781  93.5983828
  50.8073135 125.4187167  93.9294071  51.7977152 125.4910162  92.7867105
  51.6462006 118.7086033  94.1925598  51.9520883 117.8483396  93.9051513
  52.3714611 119.3003653  93.9924592  37.9386362 129.1116719  92.5807196
  37.7410762 128.5186080  91.8558262  37.3833026 128.8068929  93.2983134
  45.9183086 129.0039826  94.7001789  45.9731696 128.0513662  94.6244265
  45.1074288 129.1599265  95.1843087  47.0674280 132.9319949  85.9380072
  46.6293709 132.2155808  85.4785709  47.8084720 133.1596064  85.3765163
  43.8575446 127.6216885  92.4592168  43.0443311 127.9211056  92.8657360
  44.3534440 127.2272574  93.1766650  49.4549657 128.0858710 101.2907061
  49.8099045 128.3130183 102.1501527  50.1021789 128.4177087 100.6684317
  55.1847394 131.2077146  91.9956390  55.0465293 131.3978742  91.0677580
  54.8283613 131.9696529  92.4524442  43.3489520 125.1935241  98.0753403
  43.9888900 125.0524000  97.3776366  42.5167051 124.9069754  97.6992005
  55.2116774 133.2753673  97.0067662  55.6453281 133.1828962  97.8550716
  55.9248355 133.2511173  96.3687678  40.4332588 128.6380753  90.2648148
  39.5030176 128.5765209  90.4818110  40.5290060 128.1156706  89.4684789
  40.3518137 125.1635566  92.8526389  40.6124954 126.0780899  92.7435550
  41.1735309 124.6960009  93.0023002  41.8243062 126.5773323 100.0225214
  42.4966116 126.3690685  99.3737863  40.9972849 126.3795409  99.5830446
  56.0732323 133.3177373  99.5400547  56.2668214 134.2223184  99.7859822
  55.9732942 132.8584793 100.3739132  47.7268634 123.2035264 102.0390875
  47.0796549 123.9025214 101.9455351  48.4969650 123.6371408 102.4067123
  51.1347432 133.4684116 105.1141428  50.9832939 133.2394668 104.1971512
  51.1252112 134.4254718 105.1272773  47.9032769 131.0416029 100.0987694
  48.8324829 131.1927189  99.9256662  47.4823799 131.1300050  99.2436341
  42.2270559 129.8515926 100.7827651  42.0890357 129.1196165 101.3839190
  43.1375483 129.7624826 100.5011839  51.1885507 131.7904330  85.5312130
  50.5714678 131.0651159  85.4345182  50.7201996 132.5513691  85.1879204
  44.8552860 129.5635885 100.2711331  45.5652479 128.9229078 100.2297949
  44.8122168 129.8148780 101.1937511  43.5681794 126.5501103 102.0906970
  43.0319151 126.0991842 102.7428566  42.9798503 126.6847012 101.3477434
  42.9784053 126.0089755  84.6533434  42.1013519 125.8878556  84.2895680
  43.4541806 125.2175833  84.4012322  52.8457046 134.4642823 101.4231890
  51.9583825 134.1268745 101.5458288  53.4155597 133.7325854 101.6600655
  39.3020915 125.6857111  99.1759965  39.2179104 125.0782781  98.4410375
  38.4803622 126.1766129  99.1769461  49.4744629 124.1710675  94.5430160
  49.9713329 123.4180637  94.2231230  48.7031611 124.2074991  93.9773369
  57.3274387 129.8751040  96.1848451  57.3164263 130.7575756  95.8142384
  56.4591766 129.5222591  95.9902988  50.5574410 132.9282362  92.1168583
  49.6230689 133.0483824  91.9473287  50.7351078 132.0254829  91.8528593
  46.0579598 126.3128058  94.2701844  45.6877385 125.7599098  94.9582750
  46.5538690 125.7086191  93.7176844  53.9446961 128.7699681  92.6518617
  54.4107413 129.6027673  92.5778920  54.3954462 128.3044663  93.3563876
  52.0123192 135.1143502  89.6504769  52.2883036 135.0000097  90.5598643
  51.1427691 134.7160987  89.6116942  51.9163624 121.1380268  96.6909519
  51.0026704 121.3684495  96.8591725  52.3456725 121.2218712  97.5423551
  51.6870082 129.3270160  99.1909413  51.0341533 129.5746067  98.5361865
  52.0650462 128.5134298  98.8571890  47.7357656 130.0689971 105.6775450
  47.0598293 129.9684100 106.3477825  48.5585289 129.9129185 106.1411447
  34.0754169 128.8767508  97.0192408  34.1138269 128.3431099  97.8129526
  33.5694462 128.3502713  96.4003385  41.4544932 123.7232048 100.5154950
  41.5186258 124.5846879 100.1032348  41.3912052 123.1106050  99.7827309
  40.9297204 125.7955181 104.1627985  41.5569243 125.4132258 104.7765509
  40.0725123 125.5769383 104.5283677  37.7062747 127.6031610  90.0946339
  38.0016188 126.6942288  90.0413393  36.8050783 127.5819349  89.7727342
  41.2356994 125.6787607  96.0773888  40.5143580 126.2923574  95.9381361
  42.0250250 126.2145371  95.9990534  44.0383307 123.0142033 102.3514540
  44.5617709 123.2604330 103.1140849  43.8195641 123.8462068 101.9317677
  39.4350588 125.2845708  90.2185665  39.1063295 124.4043087  90.0360771
  39.7889959 125.2293376  91.1062054  42.5492412 125.5718677  90.5861142
  42.8888484 126.1004599  89.8639751  42.9964532 125.9099084  91.3619709
  45.2435852 123.9555728 100.0364210  44.9032673 123.1563541 100.4384890
  44.5374859 124.2557439  99.4641044  45.8952324 121.0405041  98.4891533
  46.7178394 120.5665519  98.3670424  46.1390388 121.8195524  98.9890220
  44.5360559 124.0693299  88.7854435  45.2568921 124.4474552  88.2818152
  43.9125863 124.7882176  88.8889413  48.6791682 124.7738448  89.7212767
  48.8955296 125.6563086  89.4201596  48.1985749 124.3824661  88.9918409
  43.4190903 127.7324161  96.2983512  43.2735484 128.0464464  97.1907793
  42.9416107 128.3509062  95.7454411  45.2787286 124.7226709  96.3464402
  45.2648855 123.8267803  96.0096699  45.9959714 124.7297373  96.9802688
  47.1313417 125.1564049  98.3917529  46.8731194 126.0781120  98.3901859
  46.5998457 124.7594484  99.0817993  44.6824182 123.6041089  91.6151972
  44.8040093 122.6757736  91.8142859  44.3926224 123.6179775  90.7030287
  47.5515372 121.2896000  94.7518692  47.5737069 121.3535333  93.7970671
  47.9683431 120.4500509  94.9459198  57.9298997 131.0251259  92.7897914
  58.3730143 130.2758585  92.3917037  57.0525507 131.0161396  92.4071646
  38.6802587 129.3999402 102.1301330  37.9384323 129.5482037 102.7165960
  38.3595331 129.6607667 101.2668079  54.9626201 135.0281306  89.7991843
  55.4877525 135.3668579  89.0741163  54.8748554 134.0928322  89.6154978
  44.1665261 125.1173087 105.8241904  44.2153417 125.9935210 105.4419674
  44.7087776 124.5750480 105.2513547  54.6520107 135.6614210 105.1043041
  53.8615651 135.6438349 104.5647541  54.4153462 136.2002504 105.8592078
  54.7717982 132.5106676 102.4175770  54.8215987 132.3456684 103.3591293
  54.6631905 131.6433936 102.0273651  52.0621745 128.4937605 103.7335077
  52.9631607 128.3544069 103.4419074  52.1369719 128.6592059 104.6733254
  46.3964550 125.8704459 102.5788263  45.5267859 126.1638025 102.3070851
  46.6324030 126.4544904 103.2995527  56.2736179 134.9303618 102.6617791
  55.9820987 135.2933599 103.4981252  55.6608310 134.2170626 102.4831124
  57.4731861 132.4956498  95.1820362  58.3078753 132.9346302  95.3457922
  57.6090990 132.0195151  94.3628607  54.5223367 130.0536233 101.1297849
  54.9977489 130.2463879 100.3216701  53.5988933 130.1095418 100.8841233
  41.4106874 131.2160400  90.7128928  41.1652916 130.3122730  90.9109138
  41.5802788 131.2177550  89.7708406  49.1003584 122.0884076 100.0953683
  49.6185528 122.8245103  99.7700172  48.7458716 122.3948069 100.9300442
  40.6802521 126.9488757  88.2115089  39.9871766 127.0233112  87.5555125
  40.4354273 126.1849101  88.7336606  49.3516178 118.5084359  95.6154580
  49.6317932 117.8407548  96.2415006  50.1366785 118.7013454  95.1029244
  53.2225036 126.9301993  99.3626155  54.1742459 127.0300090  99.3838379
  53.0528487 126.1380261  99.8724239  51.2439416 124.0157576  99.5485556
  50.6489348 124.2962589  98.8532045  50.9589112 124.5051477 100.3202297
  55.7013114 130.1508112  98.4768455  55.6689434 129.2124113  98.6628138
  56.3113738 130.2292149  97.7434280  47.5396445 129.0204165  84.5195659
  48.4855550 128.8910373  84.5884077  47.1610690 128.2818827  84.9965087
  55.8507602 126.9419156  98.5226738  55.3346651 126.1577612  98.3356667
  56.7347551 126.6137872  98.6873257  53.5118329 120.6860171  94.4822551
  53.3143151 120.3775260  95.3665882  54.1218035 121.4121810  94.6120480
  61.5189664 131.2124119  97.6174491  62.2493052 130.9509407  98.1782195
  60.9096609 130.4752841  97.6576559  59.6004961 129.3531982  98.2148943
  58.8738125 129.2187947  97.6065434  59.1852248 129.6608810  99.0205661
  47.4235137 133.0721911 105.9796316  48.3438147 133.2500511 106.1736362
  47.3884720 132.1277957 105.8276015  45.7239362 126.9454142  84.4550544
  44.8170817 126.6487254  84.5313258  46.0015343 126.6483960  83.5884830
  36.6417302 128.2660505  94.9049590  36.3220087 127.4125813  94.6123964
  36.0950731 128.4809083  95.6607558  47.3401428 121.4891031  90.6094785
  46.5302156 121.1438116  90.9850031  48.0285845 121.1798575  91.1982397
  49.2691976 120.5669078  92.2319082  49.8223015 120.9864532  92.8909105
  49.5062062 119.6404826  92.2742038  45.2925075 126.5556152 108.0121846
  45.1921802 127.5050509 107.9433937  45.0746617 126.2274391 107.1397916
  44.4938147 123.8041077  84.5962523  45.3557311 124.1295975  84.8558340
  44.6788491 123.0172573  84.0835589  52.6470783 122.6769603  91.7397746
  52.0669452 123.3354407  91.3575799  52.3806716 121.8546948  91.3285164
  51.0974349 122.0774661  93.9419066  51.5974128 122.1891196  93.1333385
  51.7409957 121.7735714  94.5819875  45.1556345 129.9853291 106.8286907
  44.6723427 130.7853651 107.0350796  45.2417284 129.9961236 105.8754351
  51.4295661 124.8369694  90.7954094  50.5421516 125.1219344  90.5774289
  51.8449650 124.6763457  89.9481371  54.7810197 124.8616215  94.5108434
  55.5570587 125.3512667  94.7833050  54.0558331 125.2874269  94.9680303
  57.2182756 125.5743834  95.5682374  57.8127247 125.3339570  94.8575683
  57.2909340 124.8550965  96.1955911  51.4036685 130.3524230  91.0104385
  51.3471886 130.8092781  90.1712017  51.9565027 129.5914914  90.8327227
  55.2141491 126.1413962  91.8354504  54.9578425 125.7410597  92.6662712
  54.5894359 126.8557756  91.7104643  59.5253829 128.8810035  94.3425795
  58.9653387 128.9503224  95.1157358  58.9197332 128.7051019  93.6225292
  52.4825572 135.0396898  86.9400574  53.3171176 134.6078096  86.7578049
  52.3209915 134.8678911  87.8677469  52.1371464 131.5429011  88.3056914
  52.0820268 131.3773282  87.3645358  51.5117519 132.2505044  88.4619103
  36.9263979 126.7797075 102.1318336  37.5722843 126.2696029 102.6205561
  36.7181130 127.5165757 102.7061761  49.4517371 133.8477923 107.6310477
  50.3208531 134.0218575 107.2697111  48.9724123 134.6672340 107.5086206
  45.4467590 121.0437120  87.8842232  45.4346259 121.9878960  88.0410503
  46.3391011 120.8607265  87.5901693  49.2619709 117.6379897  92.1388169
  48.4952105 117.0838383  92.2844851  49.6730414 117.7101765  93.0002321
  41.2661470 123.9264692 106.2293350  42.1292932 123.5701497 106.4396675
  40.6926881 123.5878587 106.9168754  63.5884963 136.9314810  99.4736546
  63.2568288 137.8010221  99.2497761  62.9930576 136.6151094 100.1530577
  65.3475273 139.8526335  98.3307770  64.7049653 140.1458868  97.6847565
  64.8430201 139.7379255  99.1360967  60.6868095 134.7784391  99.0907860
  60.3432364 135.6686033  99.0146971  61.0547057 134.5886049  98.2277445
  59.7664635 137.1489046  97.0557093  59.2629431 137.1119181  96.2424898
  60.0595242 138.0581789  97.1153750  55.9192508 136.3371233  92.1614711
  55.2656920 136.0220250  91.5371326  55.8772982 135.7146973  92.8874534
  62.4855761 134.0377950  94.1925598  62.7914637 133.1775314  93.9051513
  63.2108365 134.6295571  93.9924592  62.7557378 136.4672186  96.6909519
  61.8420458 136.6976413  96.8591725  63.1850480 136.5510630  97.5423551
  56.7346079 136.3696958  98.4891533  57.5572148 135.8957436  98.3670424
  56.9784142 137.1487442  98.9890220  58.3909127 136.6187918  94.7518692
  58.4130824 136.6827251  93.7970671  58.8077186 135.7792426  94.9459198
  59.9397338 137.4175994 100.0953683  60.4579282 138.1537021  99.7700172
  59.5852471 137.7239987 100.9300442  60.1909932 133.8376276  95.6154580
  60.4711686 133.1699465  96.2415006  60.9760539 134.0305372  95.1029244
  64.3512084 136.0152089  94.4822551  64.1536905 135.7067177  95.3665882
  64.9611789 136.7413728  94.6120480  58.1795182 136.8182949  90.6094785
  57.3695911 136.4730034  90.9850031  58.8679599 136.5090493  91.1982397
  60.1085730 135.8960996  92.2319082  60.6616769 136.3156449  92.8909105
  60.3455817 134.9696744  92.2742038  63.4864538 138.0061521  91.7397746
  62.9063207 138.6646325  91.3575799  63.2200470 137.1838866  91.3285164
  61.9368104 137.4066579  93.9419066  62.4367882 137.5183113  93.1333385
  62.5803712 137.1027632  94.5819875  68.0576510 140.9035752  95.5682374
  68.6521001 140.6631488  94.8575683  68.1303094 140.1842882  96.1955911
  60.1013464 132.9671814  92.1388169  59.3345859 132.4130301  92.2844851
  60.5124169 133.0393683  93.0002321   6.9114478  31.4151043  81.6099554
   6.1578186  30.8458442  81.4543558   7.0462019  31.3813708  82.5570188
   0.9878623  31.5679680  78.7201697   0.8496522  31.7581276  77.7922886
   0.6314842  32.3299063  79.1769748   1.0148003  33.6356207  83.7312969
   1.4484509  33.5431496  84.5796023   1.7279583  33.6113708  83.0932985
   1.8763552  33.6779908  86.2645854   2.0699442  34.5825718  86.5105129
   1.7764170  33.2187327  87.0984439   3.1305615  30.2353574  82.9093758
   3.1195492  31.1178290  82.5387691   2.2622995  29.8825125  82.7148295
   3.7330225  31.3853794  79.5143221   4.1761371  30.6361119  79.1162344
   2.8556736  31.3763930  79.1316953   0.7657430  35.3883841  76.5237150
   1.2908754  35.7271113  75.7986470   0.6779782  34.4530856  76.3400285
   0.5749211  32.8709211  89.1421077   0.6247216  32.7059218  90.0836599
   0.4663134  32.0036470  88.7518957   2.0767408  35.2906152  89.3863098
   1.7852216  35.6536133  90.2226559   1.4639539  34.5773160  89.2076430
   3.2763090  32.8559032  81.9065668   4.1109981  33.2948836  82.0703229
   3.4122219  32.3797685  81.0873914   1.5044343  30.5110647  85.2013761
   1.4720663  29.5726647  85.3873445   2.1144966  30.5894683  84.4679586
   1.6538831  27.3021690  85.2472045   1.1377880  26.5180147  85.0601973
   2.5378780  26.9740407  85.4118564   7.3220893  31.5726653  84.3419798
   8.0524281  31.3111942  84.9027501   6.7127838  30.8355375  84.3821866
   5.4036190  29.7134516  84.9394249   4.6769353  29.5790481  84.3310741
   4.9883477  30.0211345  85.7450967   3.0213985  25.9346368  82.2927681
   3.6158475  25.6942104  81.5820989   3.0940568  25.2153499  82.9201217
   1.0172720  26.5016496  78.5599811   0.7609654  26.1013132  79.3908018
   0.3925588  27.2160290  78.4349950   5.3285057  29.2412569  81.0671102
   4.7684615  29.3105758  81.8402664   4.7228561  29.0653554  80.3470598
   6.9141076  45.9169083  83.7601058   7.5519486  45.7975830  83.0564398
   6.7961919  46.8649927  83.8189010   3.7230782  45.8696511  83.6962583
   3.3849294  45.7537576  82.8083117   4.5920550  45.4687676  83.6763589
   4.2050565  47.0231363  89.6548788   4.1939206  46.6284161  88.7829292
   4.3671205  46.2897435  90.2482560   5.1617157  51.3902955  74.9973938
   4.5105136  51.9757036  74.6107952   5.9561519  51.9209150  75.0568976
   0.9257826  49.8068475  88.6027972   0.6347692  50.7114105  88.4874638
   1.5614811  49.8485002  89.3172042   1.8514033  47.1845323  85.1929332
   2.4477605  46.9601346  84.4786295   1.9089005  46.4430069  85.7954780
   1.4239062  44.6384759  73.0279523   1.6764582  44.1166280  72.2662986
   0.4863621  44.4750904  73.1306206   6.4682344  43.6420537  80.8354266
   7.2545434  43.2239960  80.4844683   6.7321049  44.5466629  81.0035914
   6.6392422  49.0793387  75.5342923   6.0038255  49.1528014  76.2463827
   6.3089828  49.6686986  74.8562002  11.8690772  43.5795770  81.7387244
  12.6015943  43.0094987  81.9725074  11.1130127  43.1917371  82.1793750
   1.1435350  46.5412864  75.2303898   1.0271608  45.8657768  75.8984982
   1.2537610  46.0545238  74.4136051   3.4866891  46.0023012  78.9350587
   3.1225098  45.4753633  79.6463508   4.3434007  45.6121481  78.7617072
   9.3916192  37.2917344  86.1981853   9.0599517  38.1612755  85.9743068
   8.7961805  36.9753628  86.8775883   3.1272378  41.0312911  73.9311935
   3.2946781  41.8993148  74.2982406   2.9369547  41.1940193  73.0073225
   5.8847711  49.4929890  85.5977766   5.5848434  50.3954929  85.4893573
   5.5398771  49.2262073  86.4498919   9.2844855  42.0112430  83.2775203
   8.3761733  41.9427839  82.9833964   9.2332451  42.4884375  84.1057029
   3.1061599  43.4870569  74.9158602   2.9861224  43.9327620  75.7544082
   2.4114187  43.8355886  74.3572140   3.3585721  43.4302076  91.2210100
   2.5819055  43.9895996  91.2112965   3.9976284  43.9158859  91.7424970
  11.1506502  40.2128869  85.0553077  10.5080882  40.5061402  84.4092872
  10.6461430  40.0981789  85.8606274   8.8046665  43.9592042  75.7438936
   9.7164521  44.1919429  75.5686634   8.2956312  44.5429086  75.1814015
   1.6132093  46.2387529  90.7828067   2.3546778  46.7772573  90.5062891
   0.9069079  46.8653818  90.9399619   7.0887433  48.3816670  89.3800229
   7.4970789  47.9399080  88.6354861   6.3664694  47.8069297  89.6334422
   3.4418503  43.3189277  86.7533786   4.2879698  43.7428690  86.8968435
   3.3817141  42.6622901  87.4472349   7.4116248  48.9417860  83.1352518
   6.7825110  49.1063575  82.4328586   7.0241910  49.3559470  83.9063482
  11.2905479  49.8772298  80.4896881  10.6056518  50.2571200  79.9393915
  11.3749329  50.4867625  81.2228829   6.5917948  40.9793645  88.4114959
   6.3478880  41.7335705  87.8749235   6.8677879  41.3578993  89.2462206
   8.5456411  47.5232257  87.0892225   8.7573306  48.1664017  86.4126606
   8.4986159  46.6894574  86.6214155   6.1482640  40.1350078  83.9928797
   5.2867119  40.4331331  84.2845535   6.1745075  40.3520477  83.0609830
   2.9644209  48.6792268  80.4002603   3.4282555  48.9579971  79.6107225
   2.7001008  47.7775713  80.2175693   1.9013095  44.8015421  77.2092168
   2.6037139  45.2536465  77.6766094   1.5693724  44.1599240  77.8372061
   9.6602239  50.4004213  85.2614582  10.4819683  49.9984400  84.9797264
   9.6564642  50.2972447  86.2130698   3.4258842  49.9488256  87.4175293
   3.4903275  50.4108663  88.2533465   2.7169766  49.3185621  87.5457603
  17.7508232  46.7442961  81.6099554  16.9971940  46.1750359  81.4543558
  17.8855773  46.7105626  82.5570188   3.1406860  51.6156363  77.2854273
   3.0052535  52.4607899  77.7139121   3.6816673  51.8175641  76.5220207
   2.5442161  39.1105822  91.5388885   3.2851874  39.7112976  91.4593347
   2.7760084  38.3683460  90.9806927   4.7675336  52.2379930  91.4154615
   4.3239191  51.4516309  91.0975520   5.4292550  52.4259080  90.7498506
   6.8656575  52.5182730  89.4436016   6.8475050  53.3391611  88.9516286
   7.7876495  52.3936805  89.6686158   3.3229629  50.0326859  90.2859525
   3.8557965  49.2715148  90.0558833   2.7943710  49.7400511  91.0283679
   6.4899324  35.1386925  85.8153167   6.1463593  36.0288567  85.7392277
   6.8578286  34.9488583  84.9522752   6.4549606  45.1295536  74.3225602
   5.9396230  45.9000141  74.5613989   6.1826915  44.4560673  74.9458663
   4.0396717  39.9745237  79.3810840   3.1838314  39.5852088  79.2016479
   4.4523669  40.0537198  78.5210626   5.5695864  37.5091581  83.7802400
   5.0660660  37.4721716  82.9670205   5.8626471  38.4184323  83.8399057
   1.8138750  37.5930310  82.7868582   2.6791747  37.3973119  82.4274471
   1.8816259  37.3640662  83.7137938  11.4283881  47.8827891  76.2578775
  10.6513323  47.5439051  75.8133937  12.1075361  47.8880514  75.5833740
   6.2435910  43.0022629  76.1485383   5.9386045  43.3168778  76.9995526
   7.1966352  43.0804048  76.1912716   4.6882341  49.1612852  77.7978337
   4.1603703  48.4265611  77.4851574   4.1869844  49.9387528  77.5518305
   9.6675187  47.3561872  82.9145383   9.0098862  48.0461134  83.0025512
  10.4715587  47.7458304  83.2579370   8.4780646  45.7106245  80.9649325
   8.9912528  46.3436237  81.4671035   9.1281870  45.1107441  80.5992685
   1.7223737  36.6973767  78.8860018   1.0688149  36.3822784  78.2616633
   1.6804211  36.0749508  79.6119841   2.8334942  46.9793062  70.8013310
   1.9262003  46.7482316  71.0004459   3.3305974  46.1830681  70.9887291
   5.7403020  55.6890569  73.7209996   5.0664719  55.9922266  74.3294954
   6.1268842  56.4919650  73.3715453   4.9561477  43.1855701  83.2107665
   4.0384038  43.4070648  83.0529354   5.3721621  43.2602011  82.3519373
   5.7396525  44.5847116  78.3410346   6.4868344  45.0968513  78.0317468
   6.0088114  44.2631169  79.2014739   4.0123175  47.0805657  75.3237300
   3.1034394  46.7964690  75.4209770   4.0418259  47.5004736  74.4640607
   9.2442442  50.6912247  79.0928468   8.7904770  49.8503156  79.1493658
   8.6136409  51.3273645  79.4303248   8.1875362  41.6204233  80.3229135
   7.4498119  41.1081619  80.6539378   8.4402136  41.1804614  79.5112412
   7.6875382  52.5288743  80.0278286   7.9798356  53.0893800  79.3090651
   8.1974002  52.8217304  80.7831445   8.2886989  34.3980485  80.9170904
   8.5945866  33.5377848  80.6296819   9.0139594  34.9898105  80.7169898
   2.5608069  44.6934278  81.4247095   2.6156679  43.7408114  81.3489572
   1.7499271  44.8493717  81.9088394   3.7099263  48.6214401  72.6625379
   3.2718693  47.9050260  72.2031016   4.4509704  48.8490515  72.1010470
   2.6509007  53.3069094  81.1171739   2.6085186  53.5329941  80.1880271
   3.5671706  53.0732469  81.2657540   6.0974641  43.7753162  88.0152368
   6.4524028  44.0024635  88.8746834   6.7446772  44.1071539  87.3929623
  11.8272378  46.8971598  78.7201697  11.6890276  47.0873194  77.7922886
  11.4708596  47.6590981  79.1769748  11.8541757  48.9648125  83.7312969
  12.2878264  48.8723414  84.5796023  12.5673338  48.9405625  83.0932985
   5.5869652  52.5650219  85.2646069   5.6406674  53.1341155  86.0323785
   4.7184433  52.7352104  84.9000106  12.7157307  49.0071825  86.2645854
  12.9093197  49.9117636  86.5105129  12.6157925  48.5479244  87.0984439
   4.3693618  38.8929716  88.7636181   3.7221533  39.5919666  88.6700658
   5.1394633  39.3265860  89.1312430   7.7772415  49.1578568  91.8386735
   7.6257922  48.9289120  90.9216818   7.7677095  50.1149170  91.8518080
   4.5457752  46.7310481  86.8233001   5.4749812  46.8821640  86.6501968
   4.1248782  46.8194502  85.9681648   3.3446084  50.7561145  84.5931539
   3.2057169  50.3879930  85.4657477   2.5560680  51.2708785  84.4215497
   3.9394236  55.8570242  75.9357075   4.1145991  55.3858285  76.7502698
   3.2527024  56.4836008  76.1638336   4.8951299  50.1342748  81.9820377
   4.5601131  50.0943518  82.8778026   4.3955244  49.4687464  81.5090787
   7.8310490  47.4798782  72.2557436   7.2139661  46.7545610  72.1590489
   7.3626979  48.2408143  71.9124510   1.4977843  45.2530337  86.9956637
   2.2077462  44.6123530  86.9543256   1.4547152  45.5043232  87.9182818
   9.4864622  52.1897691  89.9163217   9.4277168  51.5056911  89.2493800
   9.8884140  52.9316681  89.4643843   9.4882029  50.1537275  88.1477196
   8.6008808  49.8163196  88.2703595  10.0580580  49.4220306  88.3845962
   3.0183183  54.8138727  85.1138439   2.9453354  55.6193698  85.6257744
   2.5760576  55.0130693  84.2886461   2.8072962  54.0510497  78.6241261
   2.0240484  54.5932177  78.7179485   3.5065708  54.5684477  79.0235502
   6.1169612  39.8605126  81.2675466   6.6138312  39.1075089  80.9476537
   5.3456594  39.8969443  80.7018676  13.9699370  45.5645492  82.9093758
  13.9589246  46.4470207  82.5387691  13.1016749  45.2117043  82.7148295
   5.4781866  54.7125561  87.2696598   6.1909838  55.3473026  87.1972500
   4.9871895  54.8089427  86.4536600   7.1999393  48.6176814  78.8413890
   6.2655672  48.7378276  78.6718594   7.3776062  47.7149280  78.5773900
   2.7004581  42.0022509  80.9947151   2.3302369  41.4493550  81.6828057
   3.1963674  41.3980643  80.4422151  10.5871945  44.4594133  79.3763924
  11.0532397  45.2922125  79.3024227  11.0379445  43.9939115  80.0809182
   8.6548176  50.8037954  76.3750076   8.9308020  50.6894549  77.2843950
   7.7852674  50.4055439  76.3362249   8.5588607  36.8274720  83.4154825
   7.6451687  37.0578947  83.5837032   8.9881709  36.9113164  84.2668858
   8.3295066  45.0164612  85.9154719   7.6766516  45.2640519  85.2607172
   8.7075446  44.2028750  85.5817197   5.2902240  55.0524305  80.0182890
   5.4724634  54.2345961  80.4810642   6.1135226  55.2691997  79.5807780
   5.6244405  53.9792490  77.2797938   6.1532172  53.4684945  76.6668100
   5.8872625  53.6635020  78.1443471   4.3782639  45.7584423  92.4020756
   3.7023276  45.6578552  93.0723132   5.2010273  45.6023637  92.8656754
   3.1205422  57.0651350  86.6378372   3.6723730  57.2282972  87.4027458
   3.4611615  57.6555788  85.9658397   7.9716296  51.8912608  92.4927027
   8.5156200  52.5042566  91.9981982   7.3903141  52.4492186  93.0094040
   6.2573809  55.0133326  83.6242054   6.1324948  54.2123066  83.1153000
   6.9152900  55.5079519  83.1356024   8.3208717  52.8142346  85.2521605
   7.3739053  52.6947697  85.1799931   8.6691490  51.9264844  85.3347866
   0.6808291  38.7036485  89.0759846   1.2042693  38.9498781  89.8386156
   0.4620624  39.5356520  88.6562984   5.3255151  52.6095062  81.4525957
   5.1780113  51.6811770  81.6333527   6.1508644  52.6315153  80.9683032
   8.9289272  53.4323621  82.5390830   9.8535820  53.2266482  82.4015281
   8.7604576  53.1840022  83.4480171   1.8860836  39.6450180  86.7609517
   1.5457656  38.8457993  87.1630197   1.1799842  39.9451891  86.1886350
   2.5377308  36.7299492  85.2136840   3.3603377  36.2559971  85.0915730
   2.7815371  37.5089976  85.7135526   1.1785542  39.7587751  75.5099742
   1.8993905  40.1369004  75.0063459   0.5550846  40.4776628  75.6134720
   5.3216665  40.4632900  76.4458074   5.5380279  41.3457538  76.1446902
   4.8410732  40.0719113  75.7163716   1.9212269  40.4121161  83.0709708
   1.9073838  39.5162254  82.7342006   2.6384697  40.4191825  83.7047994
   3.7738400  40.8458501  85.1162836   3.5156178  41.7675572  85.1147166
   3.2423440  40.4488936  85.8063300   8.7184589  53.9509288  77.8952921
   8.8921466  53.3855711  77.1426773   9.2113480  54.7510183  77.7132411
   1.3249165  39.2935541  78.3397278   1.4465076  38.3652188  78.5388166
   1.0351208  39.3074227  77.4275594   4.1940356  36.9790452  81.4763998
   4.2162052  37.0429785  80.5215978   4.6108415  36.1394960  81.6704504
  14.5723980  46.7145711  79.5143221  15.0155126  45.9653037  79.1162344
  13.6950490  46.7055848  79.1316953   9.7059761  53.2676053  74.9949819
  10.4010666  53.8882745  75.2137134  10.0482911  52.4171404  75.2702197
  11.6051184  50.7175758  76.5237150  12.1302508  51.0563031  75.7986470
  11.5173537  49.7822774  76.3400285   3.2671233  54.6309832  88.6527027
   3.5758359  54.3858979  89.5249726   4.0646715  54.8356470  88.1645897
   3.2891845  56.7847742  80.8832403   2.8496835  56.2924120  81.5765260
   4.0399962  56.2420709  80.6424478   0.8090245  40.8067539  92.5487211
   0.8578400  41.6829662  92.1664981   1.3512759  40.2644932  91.9758854
  11.2945090  51.3508662  91.8288348  10.5040634  51.3332801  91.2892847
  11.0578445  51.8896956  92.5837385  11.4142965  48.2001128  89.1421077
  11.4640970  48.0351136  90.0836599  11.3056889  47.3328387  88.7518957
   8.7046728  44.1832056  90.4580383   9.6056591  44.0438521  90.1664381
   8.7794702  44.3486511  91.3978561   3.0389533  41.5598911  89.3033570
   2.1692843  41.8532477  89.0316158   3.2749014  42.1439356  90.0240833
  12.9161162  50.6198070  89.3863098  12.6245971  50.9828050  90.2226559
  12.3033294  49.9065078  89.2076430  14.1156845  48.1850950  81.9065668
  14.9503736  48.6240754  82.0703229  14.2515973  47.7089603  81.0873914
  11.1648350  45.7430685  87.8543156  11.6402472  45.9358331  87.0462007
  10.2413916  45.7989870  87.6086540   5.7428567  37.7778528  86.8198990
   6.2610511  38.5139555  86.4945479   5.3883700  38.0842521  87.6545749
   5.9941161  34.1978811  82.3399887   6.2742915  33.5302000  82.9660313
   6.7791768  34.3907906  81.8274550   3.7974630  53.3737804  73.9024913
   3.2248597  53.9927992  73.4495385   4.3707423  53.9237166  74.4364835
   9.8650019  42.6196445  86.0871462  10.8167442  42.7194542  86.1083686
   9.6953470  41.8274713  86.5969546   7.8864399  39.7052028  86.2730863
   7.2914331  39.9857041  85.5777351   7.6014096  40.1945929  87.0447604
   7.0171889  53.6574955  75.0333495   7.9502563  53.5920516  75.2366371
   6.9295102  54.4931221  74.5748028   9.6459906  52.9740825  71.9937443
   9.5673538  52.6400689  72.8873201  10.4669573  53.4662593  71.9928915
  12.3438097  45.8402564  85.2013761  12.3114417  44.9018565  85.3873445
  12.9538721  45.9186601  84.4679586   4.1821428  44.7098617  71.2440965
   5.1280533  44.5804825  71.3129383   3.8035673  43.9713279  71.7210394
  12.4932586  42.6313608  85.2472045  11.9771634  41.8472064  85.0601973
  13.3772534  42.3032324  85.4118564  10.1543313  36.3754623  81.2067857
   9.9568134  36.0669711  82.0911189  10.7643018  37.1016262  81.3365787
  18.1614647  46.9018571  84.3419798  18.8918036  46.6403859  84.9027501
  17.5521593  46.1647293  84.3821866  16.2429944  45.0426434  84.9394249
  15.5163108  44.9082399  84.3310741  15.8277231  45.3503262  85.7450967
   4.0660121  48.7616363  92.7041622   4.9863130  48.9394962  92.8981669
   4.0309704  47.8172409  92.5521322   2.3664345  42.6348594  71.1795851
   1.4595801  42.3381706  71.2558564   2.6440326  42.3378412  70.3130137
   3.9826411  37.1785483  77.3340092   3.1727139  36.8332568  77.7095338
   4.6710828  36.8693027  77.9227703   5.9116959  36.2563530  78.9564389
   6.4647998  36.6758984  79.6154412   6.1487046  35.3299278  78.9987345
   1.9350059  42.2450604  94.7367152   1.8346785  43.1944961  94.6679244
   1.7171601  41.9168843  93.8643223   1.1363130  39.4935529  71.3207830
   1.9982294  39.8190427  71.5803647   1.3213474  38.7067025  70.8080896
   9.2895766  38.3664055  78.4643053   8.7094435  39.0248859  78.0821105
   9.0231699  37.5441400  78.0530470   7.7399333  37.7669113  80.6664373
   8.2399111  37.8785648  79.8578692   8.3834941  37.4630166  81.3065182
   1.7981329  45.6747743  93.5532214   1.3148410  46.4748103  93.7596103
   1.8842268  45.6855688  92.5999658   8.0720644  40.5264146  77.5199401
   7.1846499  40.8113796  77.3019596   8.4874633  40.3657909  76.6726678
  11.4235181  40.5510667  81.2353740  12.1995571  41.0407119  81.5078357
  10.6983315  40.9768721  81.6925610  13.8607739  41.2638286  82.2927681
  14.4552230  41.0234022  81.5820989  13.9334323  40.5445416  82.9201217
   7.2163858  50.2908820  71.6147421   7.9199708  50.4958823  72.2305077
   6.4926507  50.8585582  71.8796505   8.0461668  46.0418682  77.7349691
   7.9896870  46.4987233  76.8957324   8.5990011  45.2809366  77.5572534
  11.8566474  41.8308414  78.5599811  11.6003408  41.4305049  79.3908018
  11.2319342  42.5452207  78.4349950  16.1678812  44.5704487  81.0671102
  15.6078370  44.6397676  81.8402664  15.5622315  44.3945471  80.3470598
   9.1250555  50.7291350  73.6645881   9.9596159  50.2972548  73.4823356
   8.9634898  50.5573363  74.5922776   8.7796447  47.2323463  75.0302220
   8.7245251  47.0667734  74.0890664   8.1542503  47.9399496  75.1864410
   6.0942355  49.5372375  94.3555783   6.9633514  49.7113027  93.9942418
   5.6149106  50.3566792  94.2331513   2.0892573  36.7331572  74.6087539
   2.0771243  37.6773412  74.7655810   2.9815995  36.5501717  74.3147000
   2.0182137  55.4100462  82.6955295   1.0677768  55.4102324  82.5819668
   2.3214623  54.6633197  82.1791330   5.9044692  33.3274349  78.8633476
   5.1377088  32.7732835  79.0090158   6.3155397  33.3996217  79.7247627
  17.7534830  61.2461001  83.7601058  18.3913240  61.1267748  83.0564398
  17.6355673  62.1941845  83.8189010  14.5624537  61.1988429  83.6962583
  14.2243048  61.0829493  82.8083117  15.4314305  60.7979594  83.6763589
  10.4211352  63.0523905  79.6859473   9.8576217  62.9613842  78.9175761
  10.3063747  62.2323810  80.1661966  15.0444320  62.3523281  89.6548788
  15.0332960  61.9576079  88.7829292  15.2064959  61.6189353  90.2482560
   7.9675784  64.5475097  82.5243694   8.7597076  64.2065921  82.1089993
   8.2072434  64.6570072  83.4445847  16.0010911  66.7194873  74.9973938
  15.3498891  67.3048953  74.6107952  16.7955274  67.2501068  75.0568976
   9.9266538  63.8084010  75.3961073  10.6997414  63.2612997  75.2573949
  10.2791937  64.6728259  75.6075534  11.7651581  65.1360392  88.6027972
  11.4741447  66.0406023  88.4874638  12.4008565  65.1776920  89.3172042
  12.6907788  62.5137241  85.1929332  13.2871360  62.2893263  84.4786295
  12.7482759  61.7721986  85.7954780  12.2632816  59.9676676  73.0279523
  12.5158337  59.4458197  72.2662986  11.3257375  59.8042822  73.1306206
  17.3076099  58.9712455  80.8354266  18.0939188  58.5531878  80.4844683
  17.5714803  59.8758547  81.0035914  17.4786176  64.4085305  75.5342923
  16.8432009  64.4819931  76.2463827  17.1483583  64.9978904  74.8562002
  11.9829105  61.8704782  75.2303898  11.8665363  61.1949686  75.8984982
  12.0931365  61.3837156  74.4136051  14.3260646  61.3314929  78.9350587
  13.9618853  60.8045550  79.6463508  15.1827762  60.9413398  78.7617072
  13.9666133  56.3604829  73.9311935  14.1340535  57.2285065  74.2982406
  13.7763302  56.5232111  73.0073225  16.7241466  64.8221808  85.5977766
  16.4242189  65.7246847  85.4893573  16.3792525  64.5553991  86.4498919
  10.1753947  61.2735605  81.6314470   9.2504444  61.1411819  81.8392162
  10.4238361  62.0529824  82.1284413  13.9455354  58.8162486  74.9158602
  13.8254979  59.2619537  75.7544082  13.2507942  59.1647804  74.3572140
   7.5362758  60.9168878  82.4658259   7.6655140  61.1703357  83.3797671
   6.8560210  61.5096586  82.1462914  11.7062246  71.5866128  78.5648733
  11.6286275  72.5373953  78.6437214  11.1023889  71.2412001  79.2223660
  14.1979475  58.7593994  91.2210100  13.4212810  59.3187914  91.2112965
  14.8370038  59.2450777  91.7424970  19.6440420  59.2883960  75.7438936
  20.5558276  59.5211346  75.5686634  19.1350067  59.8721004  75.1814015
  12.4525848  61.5679447  90.7828067  13.1940532  62.1064491  90.5062891
  11.7462833  62.1945736  90.9399619  17.9281187  63.7108587  89.3800229
  18.3364543  63.2690998  88.6354861  17.2058449  63.1361215  89.6334422
  14.2812257  58.6481194  86.7533786  15.1273453  59.0720608  86.8968435
  14.2210895  57.9914819  87.4472349  18.2510002  64.2709778  83.1352518
  17.6218864  64.4355492  82.4328586  17.8635664  64.6851388  83.9063482
  22.1299234  65.2064216  80.4896881  21.4450272  65.5863117  79.9393915
  22.2143083  65.8159543  81.2228829  17.4311703  56.3085563  88.4114959
  17.1872635  57.0627623  87.8749235  17.7071633  56.6870910  89.2462206
  19.3850166  62.8524175  87.0892225  19.5967061  63.4955935  86.4126606
  19.3379914  62.0186491  86.6214155  13.8037964  64.0084186  80.4002603
  14.2676309  64.2871889  79.6107225  13.5394762  63.1067631  80.2175693
  10.6962045  63.5555668  83.3382366  11.2663402  63.9842936  82.6999851
  11.2870157  63.2738252  84.0366552  12.7406850  60.1307339  77.2092168
  13.4430893  60.5828382  77.6766094  12.4087478  59.4891157  77.8372061
  11.1887211  58.7219095  91.5843377  10.5585872  59.4035376  91.8178774
  11.0823299  58.6102177  90.6396516   6.4832184  58.3890891  82.5109301
   5.6931238  58.6448420  82.0349412   6.9743431  59.2039229  82.6161342
  20.4995993  65.7296130  85.2614582  21.3213437  65.3276318  84.9797264
  20.4958396  65.6264365  86.2130698   8.4346929  58.7535470  79.4692778
   7.6378093  58.8654165  79.9876274   8.2072522  59.0922123  78.6033669
  14.2652597  65.2780174  87.4175293  14.3297029  65.7400581  88.2533465
  13.5563521  64.6477539  87.5457603   4.7669887  58.6421382  84.9424292
   5.0177925  59.5268392  85.2081868   5.3029435  58.4625983  84.1699384
  13.9800615  66.9448281  77.2854273  13.8446289  67.7899817  77.7139121
  14.5210427  67.1467559  76.5220207  10.4667954  53.0239861  93.9468628
  10.0734900  52.4706060  94.6216273  11.2834095  53.3350439  94.3375146
   7.4330012  64.4623719  77.8582198   7.9454533  65.2566969  78.0087763
   8.0852725  63.7650010  77.7915800   9.2424897  67.5789475  79.9404951
   9.4191525  68.5007440  79.7525935  10.0381730  67.2647895  80.3699331
  13.3835915  54.4397740  91.5388885  14.1245629  55.0404893  91.4593347
  13.6153838  53.6975378  90.9806927   8.5277253  59.6254107  89.8167115
   8.4130768  58.7239365  90.1174214   7.6721771  59.8717804  89.4651931
  15.6069091  67.5671848  91.4154615  15.1632945  66.7808226  91.0975520
  16.2686305  67.7550998  90.7498506  10.3656212  69.0967649  85.9415294
  10.9163637  68.9684713  85.1692288   9.5267688  69.3962538  85.5910187
  17.7050329  67.8474648  89.4436016  17.6868804  68.6683529  88.9516286
  18.6270249  67.7228723  89.6686158  14.1623383  65.3618777  90.2859525
  14.6951720  64.6007065  90.0558833  13.6337464  65.0692429  91.0283679
   5.3978929  62.7912373  78.6341769   6.2354151  63.2009382  78.4175476
   5.5757196  61.8511816  78.6041963  17.2943361  60.4587454  74.3225602
  16.7789984  61.2292059  74.5613989  17.0220669  59.7852590  74.9458663
  12.6532504  52.9222228  82.7868582  13.5185501  52.7265037  82.4274471
  12.7210013  52.6932580  83.7137938  22.2677635  63.2119809  76.2578775
  21.4907078  62.8730968  75.8133937  22.9469116  63.2172432  75.5833740
  17.0829664  58.3314546  76.1485383  16.7779800  58.6460695  76.9995526
  18.0360106  58.4095966  76.1912716  15.5276096  64.4904770  77.7978337
  14.9997457  63.7557529  77.4851574  15.0263599  65.2679446  77.5518305
  20.5068942  62.6853790  82.9145383  19.8492616  63.3753051  83.0025512
  21.3109341  63.0750222  83.2579370  10.2594824  55.1524436  80.1584948
  10.8338575  54.9299617  79.4258141  10.8465806  55.2213130  80.9113550
  19.3174401  61.0398163  80.9649325  19.8306282  61.6728155  81.4671035
  19.9675625  60.4399358  80.5992685  10.5864411  57.1828897  74.1780834
   9.7501723  57.5203583  74.4990108  10.4469180  57.0477877  73.2407971
  12.5617491  52.0265685  78.8860018  11.9081904  51.7114702  78.2616633
  12.5197965  51.4041425  79.6119841  13.6728696  62.3084980  70.8013310
  12.7655758  62.0774233  71.0004459  14.1699728  61.5122599  70.9887291
  16.5796775  71.0182487  73.7209996  15.9058474  71.3214184  74.3294954
  16.9662597  71.8211567  73.3715453  15.7955232  58.5147618  83.2107665
  14.8777793  58.7362565  83.0529354  16.2115375  58.5893929  82.3519373
  16.5790279  59.9139034  78.3410346  17.3262098  60.4260431  78.0317468
  16.8481869  59.5923087  79.2014739  14.8516930  62.4097575  75.3237300
  13.9428149  62.1256607  75.4209770  14.8812013  62.8296653  74.4640607
  20.0836197  66.0204164  79.0928468  19.6298524  65.1795074  79.1493658
  19.4530164  66.6565563  79.4303248  18.5269136  67.8580661  80.0278286
  18.8192111  68.4185718  79.3090651  19.0367757  68.1509222  80.7831445
  19.1280744  49.7272402  80.9170904  19.4339621  48.8669766  80.6296819
  19.8533349  50.3190022  80.7169898   5.4205100  60.1303089  79.3052502
   5.2229500  59.5372450  78.5803569   4.8651764  59.8255299  80.0228441
  13.4001824  60.0226195  81.4247095  13.4550433  59.0700032  81.3489572
  12.5893026  60.1785634  81.9088394  14.5493017  63.9506318  72.6625379
  14.1112447  63.2342177  72.2031016  15.2903458  64.1782433  72.1010470
  11.3394183  58.6403255  79.1837474  10.5262049  58.9397426  79.5902666
  11.8353178  58.2458944  79.9011956  13.4902761  68.6361012  81.1171739
  13.4478940  68.8621858  80.1880271  14.4065460  68.4024387  81.2657540
  16.9368395  59.1045080  88.0152368  17.2917783  59.3316553  88.8746834
  17.5840526  59.4363456  87.3929623  22.6666132  62.2263515  78.7201697
  22.5284031  62.4165111  77.7922886  22.3102351  62.9882898  79.1769748
  10.8308258  56.2121611  84.7998709  11.4707638  56.0710370  84.1021672
   9.9985789  55.9256124  84.4237311  22.6935512  64.2940042  83.7312969
  23.1272018  64.2015331  84.5796023  23.4067092  64.2697543  83.0932985
  11.6068562  65.5124041  80.9133702  12.4009161  65.0174361  80.7116277
  10.8960255  64.9841904  80.5501407  16.4263407  67.8942137  85.2646069
  16.4800429  68.4633073  86.0323785  15.5578188  68.0644022  84.9000106
   7.9151326  59.6567123  76.9893454   6.9848914  59.5951578  77.2063416
   8.0108798  59.1343075  76.1930096   7.8336875  56.1821936  79.5771696
   8.0943692  57.0967269  79.4680856   8.6554047  55.7146378  79.7268309
   9.3061800  57.5959693  86.7470520   9.9784853  57.3877055  86.0983169
   8.4791587  57.3981779  86.3075753  23.5551061  64.3363743  86.2645854
  23.7486951  65.2409554  86.5105129  23.4551679  63.8771162  87.0984439
  15.2087372  54.2221634  88.7636181  14.5615287  54.9211583  88.6700658
  15.9788387  54.6557778  89.1312430  18.6166170  64.4870486  91.8386735
  18.4651676  64.2581037  90.9216818  18.6070849  65.4441087  91.8518080
  15.3851506  62.0602399  86.8233001  16.3143566  62.2113558  86.6501968
  14.9642536  62.1486419  85.9681648  14.1839838  66.0853063  84.5931539
  14.0450924  65.7171847  85.4657477  13.3954434  66.6000702  84.4215497
  14.7787990  71.1862159  75.9357075  14.9539746  70.7150203  76.7502698
  14.0920778  71.8127926  76.1638336  15.7345053  65.4634666  81.9820377
  15.3994886  65.4235436  82.8778026  15.2348999  64.7979382  81.5090787
   9.7089297  60.8702296  87.5072958   9.5709095  60.1382535  88.1084497
  10.6194221  60.7811196  87.2257145  18.6704245  62.8090700  72.2557436
  18.0533416  62.0837528  72.1590489  18.2020733  63.5700060  71.9124510
  12.3371598  60.5822255  86.9956637  13.0471216  59.9415447  86.9543256
  12.2940906  60.8335150  87.9182818  20.3258377  67.5189608  89.9163217
  20.2670923  66.8348828  89.2493800  20.7277895  68.2608598  89.4643843
  11.0500532  57.5687473  88.8152277  10.5137889  57.1178211  89.4673873
  10.4617240  57.7033382  88.0722741   9.3449075  74.3351522  82.7096935
   9.5845674  74.9670046  83.3875954   8.5018272  73.9839562  82.9962295
  10.4602791  57.0276124  71.3778740   9.5832257  56.9064925  71.0140987
  10.9360544  56.2362203  71.1257629  20.3275784  65.4829192  88.1477196
  19.4402563  65.1455114  88.2703595  20.8974335  64.7512224  88.3845962
   1.9804931  61.8153284  81.4720248   2.6675971  61.5015014  80.8841263
   1.8253060  62.7194649  81.1987499   6.7839653  56.7043481  85.9005271
   6.6997842  56.0969150  85.1655681   5.9622360  57.1952499  85.9014768
  13.8576937  70.1430645  85.1138439  13.7847109  70.9485616  85.6257744
  13.4154330  70.3422610  84.2886461  13.6466717  69.3802415  78.6241261
  12.8634239  69.9224095  78.7179485  14.3459462  69.8976394  79.0235502
  24.8093124  60.8937410  82.9093758  24.7983001  61.7762125  82.5387691
  23.9410504  60.5408960  82.7148295  16.3175621  70.0417479  87.2696598
  17.0303593  70.6764943  87.1972500  15.8265649  70.1381345  86.4536600
  18.0393148  63.9468731  78.8413890  17.1049426  64.0670194  78.6718594
  18.2169816  63.0441198  78.5773900  13.5398336  57.3314427  80.9947151
  13.1696123  56.7785467  81.6828057  14.0357428  56.7272561  80.4422151
  11.3687534  67.7911922  88.0902169  12.0696994  68.4248405  88.2431563
  10.8982649  68.1326654  87.3297808  19.4941930  66.1329872  76.3750076
  19.7701774  66.0186466  77.2843950  18.6246429  65.7347357  76.3362249
  19.1688820  60.3456530  85.9154719  18.5160271  60.5932437  85.2607172
  19.5469200  59.5320668  85.5817197  16.1295994  70.3816223  80.0182890
  16.3118389  69.5637879  80.4810642  16.9528980  70.5983915  79.5807780
  16.4638160  69.3084408  77.2797938  16.9925926  68.7976862  76.6668100
  16.7266379  68.9926938  78.1443471  15.2176393  61.0876341  92.4020756
  14.5417030  60.9870470  93.0723132  16.0404027  60.9315554  92.8656754
   6.9655252  67.3248277  85.0233272   7.5508689  66.5791965  85.1561176
   6.7680091  67.6352234  85.9069935   9.8193908  70.3599525  80.0395714
   9.1504283  70.8445652  79.5559754   9.6806777  70.6068745  80.9539092
   1.5572907  59.8953877  83.7437715   1.5957007  59.3617468  84.5374833
   1.0513200  59.3689083  83.1248692  13.9599176  72.3943268  86.6378372
  14.5117484  72.5574890  87.4027458  14.3005370  72.9847706  85.9658397
   8.9363669  54.7418418  87.2400257   9.0004996  55.6033249  86.8277655
   8.8730790  54.1292420  86.5072616   8.4115942  56.8141550  90.8873291
   9.0387981  56.4318628  91.5010816   7.5543861  56.5955752  91.2528984
  18.8110050  67.2204526  92.4927027  19.3549954  67.8334484  91.9981982
  18.2296895  67.7784104  93.0094040   5.1881485  58.6217980  76.8191646
   5.4834926  57.7128658  76.7658700   4.2869520  58.6005719  76.4972648
  17.0967563  70.3425244  83.6242054  16.9718703  69.5414983  83.1153000
  17.7546655  70.8371437  83.1356024   8.7175732  56.6973976  82.8019195
   7.9962317  57.3109944  82.6626668   9.5068987  57.2331741  82.7235841
  19.1602472  68.1434264  85.2521605  18.2132807  68.0239615  85.1799931
  19.5085245  67.2556762  85.3347866  11.5202045  54.0328403  89.0759846
  12.0436447  54.2790699  89.8386156  11.3014378  54.8648437  88.6562984
   6.9169326  56.3032077  76.9430971   6.5882032  55.4229456  76.7606077
   7.2708697  56.2479746  77.8307360  16.1648905  67.9386980  81.4525957
  16.0173868  67.0103687  81.6333527  16.9902399  67.9607071  80.9683032
  10.0311149  56.5905047  77.3106449  10.3707222  57.1190968  76.5885057
  10.4783270  56.9285453  78.0865015  19.7683027  68.7615539  82.5390830
  20.6929574  68.5558400  82.4015281  19.5998330  68.5131940  83.4480171
  12.7254590  54.9742098  86.7609517  12.3851411  54.1749911  87.1630197
  12.0193597  55.2743809  86.1886350  13.3771062  52.0591410  85.2136840
  14.1997131  51.5851888  85.0915730  13.6209126  52.8381894  85.7135526
  12.0179297  55.0879669  75.5099742  12.7387659  55.4660921  75.0063459
  11.3944601  55.8068545  75.6134720  16.1610419  55.7924818  76.4458074
  16.3774034  56.6749455  76.1446902  15.6804487  55.4011031  75.7163716
  10.9009641  58.7510531  83.0228819  10.7554222  59.0650834  83.9153100
  10.4234844  59.3695431  82.4699717  12.7606024  55.7413079  83.0709708
  12.7467592  54.8454172  82.7342006  13.4778452  55.7483743  83.7047994
  14.6132154  56.1750419  85.1162836  14.3549932  57.0967490  85.1147166
  14.0817195  55.7780854  85.8063300  19.5578343  69.2801206  77.8952921
  19.7315221  68.7147629  77.1426773  20.0507234  70.0802101  77.7132411
   5.3755303  61.2915875  85.9616480   4.8308771  62.0675683  86.0936754
   6.2534653  61.6386680  85.8035601  12.1642920  54.6227459  78.3397278
  12.2858831  53.6944105  78.5388166  11.8744962  54.6366145  77.4275594
  20.5453516  68.5967971  74.9949819  21.2404420  69.2174663  75.2137134
  20.8876666  67.7463322  75.2702197   6.1621325  60.4185771  88.8546637
   5.4203061  60.5668407  89.4411267   5.8414069  60.6794037  87.9913386
  22.4444939  66.0467676  76.5237150  22.9696263  66.3854949  75.7986470
  22.3567291  65.1114691  76.3400285  14.1064987  69.9601750  88.6527027
  14.4152114  69.7150896  89.5249726  14.9040470  70.1648388  88.1645897
  14.1285600  72.1139659  80.8832403  13.6890590  71.6216038  81.5765260
  14.8793716  71.5712627  80.6424478   6.6077939  68.3051200  80.8857031
   7.4335958  68.0054972  80.5055675   6.2571991  67.5358823  81.3346820
  11.5759472  67.6577668  82.9554705  10.9539481  66.9948373  82.6556933
  12.2464339  67.6838800  82.2728353   4.8086544  66.2237527  81.8445965
   3.9718452  65.7959701  81.6629966   4.7810189  66.4169970  82.7816756
  11.6483999  56.1359456  92.5487211  11.6972155  57.0121579  92.1664981
  12.1906513  55.5936849  91.9758854  22.1338845  66.6800580  91.8288348
  21.3434389  66.6624719  91.2892847  21.8972199  67.2188873  92.5837385
  22.2536720  63.5293046  89.1421077  22.3034725  63.3643053  90.0836599
  22.1450643  62.6620305  88.7518957  11.1372979  66.2081592  76.4313165
  11.2861099  66.8917056  75.7779838  11.9439422  66.1886682  76.9462621
  19.5440482  59.5123974  90.4580383  20.4450345  59.3730439  90.1664381
  19.6188457  59.6778429  91.3978561  13.8783288  56.8890829  89.3033570
  13.0086597  57.1824395  89.0316158  14.1142768  57.4731274  90.0240833
  23.7554917  65.9489988  89.3863098  23.4639725  66.3119968  90.2226559
  23.1427048  65.2356996  89.2076430  24.9550599  63.5142867  81.9065668
  25.7897490  63.9532671  82.0703229  25.0909728  63.0381521  81.0873914
  22.0042105  61.0722602  87.8543156  22.4796227  61.2650248  87.0462007
  21.0807670  61.1281788  87.6086540   8.8925612  62.2346769  77.4374234
   8.6471654  61.3309099  77.6354444   9.0621526  62.2363920  76.4953712
  16.5822321  53.1070446  86.8198990  17.1004265  53.8431473  86.4945479
  16.2277454  53.4134439  87.6545749   8.1621259  57.9675127  74.9360396
   7.4690504  58.0419482  74.2800432   7.9173011  57.2035471  75.4581913
  14.6368384  68.7029722  73.9024913  14.0642351  69.3219909  73.4495385
  15.2101178  69.2529084  74.4364835  20.7043774  57.9488362  86.0871462
  21.6561197  58.0486460  86.1083686  20.5347224  57.1566631  86.5969546
  18.7258153  55.0343945  86.2730863  18.1308086  55.3148958  85.5777351
  18.4407850  55.5237846  87.0447604  17.8565644  68.9866872  75.0333495
  18.7896317  68.9212434  75.2366371  17.7688857  69.8223139  74.5748028
  20.4853661  68.3032743  71.9937443  20.4067292  67.9692606  72.8873201
  21.3063327  68.7954511  71.9928915  23.1831852  61.1694482  85.2013761
  23.1508172  60.2310483  85.3873445  23.7932475  61.2478519  84.4679586
  15.0215183  60.0390535  71.2440965  15.9674287  59.9096743  71.3129383
  14.6429428  59.3005197  71.7210394  23.3326340  57.9605525  85.2472045
  22.8165389  57.1763982  85.0601973  24.2166289  57.6324242  85.4118564
  29.0008402  62.2310489  84.3419798  29.7311790  61.9695777  84.9027501
  28.3915347  61.4939211  84.3821866  27.0823699  60.3718351  84.9394249
  26.3556862  60.2374316  84.3310741  26.6670986  60.6795180  85.7450967
  14.9053875  64.0908281  92.7041622  15.8256885  64.2686880  92.8981669
  14.8703458  63.1464326  92.5521322  13.2058100  57.9640511  71.1795851
  12.2989555  57.6673624  71.2558564  13.4834081  57.6670329  70.3130137
   4.1236040  59.2846875  81.6294897   3.8038825  58.4312183  81.3369271
   3.5769468  59.4995453  82.3852864   7.9015948  62.0009316  85.3464404
   8.1201957  62.9326424  85.3652437   8.3141722  61.6417290  86.1319207
  14.8220166  52.5077401  77.3340092  14.0120894  52.1624486  77.7095338
  15.5104582  52.1984945  77.9227703  12.7743813  57.5742521  94.7367152
  12.6740540  58.5236878  94.6679244  12.5565355  57.2460760  93.8643223
  11.9756884  54.8227447  71.3207830  12.8376048  55.1482345  71.5803647
  12.1607229  54.0358942  70.8080896   3.9924300  62.9049786  83.5988019
   3.2987772  62.4903739  83.0857973   4.7397291  62.9470323  83.0021437
  12.6375083  61.0039660  93.5532214  12.1542165  61.8040020  93.7596103
  12.7236022  61.0147605  92.5999658   5.9061043  62.8368040  81.4754033
   5.8831731  62.9355727  80.5235917   6.2161679  63.6833191  81.7971200
   8.5648421  64.8944195  85.5900648   9.5191674  64.8628137  85.5230579
   8.3660944  64.4334819  86.4050874   9.1547803  63.4645311  88.1571446
   9.9740692  63.9589390  88.1806283   9.4284610  62.5477279  88.1289013
   6.9198649  70.4363815  82.6070846   6.7853117  69.6764215  82.0408844
   6.5030712  71.1604714  82.1399635  18.0557612  65.6200738  71.6147421
  18.7593462  65.8250741  72.2305077  17.3320261  66.1877500  71.8796505
  18.8855423  61.3710599  77.7349691  18.8290624  61.8279151  76.8957324
  19.4383765  60.6101284  77.5572534  10.0767775  71.3333132  82.8189288
   9.9600159  72.2778564  82.7167979   9.2560222  71.0306693  83.2075088
  19.9644310  66.0583267  73.6645881  20.7989914  65.6264466  73.4823356
  19.8028653  65.8865281  74.5922776  19.6190202  62.5615381  75.0302220
  19.5639006  62.3959652  74.0890664  18.9936257  63.2691413  75.1864410
   4.4082717  57.7983445  88.8563643   5.0541581  57.2882399  89.3450868
   4.1999868  58.5352127  89.4307068  16.9336109  64.8664292  94.3555783
  17.8027269  65.0404945  93.9942418  16.4542861  65.6858709  94.2331513
  12.9286327  52.0623490  74.6087539  12.9164997  53.0065329  74.7655810
  13.8209749  51.8793635  74.3147000  11.1022289  71.9861393  86.0345217
  12.0049536  72.0185004  86.3511712  10.8759659  71.0561844  86.0491553
  12.8575891  70.7392380  82.6955295  11.9071522  70.7394242  82.5819668
  13.1608378  69.9925115  82.1791330  16.7438447  48.6566266  78.8633476
  15.9770843  48.1024753  79.0090158  17.1549152  48.7288135  79.7247627
   8.7480208  54.9451062  92.9538657   9.6111669  54.5887867  93.1641981
   8.1745619  54.6064957  93.6414061  28.5928585  76.5752918  83.7601058
  29.2306995  76.4559666  83.0564398  28.4749428  77.5233762  83.8189010
  25.4018291  76.5280346  83.6962583  25.0636803  76.4121411  82.8083117
  26.2708059  76.1271512  83.6763589  21.2605107  78.3815823  79.6859473
  20.6969972  78.2905760  78.9175761  21.1457502  77.5615727  80.1661966
  25.8838074  77.6815198  89.6548788  25.8726715  77.2867996  88.7829292
  26.0458714  76.9481271  90.2482560  18.8069539  79.8767014  82.5243694
  19.5990831  79.5357839  82.1089993  19.0466189  79.9861990  83.4445847
  26.8404666  82.0486791  74.9973938  26.1892645  82.6340871  74.6107952
  27.6349028  82.5792985  75.0568976  20.7660293  79.1375928  75.3961073
  21.5391169  78.5904915  75.2573949  21.1185692  80.0020177  75.6075534
  22.6045335  80.4652310  88.6027972  22.3135201  81.3697941  88.4874638
  23.2402320  80.5068838  89.3172042  23.5301542  77.8429159  85.1929332
  24.1265114  77.6185181  84.4786295  23.5876514  77.1013904  85.7954780
  23.1026571  75.2968594  73.0279523  23.3552091  74.7750115  72.2662986
  22.1651130  75.1334739  73.1306206  28.1469853  74.3004372  80.8354266
  28.9332943  73.8823795  80.4844683  28.4108558  75.2050464  81.0035914
  28.3179931  79.7377223  75.5342923  27.6825764  79.8111849  76.2463827
  27.9877337  80.3270821  74.8562002  33.5478280  74.2379605  81.7387244
  34.2803452  73.6678822  81.9725074  32.7917636  73.8501206  82.1793750
  22.8222859  77.1996700  75.2303898  22.7059117  76.5241603  75.8984982
  22.9325119  76.7129074  74.4136051  25.1654400  76.6606847  78.9350587
  24.8012607  76.1337468  79.6463508  26.0221516  76.2705316  78.7617072
  31.0703701  67.9501180  86.1981853  30.7387026  68.8196590  85.9743068
  30.4749314  67.6337464  86.8775883  24.8059887  71.6896747  73.9311935
  24.9734290  72.5576983  74.2982406  24.6157056  71.8524028  73.0073225
  27.5635220  80.1513726  85.5977766  27.2635943  81.0538764  85.4893573
  27.2186280  79.8845909  86.4498919  21.0147702  76.6027522  81.6314470
  20.0898198  76.4703736  81.8392162  21.2632115  77.3821742  82.1284413
  30.9632364  72.6696266  83.2775203  30.0549241  72.6011674  82.9833964
  30.9119960  73.1468211  84.1057029  24.7849108  74.1454404  74.9158602
  24.6648733  74.5911455  75.7544082  24.0901696  74.4939722  74.3572140
  18.3756513  76.2460796  82.4658259  18.5048894  76.4995275  83.3797671
  17.6953964  76.8388504  82.1462914  22.5456000  86.9158046  78.5648733
  22.4680030  87.8665871  78.6437214  21.9417644  86.5703918  79.2223660
  25.0373230  74.0885911  91.2210100  24.2606564  74.6479831  91.2112965
  25.6763793  74.5742694  91.7424970  32.8294011  70.8712704  85.0553077
  32.1868391  71.1645237  84.4092872  32.3248939  70.7565624  85.8606274
  30.4834174  74.6175877  75.7438936  31.3952030  74.8503264  75.5686634
  29.9743821  75.2012922  75.1814015  23.2919602  76.8971365  90.7828067
  24.0334287  77.4356409  90.5062891  22.5856588  77.5237653  90.9399619
  28.7674942  79.0400505  89.3800229  29.1758298  78.5982916  88.6354861
  28.0452203  78.4653133  89.6334422  25.1206012  73.9773112  86.7533786
  25.9667207  74.4012525  86.8968435  25.0604650  73.3206736  87.4472349
  29.0903757  79.6001696  83.1352518  28.4612619  79.7647410  82.4328586
  28.7029419  80.0143305  83.9063482  32.9692988  80.5356134  80.4896881
  32.2844027  80.9155035  79.9393915  33.0536838  81.1451460  81.2228829
  28.2705457  71.6377480  88.4114959  28.0266389  72.3919541  87.8749235
  28.5465388  72.0162828  89.2462206  30.2243920  78.1816093  87.0892225
  30.4360815  78.8247853  86.4126606  30.1773668  77.3478409  86.6214155
  27.8270149  70.7933913  83.9928797  26.9654628  71.0915167  84.2845535
  27.8532584  71.0104312  83.0609830  24.6431718  79.3376104  80.4002603
  25.1070064  79.6163807  79.6107225  24.3788517  78.4359548  80.2175693
  21.5355799  78.8847585  83.3382366  22.1057157  79.3134854  82.6999851
  22.1263911  78.6030170  84.0366552  23.5800604  75.4599256  77.2092168
  24.2824648  75.9120300  77.6766094  23.2481233  74.8183075  77.8372061
  22.0280966  74.0511013  91.5843377  21.3979627  74.7327294  91.8178774
  21.9217054  73.9394094  90.6396516  17.3225938  73.7182809  82.5109301
  16.5324992  73.9740337  82.0349412  17.8137186  74.5331147  82.6161342
  31.3389748  81.0588048  85.2614582  32.1607192  80.6568235  84.9797264
  31.3352151  80.9556282  86.2130698  19.2740684  74.0827388  79.4692778
  18.4771847  74.1946082  79.9876274  19.0466276  74.4214040  78.6033669
  25.1046351  80.6072091  87.4175293  25.1690784  81.0692499  88.2533465
  24.3957275  79.9769456  87.5457603  15.6063641  73.9713299  84.9424292
  15.8571680  74.8560309  85.2081868  16.1423190  73.7917901  84.1699384
  39.4295741  77.4026797  81.6099554  38.6759449  76.8334195  81.4543558
  39.5643282  77.3689461  82.5570188  24.8194369  82.2740199  77.2854273
  24.6840044  83.1191735  77.7139121  25.3604182  82.4759476  76.5220207
  21.3061709  68.3531779  93.9468628  20.9128654  67.7997977  94.6216273
  22.1227849  68.6642357  94.3375146  18.2723766  79.7915637  77.8582198
  18.7848287  80.5858887  78.0087763  18.9246479  79.0941927  77.7915800
  20.0818651  82.9081393  79.9404951  20.2585280  83.8299358  79.7525935
  20.8775485  82.5939812  80.3699331  24.2229670  69.7689658  91.5388885
  24.9639383  70.3696811  91.4593347  24.4547593  69.0267296  90.9806927
  19.3671008  74.9546025  89.8167115  19.2524523  74.0531282  90.1174214
  18.5115525  75.2009722  89.4651931  26.4462845  82.8963765  91.4154615
  26.0026700  82.1100144  91.0975520  27.1080059  83.0842916  90.7498506
  21.2049967  84.4259567  85.9415294  21.7557392  84.2976630  85.1692288
  20.3661443  84.7254456  85.5910187  28.5444084  83.1766565  89.4436016
  28.5262559  83.9975446  88.9516286  29.4664004  83.0520640  89.6686158
  25.0017138  80.6910695  90.2859525  25.5345474  79.9298983  90.0558833
  24.4731219  80.3984347  91.0283679  28.1686833  65.7970761  85.8153167
  27.8251102  66.6872402  85.7392277  28.5365795  65.6072418  84.9522752
  16.2372683  78.1204291  78.6341769  17.0747905  78.5301300  78.4175476
  16.4150951  77.1803733  78.6041963  28.1337115  75.7879372  74.3225602
  27.6183739  76.5583976  74.5613989  27.8614424  75.1144508  74.9458663
  25.7184226  70.6329073  79.3810840  24.8625823  70.2435923  79.2016479
  26.1311178  70.7121033  78.5210626  27.2483373  68.1675416  83.7802400
  26.7448169  68.1305551  82.9670205  27.5413980  69.0768159  83.8399057
  23.4926259  68.2514146  82.7868582  24.3579256  68.0556954  82.4274471
  23.5603768  68.0224497  83.7137938  33.1071389  78.5411726  76.2578775
  32.3300832  78.2022886  75.8133937  33.7862870  78.5464350  75.5833740
  27.9223419  73.6606464  76.1485383  27.6173554  73.9752613  76.9995526
  28.8753861  73.7387884  76.1912716  26.3669850  79.8196687  77.7978337
  25.8391212  79.0849447  77.4851574  25.8657353  80.5971364  77.5518305
  31.3462696  78.0145708  82.9145383  30.6886371  78.7044969  83.0025512
  32.1503096  78.4042140  83.2579370  21.0988578  70.4816354  80.1584948
  21.6732330  70.2591535  79.4258141  21.6859560  70.5505048  80.9113550
  30.1568155  76.3690080  80.9649325  30.6700037  77.0020072  81.4671035
  30.8069379  75.7691276  80.5992685  21.4258165  72.5120815  74.1780834
  20.5895477  72.8495501  74.4990108  21.2862935  72.3769794  73.2407971
  23.4011246  67.3557602  78.8860018  22.7475658  67.0406620  78.2616633
  23.3591720  66.7333343  79.6119841  24.5122451  77.6376897  70.8013310
  23.6049512  77.4066151  71.0004459  25.0093483  76.8414517  70.9887291
  27.4190529  86.3474405  73.7209996  26.7452228  86.6506101  74.3294954
  27.8056351  87.1503485  73.3715453  26.6348986  73.8439536  83.2107665
  25.7171547  74.0654483  83.0529354  27.0509130  73.9185846  82.3519373
  27.4184034  75.2430952  78.3410346  28.1655853  75.7552349  78.0317468
  27.6875623  74.9215004  79.2014739  25.6910684  77.7389492  75.3237300
  24.7821903  77.4548525  75.4209770  25.7205768  78.1588571  74.4640607
  30.9229951  81.3496082  79.0928468  30.4692279  80.5086992  79.1493658
  30.2923918  81.9857480  79.4303248  29.8662871  72.2788068  80.3229135
  29.1285628  71.7665454  80.6539378  30.1189645  71.8388449  79.5112412
  29.3662891  83.1872579  80.0278286  29.6585865  83.7477636  79.3090651
  29.8761511  83.4801140  80.7831445  29.9674498  65.0564320  80.9170904
  30.2733375  64.1961683  80.6296819  30.6927103  65.6481940  80.7169898
  16.2598854  75.4595006  79.3052502  16.0623254  74.8664367  78.5803569
  15.7045518  75.1547217  80.0228441  24.2395578  75.3518113  81.4247095
  24.2944188  74.3991949  81.3489572  23.4286780  75.5077552  81.9088394
  25.3886772  79.2798236  72.6625379  24.9506202  78.5634095  72.2031016
  26.1297213  79.5074351  72.1010470  22.1787938  73.9695173  79.1837474
  21.3655803  74.2689343  79.5902666  22.6746932  73.5750861  79.9011956
  24.3296516  83.9652930  81.1171739  24.2872695  84.1913776  80.1880271
  25.2459215  83.7316304  81.2657540  27.7762150  74.4336997  88.0152368
  28.1311537  74.6608470  88.8746834  28.4234281  74.7655374  87.3929623
  33.5059887  77.5555433  78.7201697  33.3677785  77.7457029  77.7922886
  33.1496105  78.3174816  79.1769748  21.6702013  71.5413528  84.7998709
  22.3101392  71.4002287  84.1021672  20.8379543  71.2548042  84.4237311
  33.5329266  79.6231960  83.7312969  33.9665773  79.5307249  84.5796023
  34.2460847  79.5989461  83.0932985  22.4462317  80.8415959  80.9133702
  23.2402915  80.3466279  80.7116277  21.7354009  80.3133822  80.5501407
  27.2657161  83.2234054  85.2646069  27.3194183  83.7924990  86.0323785
  26.3971942  83.3935939  84.9000106  18.7545080  74.9859040  76.9893454
  17.8242668  74.9243496  77.2063416  18.8502552  74.4634993  76.1930096
  18.6730629  71.5113853  79.5771696  18.9337446  72.4259186  79.4680856
  19.4947801  71.0438296  79.7268309  20.1455554  72.9251610  86.7470520
  20.8178608  72.7168973  86.0983169  19.3185341  72.7273696  86.3075753
  34.3944816  79.6655661  86.2645854  34.5880706  80.5701471  86.5105129
  34.2945434  79.2063080  87.0984439  26.0481126  69.5513551  88.7636181
  25.4009042  70.2503501  88.6700658  26.8182142  69.9849695  89.1312430
  29.4559924  79.8162403  91.8386735  29.3045431  79.5872955  90.9216818
  29.4464604  80.7733005  91.8518080  26.2245261  77.3894316  86.8233001
  27.1537321  77.5405476  86.6501968  25.8036291  77.4778337  85.9681648
  25.0233593  81.4144981  84.5931539  24.8844678  81.0463765  85.4657477
  24.2348189  81.9292620  84.4215497  25.6181745  86.5154077  75.9357075
  25.7933500  86.0442120  76.7502698  24.9314533  87.1419843  76.1638336
  26.5738808  80.7926583  81.9820377  26.2388640  80.7527353  82.8778026
  26.0742753  80.1271299  81.5090787  20.5483052  76.1994213  87.5072958
  20.4102850  75.4674452  88.1084497  21.4587975  76.1103113  87.2257145
  29.5097999  78.1382618  72.2557436  28.8927170  77.4129446  72.1590489
  29.0414488  78.8991978  71.9124510  23.1765352  75.9114173  86.9956637
  23.8864971  75.2707365  86.9543256  23.1334661  76.1627068  87.9182818
  31.1652131  82.8481526  89.9163217  31.1064677  82.1640746  89.2493800
  31.5671649  83.5900516  89.4643843  21.8894286  72.8979391  88.8152277
  21.3531643  72.4470129  89.4673873  21.3010995  73.0325299  88.0722741
  20.1842830  89.6643440  82.7096935  20.4239428  90.2961964  83.3875954
  19.3412026  89.3131480  82.9962295  21.2996545  72.3568042  71.3778740
  20.4226012  72.2356843  71.0140987  21.7754298  71.5654120  71.1257629
  31.1669538  80.8121110  88.1477196  30.2796317  80.4747032  88.2703595
  31.7368089  80.0804141  88.3845962  12.8198685  77.1445202  81.4720248
  13.5069725  76.8306932  80.8841263  12.6646814  78.0486566  81.1987499
  17.6233408  72.0335398  85.9005271  17.5391596  71.4261068  85.1655681
  16.8016114  72.5244417  85.9014768  24.6970692  85.4722562  85.1138439
  24.6240863  86.2777534  85.6257744  24.2548085  85.6714528  84.2886461
  24.4860471  84.7094332  78.6241261  23.7027993  85.2516013  78.7179485
  25.1853217  85.2268312  79.0235502  27.7957121  70.5188962  81.2675466
  28.2925821  69.7658924  80.9476537  27.0244103  70.5553278  80.7018676
  35.6486879  76.2229327  82.9093758  35.6376755  77.1054043  82.5387691
  34.7804258  75.8700878  82.7148295  27.1569375  85.3709396  87.2696598
  27.8697347  86.0056861  87.1972500  26.6659404  85.4673262  86.4536600
  28.8786902  79.2760649  78.8413890  27.9443181  79.3962111  78.6718594
  29.0563571  78.3733116  78.5773900  24.3792090  72.6606345  80.9947151
  24.0089878  72.1077385  81.6828057  24.8751183  72.0564478  80.4422151
  32.2659454  75.1177968  79.3763924  32.7319906  75.9505960  79.3024227
  32.7166954  74.6522950  80.0809182  22.2081289  83.1203840  88.0902169
  22.9090748  83.7540323  88.2431563  21.7376404  83.4618571  87.3297808
  30.3335685  81.4621790  76.3750076  30.6095529  81.3478384  77.2843950
  29.4640183  81.0639274  76.3362249  30.2376116  67.4858555  83.4154825
  29.3239196  67.7162782  83.5837032  30.6669218  67.5696999  84.2668858
  30.0082575  75.6748447  85.9154719  29.3554025  75.9224355  85.2607172
  30.3862955  74.8612585  85.5817197  26.9689749  85.7108140  80.0182890
  27.1512143  84.8929796  80.4810642  27.7922735  85.9275833  79.5807780
  27.3031914  84.6376326  77.2797938  27.8319681  84.1268780  76.6668100
  27.5660134  84.3218856  78.1443471  26.0570148  76.4168258  92.4020756
  25.3810785  76.3162388  93.0723132  26.8797782  76.2607472  92.8656754
  17.8049007  82.6540195  85.0233272  18.3902444  81.9083883  85.1561176
  17.6073845  82.9644152  85.9069935  20.6587662  85.6891442  80.0395714
  19.9898037  86.1737570  79.5559754  20.5200532  85.9360663  80.9539092
  12.3966662  75.2245795  83.7437715  12.4350761  74.6909386  84.5374833
  11.8906954  74.6981001  83.1248692  24.7992931  87.7235186  86.6378372
  25.3511239  87.8866807  87.4027458  25.1399124  88.3139624  85.9658397
  19.7757424  70.0710336  87.2400257  19.8398750  70.9325166  86.8277655
  19.7124544  69.4584337  86.5072616  19.2509696  72.1433468  90.8873291
  19.8781735  71.7610545  91.5010816  18.3937615  71.9247670  91.2528984
  29.6503805  82.5496443  92.4927027  30.1943709  83.1626402  91.9981982
  29.0690650  83.1076022  93.0094040  16.0275239  73.9509897  76.8191646
  16.3228680  73.0420576  76.7658700  15.1263275  73.9297637  76.4972648
  27.9361318  85.6717161  83.6242054  27.8112457  84.8706901  83.1153000
  28.5940409  86.1663355  83.1356024  19.5569486  72.0265894  82.8019195
  18.8356072  72.6401862  82.6626668  20.3462742  72.5623659  82.7235841
  29.9996226  83.4726181  85.2521605  29.0526562  83.3531533  85.1799931
  30.3478999  82.5848679  85.3347866  22.3595800  69.3620320  89.0759846
  22.8830202  69.6082617  89.8386156  22.1408133  70.1940355  88.6562984
  17.7563081  71.6323995  76.9430971  17.4275787  70.7521374  76.7606077
  18.1102451  71.5771664  77.8307360  27.0042660  83.2678898  81.4525957
  26.8567622  82.3395605  81.6333527  27.8296153  83.2898988  80.9683032
  20.8704904  71.9196965  77.3106449  21.2100976  72.4482886  76.5885057
  21.3177024  72.2577371  78.0865015  30.6076781  84.0907456  82.5390830
  31.5323329  83.8850318  82.4015281  30.4392085  83.8423857  83.4480171
  23.5648345  70.3034015  86.7609517  23.2245165  69.5041828  87.1630197
  22.8587351  70.6035726  86.1886350  24.2164817  67.3883328  85.2136840
  25.0390886  66.9143806  85.0915730  24.4602880  68.1673812  85.7135526
  22.8573051  70.4171586  75.5099742  23.5781414  70.7952839  75.0063459
  22.2338355  71.1360463  75.6134720  27.0004174  71.1216735  76.4458074
  27.2167788  72.0041373  76.1446902  26.5198241  70.7302949  75.7163716
  21.7403395  74.0802448  83.0228819  21.5947976  74.3942752  83.9153100
  21.2628599  74.6987349  82.4699717  23.5999778  71.0704996  83.0709708
  23.5861347  70.1746090  82.7342006  24.3172206  71.0775660  83.7047994
  25.4525909  71.5042337  85.1162836  25.1943687  72.4259407  85.1147166
  24.9210949  71.1072771  85.8063300  30.3972098  84.6093124  77.8952921
  30.5708975  84.0439546  77.1426773  30.8900989  85.4094019  77.7132411
  16.2149057  76.6207793  85.9616480  15.6702526  77.3967601  86.0936754
  17.0928407  76.9678597  85.8035601  23.0036674  69.9519377  78.3397278
  23.1252585  69.0236023  78.5388166  22.7138717  69.9658063  77.4275594
  25.8727865  67.6374287  81.4763998  25.8949561  67.7013620  80.5215978
  26.2895924  66.7978796  81.6704504  36.2511489  77.3729547  79.5143221
  36.6942635  76.6236872  79.1162344  35.3737999  77.3639683  79.1316953
  31.3847270  83.9259888  74.9949819  32.0798175  84.5466581  75.2137134
  31.7270420  83.0755239  75.2702197  17.0015079  75.7477689  88.8546637
  16.2596815  75.8960324  89.4411267  16.6807824  76.0085955  87.9913386
  33.2838693  81.3759594  76.5237150  33.8090017  81.7146866  75.7986470
  33.1961046  80.4406609  76.3400285  24.9458742  85.2893667  88.6527027
  25.2545868  85.0442814  89.5249726  25.7434224  85.4940306  88.1645897
  24.9679354  87.4431577  80.8832403  24.5284344  86.9507956  81.5765260
  25.7187471  86.9004545  80.6424478  17.4471693  83.6343118  80.8857031
  18.2729713  83.3346890  80.5055675  17.0965745  82.8650740  81.3346820
  22.4153226  82.9869586  82.9554705  21.7933235  82.3240291  82.6556933
  23.0858093  83.0130718  82.2728353  15.6480298  81.5529444  81.8445965
  14.8112206  81.1251619  81.6629966  15.6203943  81.7461888  82.7816756
  22.4877754  71.4651374  92.5487211  22.5365909  72.3413497  92.1664981
  23.0300268  70.9228767  91.9758854  32.9732599  82.0092497  91.8288348
  32.1828143  81.9916636  91.2892847  32.7365954  82.5480791  92.5837385
  33.0930474  78.8584964  89.1421077  33.1428479  78.6934971  90.0836599
  32.9844398  77.9912223  88.7518957  21.9766733  81.5373509  76.4313165
  22.1254853  82.2208974  75.7779838  22.7833177  81.5178599  76.9462621
  30.3834237  74.8415892  90.4580383  31.2844100  74.7022357  90.1664381
  30.4582211  75.0070347  91.3978561  24.7177042  72.2182747  89.3033570
  23.8480352  72.5116313  89.0316158  24.9536522  72.8023192  90.0240833
  34.5948671  81.2781905  89.3863098  34.3033480  81.6411886  90.2226559
  33.9820803  80.5648914  89.2076430  35.7944354  78.8434785  81.9065668
  36.6291245  79.2824589  82.0703229  35.9303482  78.3673438  81.0873914
  32.8435859  76.4014520  87.8543156  33.3189981  76.5942166  87.0462007
  31.9201425  76.4573706  87.6086540  19.7319366  77.5638687  77.4374234
  19.4865408  76.6601017  77.6354444  19.9015281  77.5655837  76.4953712
  27.4216076  68.4362363  86.8198990  27.9398020  69.1723390  86.4945479
  27.0671209  68.7426357  87.6545749  19.0015014  73.2967045  74.9360396
  18.3084259  73.3711400  74.2800432  18.7566766  72.5327388  75.4581913
  27.6728670  64.8562646  82.3399887  27.9530424  64.1885835  82.9660313
  28.4579277  65.0491742  81.8274550  25.4762139  84.0321640  73.9024913
  24.9036106  84.6511827  73.4495385  26.0494932  84.5821002  74.4364835
  31.5437528  73.2780280  86.0871462  32.4954951  73.3778378  86.1083686
  31.3740979  72.4858549  86.5969546  29.5651908  70.3635863  86.2730863
  28.9701840  70.6440876  85.5777351  29.2801605  70.8529764  87.0447604
  28.6959398  84.3158790  75.0333495  29.6290072  84.2504352  75.2366371
  28.6082611  85.1515057  74.5748028  31.3247415  83.6324660  71.9937443
  31.2461047  83.2984524  72.8873201  32.1457082  84.1246428  71.9928915
  34.0225606  76.4986400  85.2013761  33.9901926  75.5602400  85.3873445
  34.6326230  76.5770436  84.4679586  25.8608937  75.3682453  71.2440965
  26.8068042  75.2388661  71.3129383  25.4823182  74.6297115  71.7210394
  34.1720095  73.2897443  85.2472045  33.6559143  72.5055900  85.0601973
  35.0560043  72.9616160  85.4118564  31.8330822  67.0338459  81.2067857
  31.6355643  66.7253547  82.0911189  32.4430527  67.7600098  81.3365787
  39.8402156  77.5602406  84.3419798  40.5705545  77.2987695  84.9027501
  39.2309102  76.8231128  84.3821866  37.9217453  75.7010269  84.9394249
  37.1950617  75.5666234  84.3310741  37.5064740  76.0087098  85.7450967
  25.7447630  79.4200199  92.7041622  26.6650639  79.5978798  92.8981669
  25.7097213  78.4756244  92.5521322  24.0451854  73.2932429  71.1795851
  23.1383310  72.9965542  71.2558564  24.3227835  72.9962247  70.3130137
  14.9629795  74.6138792  81.6294897  14.6432579  73.7604101  81.3369271
  14.4163223  74.8287371  82.3852864  18.7409702  77.3301233  85.3464404
  18.9595712  78.2618341  85.3652437  19.1535476  76.9709208  86.1319207
  25.6613920  67.8369319  77.3340092  24.8514648  67.4916404  77.7095338
  26.3498337  67.5276862  77.9227703  27.5904468  66.9147366  78.9564389
  28.1435507  67.3342819  79.6154412  27.8274555  65.9883114  78.9987345
  23.6137568  72.9034439  94.7367152  23.5134294  73.8528796  94.6679244
  23.3959110  72.5752678  93.8643223  14.8318055  78.2341704  83.5988019
  14.1381526  77.8195657  83.0857973  15.5791046  78.2762240  83.0021437
  30.9683275  69.0247891  78.4643053  30.3881944  69.6832695  78.0821105
  30.7019208  68.2025235  78.0530470  29.4186842  68.4252948  80.6664373
  29.9186620  68.5369483  79.8578692  30.0622450  68.1214001  81.3065182
  23.4768838  76.3331578  93.5532214  22.9935919  77.1331938  93.7596103
  23.5629777  76.3439523  92.5999658  16.7454797  78.1659958  81.4754033
  16.7225485  78.2647645  80.5235917  17.0555434  79.0125108  81.7971200
  19.4042175  80.2236113  85.5900648  20.3585429  80.1920055  85.5230579
  19.2054699  79.7626736  86.4050874  19.9941557  78.7937229  88.1571446
  20.8134446  79.2881307  88.1806283  20.2678365  77.8769197  88.1289013
  29.7508153  71.1847981  77.5199401  28.8634008  71.4697632  77.3019596
  30.1662142  71.0241744  76.6726678  33.1022690  71.2094502  81.2353740
  33.8783080  71.6990954  81.5078357  32.3770824  71.6352556  81.6925610
  35.5395248  71.9222121  82.2927681  36.1339739  71.6817857  81.5820989
  35.6121832  71.2029252  82.9201217  17.7592404  85.7655732  82.6070846
  17.6246872  85.0056133  82.0408844  17.3424466  86.4896632  82.1399635
  28.8951367  80.9492656  71.6147421  29.5987217  81.1542658  72.2305077
  28.1714016  81.5169418  71.8796505  29.7249177  76.7002517  77.7349691
  29.6684379  77.1571068  76.8957324  30.2777520  75.9393202  77.5572534
  33.5353983  72.4892249  78.5599811  33.2790917  72.0888885  79.3908018
  32.9106851  73.2036043  78.4349950  37.8466321  75.2288322  81.0671102
  37.2865879  75.2981511  81.8402664  37.2409824  75.0529307  80.3470598
  20.9161530  86.6625049  82.8189288  20.7993914  87.6070482  82.7167979
  20.0953976  86.3598611  83.2075088  30.8038064  81.3875185  73.6645881
  31.6383668  80.9556383  73.4823356  30.6422407  81.2157199  74.5922776
  30.4583956  77.8907298  75.0302220  30.4032760  77.7251570  74.0890664
  29.8330012  78.5983331  75.1864410  15.2476471  73.1275363  88.8563643
  15.8935335  72.6174317  89.3450868  15.0393623  73.8644044  89.4307068
  27.7729864  80.1956210  94.3555783  28.6421023  80.3696862  93.9942418
  27.2936615  81.0150627  94.2331513  23.7680082  67.3915407  74.6087539
  23.7558752  68.3357247  74.7655810  24.6603504  67.2085553  74.3147000
  21.9416044  87.3153311  86.0345217  22.8443291  87.3476921  86.3511712
  21.7153414  86.3853762  86.0491553  23.6969646  86.0684298  82.6955295
  22.7465277  86.0686159  82.5819668  24.0002132  85.3217032  82.1791330
  19.5873962  70.2742980  92.9538657  20.4505424  69.9179785  93.1641981
  19.0139373  69.9356875  93.6414061  39.4322339  91.9044836  83.7601058
  40.0700749  91.7851583  83.0564398  39.3143182  92.8525680  83.8189010
  36.2412046  91.8572264  83.6962583  35.9030557  91.7413329  82.8083117
  37.1101814  91.4563429  83.6763589  32.0998861  93.7107741  79.6859473
  31.5363726  93.6197678  78.9175761  31.9851256  92.8907645  80.1661966
  36.7231829  93.0107116  89.6548788  36.7120469  92.6159914  88.7829292
  36.8852468  92.2773188  90.2482560  29.6463293  95.2058932  82.5243694
  30.4384585  94.8649757  82.1089993  29.8859943  95.3153907  83.4445847
  37.6798420  97.3778708  74.9973938  37.0286400  97.9632789  74.6107952
  38.4742783  97.9084903  75.0568976  31.6054047  94.4667845  75.3961073
  32.3784923  93.9196833  75.2573949  31.9579446  95.3312095  75.6075534
  33.4439090  95.7944228  88.6027972  33.1528956  96.6989859  88.4874638
  34.0796074  95.8360755  89.3172042  34.3695297  93.1721076  85.1929332
  34.9658869  92.9477099  84.4786295  34.4270268  92.4305822  85.7954780
  33.9420325  90.6260512  73.0279523  34.1945846  90.1042033  72.2662986
  33.0044884  90.4626657  73.1306206  38.9863608  89.6296290  80.8354266
  39.7726697  89.2115713  80.4844683  39.2502312  90.5342382  81.0035914
  39.1573685  95.0669140  75.5342923  38.5219518  95.1403767  76.2463827
  38.8271092  95.6562739  74.8562002  44.3872035  89.5671523  81.7387244
  45.1197207  88.9970740  81.9725074  43.6311391  89.1793124  82.1793750
  33.6616614  92.5288617  75.2303898  33.5452872  91.8533521  75.8984982
  33.7718874  92.0420991  74.4136051  36.0048155  91.9898765  78.9350587
  35.6406362  91.4629386  79.6463508  36.8615271  91.5997234  78.7617072
  41.9097455  83.2793097  86.1981853  41.5780780  84.1488508  85.9743068
  41.3143069  82.9629381  86.8775883  35.6453642  87.0188664  73.9311935
  35.8128044  87.8868901  74.2982406  35.4550811  87.1815946  73.0073225
  38.4028975  95.4805643  85.5977766  38.1029698  96.3830682  85.4893573
  38.0580034  95.2137826  86.4498919  31.8541456  91.9319440  81.6314470
  30.9291953  91.7995654  81.8392162  32.1025870  92.7113659  82.1284413
  41.8026119  87.9988183  83.2775203  40.8942996  87.9303592  82.9833964
  41.7513714  88.4760128  84.1057029  35.6242863  89.4746322  74.9158602
  35.5042488  89.9203373  75.7544082  34.9295451  89.8231639  74.3572140
  29.2150267  91.5752714  82.4658259  29.3442649  91.8287193  83.3797671
  28.5347719  92.1680422  82.1462914  33.3849755 102.2449964  78.5648733
  33.3073784 103.1957789  78.6437214  32.7811398 101.8995836  79.2223660
  35.8766984  89.4177829  91.2210100  35.1000318  89.9771749  91.2112965
  36.5157547  89.9034612  91.7424970  43.6687765  86.2004622  85.0553077
  43.0262145  86.4937155  84.4092872  43.1642694  86.0857542  85.8606274
  41.3227929  89.9467795  75.7438936  42.2345785  90.1795182  75.5686634
  40.8137576  90.5304839  75.1814015  34.1313357  92.2263282  90.7828067
  34.8728041  92.7648326  90.5062891  33.4250342  92.8529571  90.9399619
  39.6068696  94.3692423  89.3800229  40.0152052  93.9274833  88.6354861
  38.8845958  93.7945050  89.6334422  35.9599766  89.3065030  86.7533786
  36.8060962  89.7304443  86.8968435  35.8998404  88.6498654  87.4472349
  39.9297511  94.9293613  83.1352518  39.3006373  95.0939328  82.4328586
  39.5423173  95.3435223  83.9063482  43.8086743  95.8648051  80.4896881
  43.1237781  96.2446953  79.9393915  43.8930592  96.4743378  81.2228829
  39.1099212  86.9669398  88.4114959  38.8660144  87.7211458  87.8749235
  39.3859142  87.3454746  89.2462206  41.0637675  93.5108010  87.0892225
  41.2754570  94.1539770  86.4126606  41.0167423  92.6770327  86.6214155
  38.6663903  86.1225831  83.9928797  37.8048383  86.4207085  84.2845535
  38.6926338  86.3396230  83.0609830  35.4825473  94.6668022  80.4002603
  35.9463818  94.9455724  79.6107225  35.2182271  93.7651466  80.2175693
  32.3749554  94.2139503  83.3382366  32.9450911  94.6426771  82.6999851
  32.9657666  93.9322088  84.0366552  34.4194359  90.7891174  77.2092168
  35.1218402  91.2412218  77.6766094  34.0874987  90.1474993  77.8372061
  32.8674720  89.3802931  91.5843377  32.2373381  90.0619211  91.8178774
  32.7610808  89.2686012  90.6396516  28.1619693  89.0474727  82.5109301
  27.3718747  89.3032255  82.0349412  28.6530940  89.8623064  82.6161342
  42.1783502  96.3879966  85.2614582  43.0000946  95.9860153  84.9797264
  42.1745905  96.2848200  86.2130698  30.1134438  89.4119306  79.4692778
  29.3165602  89.5238000  79.9876274  29.8860030  89.7505958  78.6033669
  35.9440106  95.9364009  87.4175293  36.0084538  96.3984416  88.2533465
  35.2351030  95.3061374  87.5457603  26.4457396  89.3005217  84.9424292
  26.6965434  90.1852227  85.2081868  26.9816944  89.1209819  84.1699384
  50.2689496  92.7318714  81.6099554  49.5153204  92.1626112  81.4543558
  50.4037037  92.6981379  82.5570188  35.6588124  97.6032117  77.2854273
  35.5233798  98.4483652  77.7139121  36.1997936  97.8051394  76.5220207
  32.1455463  83.6823696  93.9468628  31.7522409  83.1289895  94.6216273
  32.9621604  83.9934275  94.3375146  29.1117521  95.1207555  77.8582198
  29.6242042  95.9150805  78.0087763  29.7640234  94.4233845  77.7915800
  30.9212406  98.2373311  79.9404951  31.0979034  99.1591276  79.7525935
  31.7169239  97.9231730  80.3699331  35.0623424  85.0981575  91.5388885
  35.8033138  85.6988729  91.4593347  35.2941347  84.3559213  90.9806927
  30.2064762  90.2837943  89.8167115  30.0918277  89.3823200  90.1174214
  29.3509280  90.5301639  89.4651931  37.2856600  98.2255683  91.4154615
  36.8420454  97.4392062  91.0975520  37.9473814  98.4134834  90.7498506
  32.0443721  99.7551485  85.9415294  32.5951146  99.6268548  85.1692288
  31.2055197 100.0546374  85.5910187  39.3837838  98.5058483  89.4436016
  39.3656313  99.3267364  88.9516286  40.3057758  98.3812558  89.6686158
  35.8410892  96.0202612  90.2859525  36.3739229  95.2590901  90.0558833
  35.3124973  95.7276264  91.0283679  39.0080587  81.1262678  85.8153167
  38.6644857  82.0164320  85.7392277  39.3759550  80.9364336  84.9522752
  27.0766438  93.4496209  78.6341769  27.9141660  93.8593217  78.4175476
  27.2544705  92.5095651  78.6041963  38.9730870  91.1171289  74.3225602
  38.4577493  91.8875894  74.5613989  38.7008178  90.4436426  74.9458663
  36.5577981  85.9620990  79.3810840  35.7019577  85.5727841  79.2016479
  36.9704933  86.0412951  78.5210626  38.0877128  83.4967334  83.7802400
  37.5841923  83.4597469  82.9670205  38.3807734  84.4060076  83.8399057
  34.3320013  83.5806063  82.7868582  35.1973010  83.3848872  82.4274471
  34.3997522  83.3516415  83.7137938  43.9465144  93.8703644  76.2578775
  43.1694587  93.5314804  75.8133937  44.6256625  93.8756267  75.5833740
  38.7617173  88.9898382  76.1485383  38.4567309  89.3044531  76.9995526
  39.7147615  89.0679801  76.1912716  37.2063605  95.1488605  77.7978337
  36.6784966  94.4141364  77.4851574  36.7051108  95.9263281  77.5518305
  42.1856451  93.3437625  82.9145383  41.5280125  94.0336887  83.0025512
  42.9896850  93.7334057  83.2579370  31.9382332  85.8108271  80.1584948
  32.5126084  85.5883453  79.4258141  32.5253315  85.8796966  80.9113550
  40.9961910  91.6981998  80.9649325  41.5093791  92.3311990  81.4671035
  41.6463134  91.0983194  80.5992685  32.2651920  87.8412732  74.1780834
  31.4289232  88.1787419  74.4990108  32.1256689  87.7061712  73.2407971
  34.2405000  82.6849520  78.8860018  33.5869413  82.3698537  78.2616633
  34.1985474  82.0625261  79.6119841  35.3516205  92.9668815  70.8013310
  34.4443267  92.7358069  71.0004459  35.8487237  92.1706434  70.9887291
  38.2584284 101.6766322  73.7209996  37.5845983 101.9798019  74.3294954
  38.6450106 102.4795403  73.3715453  37.4742741  89.1731454  83.2107665
  36.5565302  89.3946401  83.0529354  37.8902884  89.2477764  82.3519373
  38.2577788  90.5722869  78.3410346  39.0049607  91.0844267  78.0317468
  38.5269378  90.2506922  79.2014739  36.5304438  93.0681410  75.3237300
  35.6215658  92.7840443  75.4209770  36.5599522  93.4880489  74.4640607
  41.7623706  96.6788000  79.0928468  41.3086033  95.8378909  79.1493658
  41.1317673  97.3149398  79.4303248  40.7056625  87.6079986  80.3229135
  39.9679382  87.0957372  80.6539378  40.9583399  87.1680367  79.5112412
  40.2056645  98.5164496  80.0278286  40.4979620  99.0769553  79.3090651
  40.7155266  98.8093057  80.7831445  40.8068253  80.3856238  80.9170904
  41.1127130  79.5253601  80.6296819  41.5320858  80.9773858  80.7169898
  27.0992609  90.7886924  79.3052502  26.9017009  90.1956285  78.5803569
  26.5439273  90.4839134  80.0228441  35.0789333  90.6810031  81.4247095
  35.1337942  89.7283867  81.3489572  34.2680535  90.8369470  81.9088394
  36.2280526  94.6090154  72.6625379  35.7899956  93.8926013  72.2031016
  36.9690967  94.8366269  72.1010470  33.0181692  89.2987090  79.1837474
  32.2049558  89.5981261  79.5902666  33.5140687  88.9042779  79.9011956
  35.1690270  99.2944847  81.1171739  35.1266449  99.5205694  80.1880271
  36.0852969  99.0608222  81.2657540  38.6155904  89.7628915  88.0152368
  38.9705292  89.9900388  88.8746834  39.2628035  90.0947292  87.3929623
  44.3453641  92.8847351  78.7201697  44.2071540  93.0748947  77.7922886
  43.9889860  93.6466734  79.1769748  32.5095767  86.8705446  84.7998709
  33.1495147  86.7294205  84.1021672  31.6773298  86.5839959  84.4237311
  44.3723021  94.9523878  83.7312969  44.8059527  94.8599167  84.5796023
  45.0854601  94.9281378  83.0932985  33.2856071  96.1707876  80.9133702
  34.0796670  95.6758196  80.7116277  32.5747764  95.6425739  80.5501407
  38.1050916  98.5525972  85.2646069  38.1587938  99.1216908  86.0323785
  37.2365697  98.7227857  84.9000106  29.5938835  90.3150958  76.9893454
  28.6636423  90.2535414  77.2063416  29.6896307  89.7926911  76.1930096
  29.5124384  86.8405771  79.5771696  29.7731201  87.7551104  79.4680856
  30.3341556  86.3730213  79.7268309  30.9849309  88.2543528  86.7470520
  31.6572362  88.0460890  86.0983169  30.1579095  88.0565614  86.3075753
  45.2338570  94.9947578  86.2645854  45.4274460  95.8993389  86.5105129
  45.1339188  94.5354997  87.0984439  36.8874881  84.8805469  88.7636181
  36.2402796  85.5795419  88.6700658  37.6575896  85.3141613  89.1312430
  40.2953679  95.1454321  91.8386735  40.1439185  94.9164873  90.9216818
  40.2858358  96.1024923  91.8518080  37.0639015  92.7186234  86.8233001
  37.9931075  92.8697394  86.6501968  36.6430045  92.8070255  85.9681648
  35.8627347  96.7436898  84.5931539  35.7238433  96.3755683  85.4657477
  35.0741943  97.2584538  84.4215497  36.4575499 101.8445995  75.9357075
  36.6327255 101.3734038  76.7502698  35.7708287 102.4711761  76.1638336
  37.4132562  96.1218501  81.9820377  37.0782395  96.0819271  82.8778026
  36.9136508  95.4563217  81.5090787  31.3876806  91.5286131  87.5072958
  31.2496604  90.7966370  88.1084497  32.2981730  91.4395031  87.2257145
  40.3491754  93.4674535  72.2557436  39.7320925  92.7421364  72.1590489
  39.8808242  94.2283896  71.9124510  34.0159107  91.2406090  86.9956637
  34.7258725  90.5999283  86.9543256  33.9728415  91.4918985  87.9182818
  42.0045886  98.1773444  89.9163217  41.9458432  97.4932664  89.2493800
  42.4065404  98.9192434  89.4643843  32.7288041  88.2271308  88.8152277
  32.1925398  87.7762047  89.4673873  32.1404749  88.3617217  88.0722741
  31.0236584 104.9935358  82.7096935  31.2633183 105.6253882  83.3875954
  30.1805781 104.6423398  82.9962295  32.1390300  87.6859960  71.3778740
  31.2619766  87.5648760  71.0140987  32.6148053  86.8946038  71.1257629
  42.0063293  96.1413028  88.1477196  41.1190072  95.8038949  88.2703595
  42.5761844  95.4096059  88.3845962  23.6592440  92.4737119  81.4720248
  24.3463480  92.1598849  80.8841263  23.5040569  93.3778484  81.1987499
  28.4627162  87.3627316  85.9005271  28.3785351  86.7552985  85.1655681
  27.6409869  87.8536334  85.9014768  35.5364446 100.8014480  85.1138439
  35.4634618 101.6069451  85.6257744  35.0941839 101.0006446  84.2886461
  35.3254226 100.0386250  78.6241261  34.5421748 100.5807930  78.7179485
  36.0246971 100.5560230  79.0235502  38.6350876  85.8480879  81.2675466
  39.1319576  85.0950842  80.9476537  37.8637857  85.8845196  80.7018676
  46.4880633  91.5521245  82.9093758  46.4770510  92.4345960  82.5387691
  45.6198013  91.1992796  82.7148295  37.9963130 100.7001314  87.2696598
  38.7091102 101.3348779  87.1972500  37.5053158 100.7965180  86.4536600
  39.7180657  94.6052567  78.8413890  38.7836935  94.7254029  78.6718594
  39.8957325  93.7025033  78.5773900  35.2185845  87.9898262  80.9947151
  34.8483632  87.4369303  81.6828057  35.7144937  87.3856396  80.4422151
  43.1053208  90.4469886  79.3763924  43.5713660  91.2797878  79.3024227
  43.5560709  89.9814868  80.0809182  33.0475043  98.4495757  88.0902169
  33.7484503  99.0832240  88.2431563  32.5770158  98.7910489  87.3297808
  41.1729439  96.7913707  76.3750076  41.4489283  96.6770302  77.2843950
  40.3033938  96.3931192  76.3362249  41.0769871  82.8150473  83.4154825
  40.1632951  83.0454700  83.5837032  41.5062972  82.8988917  84.2668858
  40.8476329  91.0040365  85.9154719  40.1947779  91.2516272  85.2607172
  41.2256709  90.1904503  85.5817197  37.8083503 101.0400058  80.0182890
  37.9905898 100.2221714  80.4810642  38.6316489 101.2567750  79.5807780
  38.1425669  99.9668243  77.2797938  38.6713435  99.4560698  76.6668100
  38.4053888  99.6510773  78.1443471  36.8963902  91.7460176  92.4020756
  36.2204539  91.6454305  93.0723132  37.7191536  91.5899390  92.8656754
  28.6442761  97.9832113  85.0233272  29.2296198  97.2375800  85.1561176
  28.4467600  98.2936069  85.9069935  31.4981417 101.0183360  80.0395714
  30.8291792 101.5029488  79.5559754  31.3594286 101.2652580  80.9539092
  23.2360416  90.5537713  83.7437715  23.2744516  90.0201303  84.5374833
  22.7300709  90.0272918  83.1248692  35.6386685 103.0527103  86.6378372
  36.1904993 103.2158725  87.4027458  35.9792879 103.6431541  85.9658397
  30.6151178  85.4002253  87.2400257  30.6792505  86.2617084  86.8277655
  30.5518299  84.7876255  86.5072616  30.0903451  87.4725386  90.8873291
  30.7175490  87.0902463  91.5010816  29.2331370  87.2539588  91.2528984
  40.4897559  97.8788361  92.4927027  41.0337463  98.4918319  91.9981982
  39.9084404  98.4367939  93.0094040  26.8668994  89.2801815  76.8191646
  27.1622435  88.3712493  76.7658700  25.9657029  89.2589554  76.4972648
  38.7755072 101.0009079  83.6242054  38.6506212 100.1998819  83.1153000
  39.4334164 101.4955272  83.1356024  30.3963241  87.3557811  82.8019195
  29.6749826  87.9693779  82.6626668  31.1856496  87.8915576  82.7235841
  40.8389981  98.8018099  85.2521605  39.8920316  98.6823450  85.1799931
  41.1872754  97.9140597  85.3347866  33.1989554  84.6912238  89.0759846
  33.7223956  84.9374535  89.8386156  32.9801887  85.5232273  88.6562984
  28.5956835  86.9615913  76.9430971  28.2669541  86.0813291  76.7606077
  28.9496206  86.9063581  77.8307360  37.8436414  98.5970815  81.4525957
  37.6961377  97.6687523  81.6333527  38.6689908  98.6190906  80.9683032
  31.7098658  87.2488882  77.3106449  32.0494731  87.7774804  76.5885057
  32.1570779  87.5869288  78.0865015  41.4470536  99.4199374  82.5390830
  42.3717083  99.2142235  82.4015281  41.2785839  99.1715775  83.4480171
  34.4042099  85.6325933  86.7609517  34.0638920  84.8333746  87.1630197
  33.6981105  85.9327644  86.1886350  35.0558571  82.7175245  85.2136840
  35.8784640  82.2435724  85.0915730  35.2996635  83.4965729  85.7135526
  33.6966806  85.7463504  75.5099742  34.4175168  86.1244757  75.0063459
  33.0732110  86.4652381  75.6134720  37.8397928  86.4508653  76.4458074
  38.0561543  87.3333291  76.1446902  37.3591996  86.0594866  75.7163716
  32.5797150  89.4094366  83.0228819  32.4341731  89.7234669  83.9153100
  32.1022353  90.0279266  82.4699717  34.4393533  86.3996914  83.0709708
  34.4255101  85.5038007  82.7342006  35.1565961  86.4067578  83.7047994
  36.2919663  86.8334254  85.1162836  36.0337441  87.7551325  85.1147166
  35.7604704  86.4364689  85.8063300  41.2365852  99.9385041  77.8952921
  41.4102730  99.3731464  77.1426773  41.7294743 100.7385936  77.7132411
  27.0542812  91.9499711  85.9616480  26.5096280  92.7259518  86.0936754
  27.9322162  92.2970515  85.8035601  33.8430429  85.2811294  78.3397278
  33.9646340  84.3527941  78.5388166  33.5532471  85.2949980  77.4275594
  36.7121619  82.9666205  81.4763998  36.7343316  83.0305538  80.5215978
  37.1289678  82.1270713  81.6704504  47.0905243  92.7021464  79.5143221
  47.5336389  91.9528790  79.1162344  46.2131754  92.6931601  79.1316953
  42.2241025  99.2551806  74.9949819  42.9191929  99.8758499  75.2137134
  42.5664175  98.4047157  75.2702197  27.8408834  91.0769607  88.8546637
  27.0990570  91.2252242  89.4411267  27.5201578  91.3377872  87.9913386
  44.1232448  96.7051511  76.5237150  44.6483772  97.0438784  75.7986470
  44.0354800  95.7698527  76.3400285  35.7852496 100.6185585  88.6527027
  36.0939623 100.3734732  89.5249726  36.5827978 100.8232223  88.1645897
  35.8073109 102.7723495  80.8832403  35.3678099 102.2799873  81.5765260
  36.5581225 102.2296462  80.6424478  28.2865448  98.9635036  80.8857031
  29.1123467  98.6638807  80.5055675  27.9359499  98.1942658  81.3346820
  33.2546981  98.3161504  82.9554705  32.6326990  97.6532209  82.6556933
  33.9251848  98.3422636  82.2728353  26.4874053  96.8821362  81.8445965
  25.6505961  96.4543536  81.6629966  26.4597698  97.0753805  82.7816756
  33.3271508  86.7943292  92.5487211  33.3759664  87.6705415  92.1664981
  33.8694022  86.2520685  91.9758854  43.8126354  97.3384415  91.8288348
  43.0221898  97.3208554  91.2892847  43.5759708  97.8772709  92.5837385
  43.9324229  94.1876881  89.1421077  43.9822234  94.0226889  90.0836599
  43.8238152  93.3204140  88.7518957  32.8160488  96.8665427  76.4313165
  32.9648608  97.5500891  75.7779838  33.6226931  96.8470517  76.9462621
  41.2227991  90.1707809  90.4580383  42.1237854  90.0314274  90.1664381
  41.2975966  90.3362264  91.3978561  35.5570797  87.5474664  89.3033570
  34.6874106  87.8408230  89.0316158  35.7930277  88.1315109  90.0240833
  45.4342426  96.6073823  89.3863098  45.1427234  96.9703803  90.2226559
  44.8214557  95.8940831  89.2076430  46.6338108  94.1726703  81.9065668
  47.4684999  94.6116507  82.0703229  46.7697237  93.6965356  81.0873914
  43.6829614  91.7306438  87.8543156  44.1583736  91.9234084  87.0462007
  42.7595179  91.7865623  87.6086540  30.5713121  92.8930605  77.4374234
  30.3259163  91.9892935  77.6354444  30.7409035  92.8947755  76.4953712
  38.2609830  83.7654281  86.8198990  38.7791774  84.5015308  86.4945479
  37.9064963  84.0718274  87.6545749  29.8408768  88.6258962  74.9360396
  29.1478013  88.7003317  74.2800432  29.5960520  87.8619306  75.4581913
  38.5122425  80.1854564  82.3399887  38.7924178  79.5177753  82.9660313
  39.2973032  80.3783659  81.8274550  36.3155893  99.3613558  73.9024913
  35.7429860  99.9803745  73.4495385  36.8888687  99.9112919  74.4364835
  42.3831283  88.6072198  86.0871462  43.3348706  88.7070295  86.1083686
  42.2134733  87.8150466  86.5969546  40.4045662  85.6927781  86.2730863
  39.8095595  85.9732794  85.5777351  40.1195359  86.1821682  87.0447604
  39.5353153  99.6450708  75.0333495  40.4683826  99.5796269  75.2366371
  39.4476366 100.4806975  74.5748028  42.1641170  98.9616578  71.9937443
  42.0854801  98.6276442  72.8873201  42.9850836  99.4538346  71.9928915
  44.8619361  91.8278317  85.2013761  44.8295681  90.8894318  85.3873445
  45.4719984  91.9062354  84.4679586  36.7002692  90.6974370  71.2440965
  37.6461796  90.5680578  71.3129383  36.3216937  89.9589032  71.7210394
  45.0113849  88.6189361  85.2472045  44.4952898  87.8347817  85.0601973
  45.8953798  88.2908077  85.4118564  42.6724576  82.3630376  81.2067857
  42.4749397  82.0545465  82.0911189  43.2824282  83.0892015  81.3365787
  50.6795911  92.8894324  84.3419798  51.4099299  92.6279612  84.9027501
  50.0702856  92.1523046  84.3821866  48.7611208  91.0302187  84.9394249
  48.0344371  90.8958152  84.3310741  48.3458495  91.3379015  85.7450967
  36.5841384  94.7492116  92.7041622  37.5044394  94.9270715  92.8981669
  36.5490967  93.8048162  92.5521322  34.8845609  88.6224347  71.1795851
  33.9777064  88.3257459  71.2558564  35.1621590  88.3254165  70.3130137
  25.8023549  89.9430710  81.6294897  25.4826333  89.0896018  81.3369271
  25.2556977  90.1579288  82.3852864  29.5803457  92.6593151  85.3464404
  29.7989466  93.5910259  85.3652437  29.9929231  92.3001125  86.1319207
  36.5007674  83.1661236  77.3340092  35.6908403  82.8208321  77.7095338
  37.1892091  82.8568780  77.9227703  38.4298223  82.2439283  78.9564389
  38.9829261  82.6634737  79.6154412  38.6668309  81.3175031  78.9987345
  34.4531322  88.2326357  94.7367152  34.3528049  89.1820714  94.6679244
  34.2352864  87.9044596  93.8643223  33.6544393  85.4811282  71.3207830
  34.5163557  85.8066180  71.5803647  33.8394738  84.6942778  70.8080896
  25.6711809  93.5633622  83.5988019  24.9775281  93.1487574  83.0857973
  26.4184800  93.6054158  83.0021437  41.8077030  84.3539808  78.4643053
  41.2275699  85.0124612  78.0821105  41.5412963  83.5317153  78.0530470
  40.2580596  83.7544866  80.6664373  40.7580375  83.8661401  79.8578692
  40.9016204  83.4505919  81.3065182  34.3162592  91.6623496  93.5532214
  33.8329674  92.4623856  93.7596103  34.4023531  91.6731441  92.5999658
  27.5848552  93.4951875  81.4754033  27.5619240  93.5939563  80.5235917
  27.8949188  94.3417026  81.7971200  30.2435930  95.5528030  85.5900648
  31.1979183  95.5211973  85.5230579  30.0448453  95.0918654  86.4050874
  30.8335312  94.1229146  88.1571446  31.6528201  94.6173225  88.1806283
  31.1072119  93.2061115  88.1289013  40.5901908  86.5139899  77.5199401
  39.7027763  86.7989549  77.3019596  41.0055897  86.3533662  76.6726678
  43.9416444  86.5386420  81.2353740  44.7176834  87.0282872  81.5078357
  43.2164578  86.9644474  81.6925610  46.3789003  87.2514039  82.2927681
  46.9733493  87.0109775  81.5820989  46.4515586  86.5321170  82.9201217
  28.5986158 101.0947650  82.6070846  28.4640626 100.3348051  82.0408844
  28.1818221 101.8188550  82.1399635  39.7345121  96.2784573  71.6147421
  40.4380971  96.4834576  72.2305077  39.0107770  96.8461335  71.8796505
  40.5642932  92.0294435  77.7349691  40.5078133  92.4862986  76.8957324
  41.1171274  91.2685119  77.5572534  44.3747738  87.8184167  78.5599811
  44.1184672  87.4180802  79.3908018  43.7500606  88.5327960  78.4349950
  48.6860075  90.5580240  81.0671102  48.1259633  90.6273429  81.8402664
  48.0803579  90.3821224  80.3470598  31.7555284 101.9916967  82.8189288
  31.6387668 102.9362399  82.7167979  30.9347730 101.6890528  83.2075088
  41.6431819  96.7167103  73.6645881  42.4777423  96.2848301  73.4823356
  41.4816162  96.5449116  74.5922776  41.2977711  93.2199216  75.0302220
  41.2426515  93.0543487  74.0890664  40.6723766  93.9275249  75.1864410
  26.0870226  88.4567280  88.8563643  26.7329090  87.9466234  89.3450868
  25.8787377  89.1935962  89.4307068  38.6123618  95.5248128  94.3555783
  39.4814778  95.6988780  93.9942418  38.1330370  96.3442545  94.2331513
  34.6073836  82.7207325  74.6087539  34.5952506  83.6649165  74.7655810
  35.4997258  82.5377470  74.3147000  32.7809798 102.6445229  86.0345217
  33.6837045 102.6768839  86.3511712  32.5547168 101.7145680  86.0491553
  34.5363400 101.3976215  82.6955295  33.5859031 101.3978077  82.5819668
  34.8395887 100.6508950  82.1791330  38.4225956  79.3150102  78.8633476
  37.6558352  78.7608588  79.0090158  38.8336661  79.3871970  79.7247627
  30.4267717  85.6034897  92.9538657  31.2899178  85.2471702  93.1641981
  29.8533128  85.2648792  93.6414061  50.2716094 107.2336754  83.7601058
  50.9094504 107.1143501  83.0564398  50.1536937 108.1817598  83.8189010
  47.0805800 107.1864182  83.6962583  46.7424312 107.0705247  82.8083117
  47.9495568 106.7855347  83.6763589  42.9392616 109.0399658  79.6859473
  42.3757481 108.9489595  78.9175761  42.8245011 108.2199563  80.1661966
  47.5625583 108.3399034  89.6548788  47.5514224 107.9451832  88.7829292
  47.7246223 107.6065106  90.2482560  40.4857048 110.5350850  82.5243694
  41.2778340 110.1941674  82.1089993  40.7253698 110.6445825  83.4445847
  48.5192175 112.7070626  74.9973938  47.8680154 113.2924706  74.6107952
  49.3136537 113.2376821  75.0568976  42.4447802 109.7959763  75.3961073
  43.2178678 109.2488750  75.2573949  42.7973201 110.6604012  75.6075534
  44.2832844 111.1236145  88.6027972  43.9922710 112.0281776  88.4874638
  44.9189829 111.1652673  89.3172042  45.2089051 108.5012994  85.1929332
  45.8052623 108.2769016  84.4786295  45.2664023 107.7597739  85.7954780
  44.7814080 105.9552429  73.0279523  45.0339600 105.4333950  72.2662986
  43.8438639 105.7918575  73.1306206  49.8257362 104.9588208  80.8354266
  50.6120452 104.5407631  80.4844683  50.0896067 105.8634300  81.0035914
  49.9967440 110.3961058  75.5342923  49.3613273 110.4695684  76.2463827
  49.6664846 110.9854657  74.8562002  55.2265789 104.8963441  81.7387244
  55.9590961 104.3262658  81.9725074  54.4705145 104.5085041  82.1793750
  44.5010368 107.8580535  75.2303898  44.3846626 107.1825439  75.8984982
  44.6112628 107.3712909  74.4136051  46.8441909 107.3190682  78.9350587
  46.4800116 106.7921303  79.6463508  47.7009025 106.9289151  78.7617072
  52.7491210  98.6085015  86.1981853  52.4174535  99.4780426  85.9743068
  52.1536823  98.2921299  86.8775883  46.4847396 102.3480582  73.9311935
  46.6521799 103.2160818  74.2982406  46.2944565 102.5107864  73.0073225
  49.2422729 110.8097561  85.5977766  48.9423452 111.7122600  85.4893573
  48.8973789 110.5429744  86.4498919  42.6935211 107.2611358  81.6314470
  41.7685707 107.1287572  81.8392162  42.9419624 108.0405577  82.1284413
  52.6419873 103.3280101  83.2775203  51.7336750 103.2595509  82.9833964
  52.5907469 103.8052046  84.1057029  46.4636617 104.8038239  74.9158602
  46.3436242 105.2495290  75.7544082  45.7689205 105.1523557  74.3572140
  40.0544022 106.9044631  82.4658259  40.1836403 107.1579110  83.3797671
  39.3741473 107.4972339  82.1462914  44.2243509 117.5741881  78.5648733
  44.1467539 118.5249706  78.6437214  43.6205153 117.2287754  79.2223660
  46.7160739 104.7469747  91.2210100  45.9394073 105.3063667  91.2112965
  47.3551302 105.2326530  91.7424970  54.5081520 101.5296539  85.0553077
  53.8655900 101.8229073  84.4092872  54.0036448 101.4149460  85.8606274
  52.1621683 105.2759713  75.7438936  53.0739539 105.5087099  75.5686634
  51.6531330 105.8596757  75.1814015  44.9707111 107.5555200  90.7828067
  45.7121796 108.0940244  90.5062891  44.2644097 108.1821489  90.9399619
  50.4462451 109.6984340  89.3800229  50.8545807 109.2566751  88.6354861
  49.7239712 109.1236968  89.6334422  46.7993521 104.6356947  86.7533786
  47.6454716 105.0596361  86.8968435  46.7392159 103.9790572  87.4472349
  50.7691266 110.2585531  83.1352518  50.1400128 110.4231245  82.4328586
  50.3816928 110.6727141  83.9063482  54.6480497 111.1939969  80.4896881
  53.9631536 111.5738870  79.9393915  54.7324347 111.8035296  81.2228829
  49.9492966 102.2961316  88.4114959  49.7053898 103.0503376  87.8749235
  50.2252897 102.6746663  89.2462206  51.9031429 108.8399928  87.0892225
  52.1148324 109.4831688  86.4126606  51.8561177 108.0062245  86.6214155
  49.5057658 101.4517749  83.9928797  48.6442137 101.7499002  84.2845535
  49.5320093 101.6688148  83.0609830  46.3219227 109.9959939  80.4002603
  46.7857573 110.2747642  79.6107225  46.0576025 109.0943384  80.2175693
  43.2143308 109.5431421  83.3382366  43.7844666 109.9718689  82.6999851
  43.8051420 109.2614005  84.0366552  45.2588113 106.1183092  77.2092168
  45.9612157 106.5704135  77.6766094  44.9268742 105.4766910  77.8372061
  43.7068475 104.7094848  91.5843377  43.0767136 105.3911129  91.8178774
  43.6004563 104.5977930  90.6396516  39.0013447 104.3766644  82.5109301
  38.2112501 104.6324173  82.0349412  39.4924695 105.1914982  82.6161342
  53.0177257 111.7171883  85.2614582  53.8394701 111.3152071  84.9797264
  53.0139660 111.6140118  86.2130698  40.9528193 104.7411223  79.4692778
  40.1559356 104.8529918  79.9876274  40.7253785 105.0797876  78.6033669
  46.7833860 111.2655927  87.4175293  46.8478293 111.7276334  88.2533465
  46.0744784 110.6353292  87.5457603  37.2851150 104.6297135  84.9424292
  37.5359189 105.5144145  85.2081868  37.8210699 104.4501736  84.1699384
  46.4981878 112.9324034  77.2854273  46.3627553 113.7775570  77.7139121
  47.0391691 113.1343312  76.5220207  42.9849218  99.0115614  93.9468628
  42.5916163  98.4581813  94.6216273  43.8015358  99.3226193  94.3375146
  39.9511275 110.4499472  77.8582198  40.4635796 111.2442722  78.0087763
  40.6033988 109.7525763  77.7915800  41.7606160 113.5665228  79.9404951
  41.9372788 114.4883193  79.7525935  42.5562994 113.2523648  80.3699331
  45.9017179 100.4273493  91.5388885  46.6426892 101.0280646  91.4593347
  46.1335102  99.6851131  90.9806927  41.0458517 105.6129860  89.8167115
  40.9312032 104.7115118  90.1174214  40.1903034 105.8593557  89.4651931
  48.1250354 113.5547601  91.4154615  47.6814209 112.7683979  91.0975520
  48.7867568 113.7426751  90.7498506  42.8837476 115.0843402  85.9415294
  43.4344901 114.9560466  85.1692288  42.0448952 115.3838291  85.5910187
  50.2231593 113.8350401  89.4436016  50.2050068 114.6559282  88.9516286
  51.1451513 113.7104476  89.6686158  46.6804647 111.3494530  90.2859525
  47.2132983 110.5882818  90.0558833  46.1518728 111.0568182  91.0283679
  49.8474342  96.4554596  85.8153167  49.5038611  97.3456238  85.7392277
  50.2153304  96.2656254  84.9522752  37.9160192 108.7788127  78.6341769
  38.7535414 109.1885135  78.4175476  38.0938460 107.8387569  78.6041963
  49.8124624 106.4463207  74.3225602  49.2971248 107.2167812  74.5613989
  49.5401933 105.7728343  74.9458663  47.3971735 101.2912908  79.3810840
  46.5413332 100.9019758  79.2016479  47.8098687 101.3704869  78.5210626
  48.9270882  98.8259251  83.7802400  48.4235678  98.7889386  82.9670205
  49.2201489  99.7351994  83.8399057  45.1713768  98.9097981  82.7868582
  46.0366765  98.7140790  82.4274471  45.2391277  98.6808333  83.7137938
  54.7858898 109.1995562  76.2578775  54.0088341 108.8606721  75.8133937
  55.4650379 109.2048185  75.5833740  49.6010928 104.3190299  76.1485383
  49.2961063 104.6336448  76.9995526  50.5541370 104.3971719  76.1912716
  48.0457359 110.4780523  77.7978337  47.5178721 109.7433282  77.4851574
  47.5444862 111.2555199  77.5518305  53.0250205 108.6729543  82.9145383
  52.3673880 109.3628804  83.0025512  53.8290605 109.0625975  83.2579370
  42.7776087 101.1400189  80.1584948  43.3519839 100.9175370  79.4258141
  43.3647069 101.2088883  80.9113550  51.8355664 107.0273916  80.9649325
  52.3487546 107.6603908  81.4671035  52.4856888 106.4275111  80.5992685
  43.1045674 103.1704650  74.1780834  42.2682986 103.5079336  74.4990108
  42.9650444 103.0353630  73.2407971  45.0798755  98.0141438  78.8860018
  44.4263167  97.6990455  78.2616633  45.0379229  97.3917178  79.6119841
  46.1909960 108.2960733  70.8013310  45.2837021 108.0649986  71.0004459
  46.6880992 107.4998352  70.9887291  49.0978038 117.0058240  73.7209996
  48.4239737 117.3089937  74.3294954  49.4843860 117.8087320  73.3715453
  48.3136495 104.5023371  83.2107665  47.3959056 104.7238318  83.0529354
  48.7296639 104.5769682  82.3519373  49.0971543 105.9014787  78.3410346
  49.8443362 106.4136184  78.0317468  49.3663132 105.5798840  79.2014739
  47.3698193 108.3973328  75.3237300  46.4609412 108.1132361  75.4209770
  47.3993277 108.8172406  74.4640607  52.6017460 112.0079917  79.0928468
  52.1479787 111.1670827  79.1493658  51.9711427 112.6441316  79.4303248
  51.5450380 102.9371903  80.3229135  50.8073137 102.4249289  80.6539378
  51.7977153 102.4972285  79.5112412  51.0450400 113.8456414  80.0278286
  51.3373374 114.4061471  79.3090651  51.5549020 114.1384975  80.7831445
  51.6462007  95.7148155  80.9170904  51.9520884  94.8545519  80.6296819
  52.3714612  96.3065775  80.7169898  37.9386363 106.1178842  79.3052502
  37.7410763 105.5248203  78.5803569  37.3833027 105.8131052  80.0228441
  45.9183087 106.0101948  81.4247095  45.9731697 105.0575785  81.3489572
  45.1074289 106.1661387  81.9088394  47.0674281 109.9382071  72.6625379
  46.6293711 109.2217930  72.2031016  47.8084722 110.1658186  72.1010470
  43.8575447 104.6279008  79.1837474  43.0443312 104.9273179  79.5902666
  44.3534441 104.2334697  79.9011956  46.0084025 114.6236765  81.1171739
  45.9660204 114.8497611  80.1880271  46.9246724 114.3900140  81.2657540
  49.4549659 105.0920833  88.0152368  49.8099046 105.3192306  88.8746834
  50.1021790 105.4239209  87.3929623  55.1847396 108.2139268  78.7201697
  55.0465294 108.4040864  77.7922886  54.8283614 108.9758651  79.1769748
  43.3489522 102.1997364  84.7998709  43.9888901 102.0586123  84.1021672
  42.5167052 101.9131877  84.4237311  55.2116775 110.2815795  83.7312969
  55.6453282 110.1891085  84.5796023  55.9248356 110.2573296  83.0932985
  44.1249826 111.4999794  80.9133702  44.9190424 111.0050114  80.7116277
  43.4141518 110.9717657  80.5501407  48.9444670 113.8817890  85.2646069
  48.9981692 114.4508826  86.0323785  48.0759451 114.0519775  84.9000106
  40.4332589 105.6442876  76.9893454  39.5030177 105.5827331  77.2063416
  40.5290061 105.1218828  76.1930096  40.3518138 102.1697689  79.5771696
  40.6124955 103.0843022  79.4680856  41.1735310 101.7022131  79.7268309
  41.8243063 103.5835446  86.7470520  42.4966117 103.3752808  86.0983169
  40.9972850 103.3857532  86.3075753  56.0732325 110.3239496  86.2645854
  56.2668215 111.2285307  86.5105129  55.9732943 109.8646915  87.0984439
  47.7268635 100.2097387  88.7636181  47.0796551 100.9087336  88.6700658
  48.4969651 100.6433531  89.1312430  51.1347433 110.4746239  91.8386735
  50.9832940 110.2456791  90.9216818  51.1252113 111.4316840  91.8518080
  47.9032770 108.0478152  86.8233001  48.8324830 108.1989311  86.6501968
  47.4823800 108.1362172  85.9681648  46.7021102 112.0728816  84.5931539
  46.5632187 111.7047600  85.4657477  45.9135698 112.5876455  84.4215497
  47.2969254 117.1737912  75.9357075  47.4721009 116.7025956  76.7502698
  46.6102042 117.8003679  76.1638336  48.2526317 111.4510419  81.9820377
  47.9176149 111.4111189  82.8778026  47.7530262 110.7855135  81.5090787
  42.2270561 106.8578049  87.5072958  42.0890359 106.1258288  88.1084497
  43.1375484 106.7686949  87.2257145  51.1885508 108.7966453  72.2557436
  50.5714679 108.0713281  72.1590489  50.7201997 109.5575813  71.9124510
  44.8552861 106.5698008  86.9956637  45.5652480 105.9291200  86.9543256
  44.8122170 106.8210903  87.9182818  52.8439640 113.5065361  89.9163217
  52.7852186 112.8224582  89.2493800  53.2459158 114.2484351  89.4643843
  43.5681795 103.5563226  88.8152277  43.0319152 103.1053964  89.4673873
  42.9798504 103.6909135  88.0722741  41.8630339 120.3227275  82.7096935
  42.1026937 120.9545799  83.3875954  41.0199535 119.9715315  82.9962295
  42.9784054 103.0151877  71.3778740  42.1013521 102.8940678  71.0140987
  43.4541807 102.2237956  71.1257629  52.8457047 111.4704945  88.1477196
  51.9583826 111.1330867  88.2703595  53.4155598 110.7387977  88.3845962
  34.4986194 107.8029037  81.4720248  35.1857234 107.4890767  80.8841263
  34.3434323 108.7070402  81.1987499  39.3020917 102.6919234  85.9005271
  39.2179105 102.0844903  85.1655681  38.4803623 103.1828252  85.9014768
  46.3758201 116.1306398  85.1138439  46.3028372 116.9361369  85.6257744
  45.9335594 116.3298363  84.2886461  46.1647980 115.3678168  78.6241261
  45.3815502 115.9099848  78.7179485  46.8640726 115.8852147  79.0235502
  49.4744630 101.1772797  81.2675466  49.9713330 100.4242759  80.9476537
  48.7031612 101.2137114  80.7018676  57.3274388 106.8813163  82.9093758
  57.3164264 107.7637878  82.5387691  56.4591767 106.5284714  82.7148295
  48.8356884 116.0293232  87.2696598  49.5484856 116.6640697  87.1972500
  48.3446913 116.1257098  86.4536600  50.5574411 109.9344484  78.8413890
  49.6230690 110.0545947  78.6718594  50.7351080 109.0316951  78.5773900
  46.0579599 103.3190180  80.9947151  45.6877387 102.7661221  81.6828057
  46.5538692 102.7148314  80.4422151  53.9446962 105.7761804  79.3763924
  54.4107415 106.6089795  79.3024227  54.3954463 105.3106785  80.0809182
  43.8868798 113.7787675  88.0902169  44.5878257 114.4124158  88.2431563
  43.4163913 114.1202407  87.3297808  52.0123194 112.1205625  76.3750076
  52.2883038 112.0062220  77.2843950  51.1427692 111.7223110  76.3362249
  51.9163625  98.1442391  83.4154825  51.0026705  98.3746617  83.5837032
  52.3456727  98.2280835  84.2668858  51.6870084 106.3332283  85.9154719
  51.0341534 106.5808190  85.2607172  52.0650464 105.5196421  85.5817197
  48.6477258 116.3691976  80.0182890  48.8299652 115.5513632  80.4810642
  49.4710244 116.5859668  79.5807780  48.9819423 115.2960161  77.2797938
  49.5107190 114.7852616  76.6668100  49.2447643 114.9802691  78.1443471
  47.7357657 107.0752094  92.4020756  47.0598294 106.9746223  93.0723132
  48.5585291 106.9191307  92.8656754  39.4836516 113.3124030  85.0233272
  40.0689953 112.5667718  85.1561176  39.2861354 113.6227987  85.9069935
  42.3375171 116.3475278  80.0395714  41.6685546 116.8321405  79.5559754
  42.1988041 116.5944498  80.9539092  34.0754171 105.8829630  83.7437715
  34.1138270 105.3493221  84.5374833  33.5694463 105.3564836  83.1248692
  46.4780440 118.3819021  86.6378372  47.0298748 118.5450643  87.4027458
  46.8186633 118.9723459  85.9658397  41.4544933 100.7294171  87.2400257
  41.5186259 101.5909002  86.8277655  41.3912053 100.1168173  86.5072616
  40.9297205 102.8017303  90.8873291  41.5569244 102.4194381  91.5010816
  40.0725124 102.5831505  91.2528984  51.3291314 113.2080279  92.4927027
  51.8731218 113.8210237  91.9981982  50.7478159 113.7659857  93.0094040
  37.7062748 104.6093733  76.8191646  38.0016189 103.7004411  76.7658700
  36.8050784 104.5881472  76.4972648  49.6148827 116.3300997  83.6242054
  49.4899966 115.5290736  83.1153000  50.2727918 116.8247190  83.1356024
  41.2356995 102.6849729  82.8019195  40.5143581 103.2985697  82.6626668
  42.0250251 103.2207494  82.7235841  51.6783735 114.1310017  85.2521605
  50.7314071 114.0115368  85.1799931  52.0266508 113.2432515  85.3347866
  44.0383309 100.0204156  89.0759846  44.5617710 100.2666452  89.8386156
  43.8195642 100.8524190  88.6562984  39.4350590 102.2907830  76.9430971
  39.1063296 101.4105209  76.7606077  39.7889960 102.2355499  77.8307360
  48.6830169 113.9262733  81.4525957  48.5355131 112.9979440  81.6333527
  49.5083662 113.9482824  80.9683032  42.5492413 102.5780800  77.3106449
  42.8888485 103.1066721  76.5885057  42.9964533 102.9161206  78.0865015
  52.2864290 114.7491292  82.5390830  53.2110838 114.5434153  82.4015281
  52.1179594 114.5007693  83.4480171  45.2435854 100.9617851  86.7609517
  44.9032674 100.1625664  87.1630197  44.5374860 101.2619562  86.1886350
  45.8952326  98.0467163  85.2136840  46.7178395  97.5727641  85.0915730
  46.1390389  98.8257647  85.7135526  44.5360560 101.0755422  75.5099742
  45.2568923 101.4536674  75.0063459  43.9125864 101.7944298  75.6134720
  48.6791683 101.7800571  76.4458074  48.8955297 102.6625208  76.1446902
  48.1985750 101.3886784  75.7163716  43.4190904 104.7386284  83.0228819
  43.2735485 105.0526587  83.9153100  42.9416108 105.3571184  82.4699717
  45.2787287 101.7288832  83.0709708  45.2648856 100.8329925  82.7342006
  45.9959715 101.7359496  83.7047994  47.1313418 102.1626172  85.1162836
  46.8731196 103.0843243  85.1147166  46.5998458 101.7656607  85.8063300
  52.0759607 115.2676959  77.8952921  52.2496484 114.7023382  77.1426773
  52.5688498 116.0677854  77.7132411  37.8936566 107.2791628  85.9616480
  37.3490035 108.0551436  86.0936754  38.7715916 107.6262433  85.8035601
  44.6824183 100.6103212  78.3397278  44.8040094  99.6819858  78.5388166
  44.3926225 100.6241898  77.4275594  47.5515374  98.2958123  81.4763998
  47.5737070  98.3597456  80.5215978  47.9683433  97.4562631  81.6704504
  57.9298998 108.0313382  79.5143221  58.3730144 107.2820707  79.1162344
  57.0525508 108.0223518  79.1316953  53.0634779 114.5843724  74.9949819
  53.7585684 115.2050416  75.2137134  53.4057929 113.7339075  75.2702197
  38.6802588 106.4061524  88.8546637  37.9384324 106.5544160  89.4411267
  38.3595333 106.6669790  87.9913386  54.9626202 112.0343429  76.5237150
  55.4877526 112.3730702  75.7986470  54.8748555 111.0990444  76.3400285
  46.6246251 115.9477503  88.6527027  46.9333377 115.7026649  89.5249726
  47.4221733 116.1524141  88.1645897  46.6466863 118.1015412  80.8832403
  46.2071853 117.6091791  81.5765260  47.3974980 117.5588380  80.6424478
  39.1259202 114.2926953  80.8857031  39.9517222 113.9930725  80.5055675
  38.7753254 113.5234576  81.3346820  44.0940735 113.6453421  82.9554705
  43.4720744 112.9824126  82.6556933  44.7645602 113.6714553  82.2728353
  37.3267807 112.2113280  81.8445965  36.4899715 111.7835454  81.6629966
  37.2991452 112.4045723  82.7816756  44.1665263 102.1235209  92.5487211
  44.2153418 102.9997332  92.1664981  44.7087777 101.5812602  91.9758854
  54.6520108 112.6676333  91.8288348  53.8615652 112.6500472  91.2892847
  54.4153463 113.2064626  92.5837385  54.7717983 109.5168799  89.1421077
  54.8215988 109.3518807  90.0836599  54.6631907 108.6496058  88.7518957
  43.6554242 112.1957345  76.4313165  43.8042362 112.8792809  75.7779838
  44.4620686 112.1762435  76.9462621  52.0621746 105.4999727  90.4580383
  52.9631609 105.3606192  90.1664381  52.1369720 105.6654182  91.3978561
  46.3964551 102.8766582  89.3033570  45.5267861 103.1700148  89.0316158
  46.6324031 103.4607027  90.0240833  56.2736180 111.9365741  89.3863098
  55.9820989 112.2995721  90.2226559  55.6608311 111.2232749  89.2076430
  57.4731863 109.5018620  81.9065668  58.3078754 109.9408424  82.0703229
  57.6090991 109.0257274  81.0873914  54.5223368 107.0598355  87.8543156
  54.9977490 107.2526002  87.0462007  53.5988934 107.1157541  87.6086540
  41.4106875 108.2222522  77.4374234  41.1652917 107.3184852  77.6354444
  41.5802790 108.2239673  76.4953712  49.1003585  99.0946199  86.8198990
  49.6185529  99.8307226  86.4945479  48.7458718  99.4010192  87.6545749
  40.6802523 103.9550880  74.9360396  39.9871768 104.0295235  74.2800432
  40.4354274 103.1911224  75.4581913  49.3516179  95.5146481  82.3399887
  49.6317933  94.8469670  82.9660313  50.1366786  95.7075577  81.8274550
  47.1549648 114.6905475  73.9024913  46.5823615 115.3095662  73.4495385
  47.7282441 115.2404837  74.4364835  53.2225037 103.9364115  86.0871462
  54.1742460 104.0362213  86.1083686  53.0528488 103.1442384  86.5969546
  51.2439417 101.0219699  86.2730863  50.6489349 101.3024711  85.5777351
  50.9589114 101.5113599  87.0447604  50.3746907 114.9742625  75.0333495
  51.3077581 114.9088187  75.2366371  50.2870120 115.8098892  74.5748028
  53.0034924 114.2908496  71.9937443  52.9248556 113.9568359  72.8873201
  53.8244591 114.7830264  71.9928915  55.7013115 107.1570235  85.2013761
  55.6689435 106.2186236  85.3873445  56.3113739 107.2354272  84.4679586
  47.5396446 106.0266288  71.2440965  48.4855551 105.8972496  71.3129383
  47.1610691 105.2880950  71.7210394  55.8507604 103.9481278  85.2472045
  55.3346652 103.1639735  85.0601973  56.7347552 103.6199995  85.4118564
  53.5118331  97.6922294  81.2067857  53.3143152  97.3837382  82.0911189
  54.1218036  98.4183933  81.3365787  47.4235139 110.0784034  92.7041622
  48.3438148 110.2562633  92.8981669  47.3884722 109.1340079  92.5521322
  45.7239363 103.9516264  71.1795851  44.8170819 103.6549377  71.2558564
  46.0015344 103.6546082  70.3130137  36.6417304 105.2722628  81.6294897
  36.3220088 104.4187936  81.3369271  36.0950732 105.4871206  82.3852864
  40.4197211 107.9885069  85.3464404  40.6383221 108.9202177  85.3652437
  40.8322985 107.6293043  86.1319207  47.3401429  98.4953154  77.3340092
  46.5302157  98.1500239  77.7095338  48.0285846  98.1860698  77.9227703
  49.2691977  97.5731201  78.9564389  49.8223016  97.9926654  79.6154412
  49.5062064  96.6466949  78.9987345  45.2925076 103.5618275  94.7367152
  45.1921803 104.5112631  94.6679244  45.0746619 103.2336513  93.8643223
  44.4938148 100.8103200  71.3207830  45.3557312 101.1358098  71.5803647
  44.6788492 100.0234695  70.8080896  36.5105564 108.8925539  83.5988019
  35.8169035 108.4779492  83.0857973  37.2578555 108.9346076  83.0021437
  52.6470784  99.6831726  78.4643053  52.0669453 100.3416530  78.0821105
  52.3806717  98.8609071  78.0530470  51.0974351  99.0836784  80.6664373
  51.5974129  99.1953318  79.8578692  51.7409959  98.7797837  81.3065182
  45.1556347 106.9915413  93.5532214  44.6723428 107.7915773  93.7596103
  45.2417286 107.0023358  92.5999658  38.4242306 108.8243793  81.4754033
  38.4012994 108.9231480  80.5235917  38.7342943 109.6708944  81.7971200
  41.0829684 110.8819948  85.5900648  42.0372938 110.8503890  85.5230579
  40.8842208 110.4210572  86.4050874  41.6729066 109.4521064  88.1571446
  42.4921955 109.9465143  88.1806283  41.9465874 108.5353032  88.1289013
  51.4295662 101.8431816  77.5199401  50.5421517 102.1281467  77.3019596
  51.8449651 101.6825580  76.6726678  54.7810199 101.8678337  81.2353740
  55.5570589 102.3574790  81.5078357  54.0558333 102.2936392  81.6925610
  57.2182757 102.5805957  82.2927681  57.8127248 102.3401693  81.5820989
  57.2909341 101.8613087  82.9201217  39.4379913 116.4239568  82.6070846
  39.3034381 115.6639968  82.0408844  39.0211975 117.1480467  82.1399635
  50.5738876 111.6076491  71.6147421  51.2774726 111.8126494  72.2305077
  49.8501525 112.1753253  71.8796505  51.4036686 107.3586352  77.7349691
  51.3471888 107.8154904  76.8957324  51.9565029 106.5977037  77.5572534
  55.2141492 103.1476084  78.5599811  54.9578426 102.7472720  79.3908018
  54.5894360 103.8619878  78.4349950  42.5949039 117.3208885  82.8189288
  42.4781423 118.2654317  82.7167979  41.7741485 117.0182446  83.2075088
  52.4825573 112.0459020  73.6645881  53.3171177 111.6140219  73.4823356
  52.3209916 111.8741034  74.5922776  52.1371465 108.5491134  75.0302220
  52.0820269 108.3835405  74.0890664  51.5117521 109.2567167  75.1864410
  36.9263980 103.7859198  88.8563643  37.5722844 103.2758152  89.3450868
  36.7181132 104.5227880  89.4307068  49.4517373 110.8540045  94.3555783
  50.3208532 111.0280698  93.9942418  48.9724124 111.6734462  94.2331513
  45.4467591  98.0499243  74.6087539  45.4346261  98.9941083  74.7655810
  46.3391013  97.8669388  74.3147000  43.6203553 117.9737146  86.0345217
  44.5230800 118.0060757  86.3511712  43.3940923 117.0437597  86.0491553
  45.3757155 116.7268133  82.6955295  44.4252786 116.7269995  82.5819668
  45.6789641 115.9800868  82.1791330  49.2619710  94.6442019  78.8633476
  48.4952106  94.0900506  79.0090158  49.6730415  94.7163888  79.7247627
  41.2661471 100.9326815  92.9538657  42.1292933 100.5763620  93.1641981
  40.6926882 100.5940710  93.6414061  61.1109848 122.5628671  83.7601058
  61.7488258 122.4435419  83.0564398  60.9930691 123.5109515  83.8189010
  57.9199555 122.5156100  83.6962583  57.5818066 122.3997164  82.8083117
  58.7889323 122.1147265  83.6763589  53.7786370 124.3691576  79.6859473
  53.2151235 124.2781513  78.9175761  53.6638765 123.5491480  80.1661966
  58.4019338 123.6690951  89.6548788  58.3907978 123.2743750  88.7829292
  58.5639977 122.9357024  90.2482560  51.3250802 125.8642768  82.5243694
  52.1172094 125.5233592  82.1089993  51.5647452 125.9737743  83.4445847
  59.3585929 128.0362544  74.9973938  58.7073909 128.6216624  74.6107952
  60.1530292 128.5668739  75.0568976  53.2841556 125.1251681  75.3961073
  54.0572432 124.5780668  75.2573949  53.6366955 125.9895930  75.6075534
  55.1226599 126.4528063  88.6027972  54.8316465 127.3573694  88.4874638
  55.7583583 126.4944591  89.3172042  56.0482806 123.8304912  85.1929332
  56.6446378 123.6060934  84.4786295  56.1057777 123.0889657  85.7954780
  55.6207834 121.2844347  73.0279523  55.8733355 120.7625868  72.2662986
  54.6832393 121.1210492  73.1306206  60.6651117 120.2880125  80.8354266
  61.4514206 119.8699548  80.4844683  60.9289821 121.1926217  81.0035914
  60.8361194 125.7252976  75.5342923  60.2007027 125.7987602  76.2463827
  60.5058601 126.3146574  74.8562002  66.0659544 120.2255358  81.7387244
  66.7984716 119.6554575  81.9725074  65.3098900 119.8376959  82.1793750
  55.3404123 123.1872453  75.2303898  55.2240381 122.5117356  75.8984982
  55.4506383 122.7004827  74.4136051  57.6835664 122.6482600  78.9350587
  57.3193871 122.1213221  79.6463508  58.5402780 122.2581069  78.7617072
  57.3241151 117.6772500  73.9311935  57.4915553 118.5452736  74.2982406
  57.1338320 117.8399781  73.0073225  60.0816484 126.1389479  85.5977766
  59.7817207 127.0414517  85.4893573  59.7367543 125.8721662  86.4498919
  53.5328965 122.5903275  81.6314470  52.6079462 122.4579489  81.8392162
  53.7813379 123.3697495  82.1284413  63.4813628 118.6572019  83.2775203
  62.5730505 118.5887427  82.9833964  63.4301223 119.1343964  84.1057029
  57.3030372 120.1330157  74.9158602  57.1829997 120.5787208  75.7544082
  56.6082960 120.4815475  74.3572140  50.8937776 122.2336549  82.4658259
  51.0230158 122.4871028  83.3797671  50.2135228 122.8264257  82.1462914
  55.0637264 132.9033799  78.5648733  54.9861293 133.8541624  78.6437214
  54.4598907 132.5579671  79.2223660  57.5554493 120.0761664  91.2210100
  56.7787827 120.6355584  91.2112965  58.1945056 120.5618447  91.7424970
  65.3475274 116.8588457  85.0553077  64.7049654 117.1520990  84.4092872
  64.8430203 116.7441377  85.8606274  63.0015438 120.6051630  75.7438936
  63.9133294 120.8379017  75.5686634  62.4925085 121.1888675  75.1814015
  55.8100866 122.8847118  90.7828067  56.5515550 123.4232162  90.5062891
  55.1037851 123.5113406  90.9399619  61.2856205 125.0276258  89.3800229
  61.6939561 124.5858669  88.6354861  60.5633467 124.4528886  89.6334422
  57.6387275 119.9648865  86.7533786  58.4848471 120.3888278  86.8968435
  57.5785913 119.3082489  87.4472349  61.6085020 125.5877449  83.1352518
  60.9793882 125.7523163  82.4328586  61.2210682 126.0019058  83.9063482
  65.4874252 126.5231887  80.4896881  64.8025290 126.9030788  79.9393915
  65.5718101 127.1327213  81.2228829  60.7886721 117.6253233  88.4114959
  60.5447653 118.3795294  87.8749235  61.0646651 118.0038581  89.2462206
  62.7425183 124.1691846  87.0892225  62.9542079 124.8123606  86.4126606
  62.6954932 123.3354162  86.6214155  60.3451412 116.7809666  83.9928797
  59.4835891 117.0790920  84.2845535  60.3713847 116.9980065  83.0609830
  57.1612982 125.3251857  80.4002603  57.6251327 125.6039560  79.6107225
  56.8969780 124.4235301  80.2175693  54.0537063 124.8723338  83.3382366
  54.6238420 125.3010607  82.6999851  54.6445175 124.5905923  84.0366552
  56.0981868 121.4475009  77.2092168  56.8005911 121.8996053  77.6766094
  55.7662496 120.8058828  77.8372061  54.5462229 120.0386766  91.5843377
  53.9160890 120.7203047  91.8178774  54.4398317 119.9269847  90.6396516
  49.8407202 119.7058562  82.5109301  49.0506256 119.9616090  82.0349412
  50.3318449 120.5206900  82.6161342  63.8571011 127.0463801  85.2614582
  64.6788455 126.6443988  84.9797264  63.8533414 126.9432035  86.2130698
  51.7921947 120.0703141  79.4692778  50.9953111 120.1821835  79.9876274
  51.5647539 120.4089793  78.6033669  57.6227615 126.5947844  87.4175293
  57.6872047 127.0568252  88.2533465  56.9138539 125.9645209  87.5457603
  48.1244905 119.9589052  84.9424292  48.3752943 120.8436062  85.2081868
  48.6604453 119.7793654  84.1699384  71.9477004 123.3902550  81.6099554
  71.1940713 122.8209948  81.4543558  72.0824546 123.3565214  82.5570188
  57.3375633 128.2615952  77.2854273  57.2021307 129.1067488  77.7139121
  57.8785445 128.4635229  76.5220207  53.8242972 114.3407532  93.9468628
  53.4309918 113.7873730  94.6216273  54.6409113 114.6518110  94.3375146
  50.7905030 125.7791390  77.8582198  51.3029551 126.5734640  78.0087763
  51.4427743 125.0817680  77.7915800  52.5999915 128.8957146  79.9404951
  52.7766543 129.8175111  79.7525935  53.3956748 128.5815565  80.3699331
  56.7410933 115.7565411  91.5388885  57.4820647 116.3572564  91.4593347
  56.9728856 115.0143049  90.9806927  51.8852271 120.9421778  89.8167115
  51.7705786 120.0407035  90.1174214  51.0296789 121.1885475  89.4651931
  58.9644109 128.8839518  91.4154615  58.5207963 128.0975897  91.0975520
  59.6261323 129.0718669  90.7498506  53.7231230 130.4135320  85.9415294
  54.2738655 130.2852383  85.1692288  52.8842706 130.7130209  85.5910187
  61.0625347 129.1642318  89.4436016  61.0443822 129.9851199  88.9516286
  61.9845267 129.0396394  89.6686158  57.5198401 126.6786448  90.2859525
  58.0526738 125.9174736  90.0558833  56.9912482 126.3860100  91.0283679
  48.7553947 124.1080044  78.6341769  49.5929169 124.5177053  78.4175476
  48.9332214 123.1679486  78.6041963  60.6518379 121.7755125  74.3225602
  60.1365002 122.5459729  74.5613989  60.3795687 121.1020261  74.9458663
  58.2365490 116.6204826  79.3810840  57.3807086 116.2311676  79.2016479
  58.6492442 116.6996786  78.5210626  59.7664637 114.1551169  83.7802400
  59.2629432 114.1181304  82.9670205  60.0595243 115.0643912  83.8399057
  56.0107522 114.2389899  82.7868582  56.8760519 114.0432707  82.4274471
  56.0785031 114.0100250  83.7137938  65.6252653 124.5287479  76.2578775
  64.8482096 124.1898639  75.8133937  66.3044134 124.5340103  75.5833740
  60.4404682 119.6482217  76.1485383  60.1354818 119.9628366  76.9995526
  61.3935124 119.7263637  76.1912716  58.8851114 125.8072440  77.7978337
  58.3572475 125.0725200  77.4851574  58.3838617 126.5847117  77.5518305
  63.8643960 124.0021461  82.9145383  63.2067634 124.6920722  83.0025512
  64.6684359 124.3917893  83.2579370  53.6169841 116.4692107  80.1584948
  54.1913593 116.2467288  79.4258141  54.2040824 116.5380801  80.9113550
  62.6749419 122.3565833  80.9649325  63.1881300 122.9895825  81.4671035
  63.3250643 121.7567029  80.5992685  53.9439429 118.4996568  74.1780834
  53.1076741 118.8371254  74.4990108  53.8044198 118.3645547  73.2407971
  55.9192509 113.3433355  78.8860018  55.2656922 113.0282373  78.2616633
  55.8772983 112.7209096  79.6119841  57.0303714 123.6252651  70.8013310
  56.1230776 123.3941904  71.0004459  57.5274746 122.8290270  70.9887291
  59.9371793 132.3350158  73.7209996  59.2633492 132.6381854  74.3294954
  60.3237615 133.1379238  73.3715453  59.1530250 119.8315289  83.2107665
  58.2352811 120.0530236  83.0529354  59.5690393 119.9061599  82.3519373
  59.9365297 121.2306705  78.3410346  60.6837116 121.7428102  78.0317468
  60.2056887 120.9090757  79.2014739  58.2091947 123.7265245  75.3237300
  57.3003167 123.4424278  75.4209770  58.2387031 124.1464324  74.4640607
  63.4411215 127.3371835  79.0928468  62.9873542 126.4962745  79.1493658
  62.8105182 127.9733233  79.4303248  62.3844134 118.2663821  80.3229135
  61.6466891 117.7541207  80.6539378  62.6370908 117.8264203  79.5112412
  61.8844154 129.1748332  80.0278286  62.1767129 129.7353389  79.3090651
  62.3942775 129.4676893  80.7831445  48.7780118 121.4470760  79.3052502
  48.5804518 120.8540120  78.5803569  48.2226782 121.1422970  80.0228441
  56.7576842 121.3393866  81.4247095  56.8125451 120.3867702  81.3489572
  55.9468044 121.4953305  81.9088394  57.9068035 125.2673989  72.6625379
  57.4687465 124.5509848  72.2031016  58.6478476 125.4950104  72.1010470
  54.6969201 119.9570926  79.1837474  53.8837067 120.2565096  79.5902666
  55.1928196 119.5626615  79.9011956  56.8477779 129.9528683  81.1171739
  56.8053958 130.1789529  80.1880271  57.7640478 129.7192057  81.2657540
  60.2943413 120.4212750  88.0152368  60.6492801 120.6484223  88.8746834
  60.9415544 120.7531127  87.3929623  66.0241150 123.5431186  78.7201697
  65.8859049 123.7332782  77.7922886  65.6677369 124.3050569  79.1769748
  54.1883276 117.5289281  84.7998709  54.8282656 117.3878040  84.1021672
  53.3560807 117.2423795  84.4237311  66.0510530 125.6107713  83.7312969
  66.4847036 125.5183002  84.5796023  66.7642110 125.5865214  83.0932985
  54.9643580 126.8291712  80.9133702  55.7584179 126.3342032  80.7116277
  54.2535272 126.3009575  80.5501407  59.7838425 129.2109807  85.2646069
  59.8375447 129.7800744  86.0323785  58.9153206 129.3811692  84.9000106
  51.2726344 120.9734793  76.9893454  50.3423932 120.9119249  77.2063416
  51.3683816 120.4510746  76.1930096  51.1911893 117.4989606  79.5771696
  51.4518710 118.4134939  79.4680856  52.0129065 117.0314049  79.7268309
  52.6636818 118.9127363  86.7470520  53.3359871 118.7044726  86.0983169
  51.8366604 118.7149449  86.3075753  66.9126079 125.6531414  86.2645854
  67.1061969 126.5577224  86.5105129  66.8126697 125.1938833  87.0984439
  58.5662390 115.5389304  88.7636181  57.9190305 116.2379254  88.6700658
  59.3363405 115.9725448  89.1312430  61.9741188 125.8038157  91.8386735
  61.8226694 125.5748708  90.9216818  61.9645867 126.7608758  91.8518080
  58.7426524 123.3770069  86.8233001  59.6718584 123.5281229  86.6501968
  58.3217554 123.4654090  85.9681648  57.5414856 127.4020734  84.5931539
  57.4025942 127.0339518  85.4657477  56.7529452 127.9168373  84.4215497
  58.1363008 132.5029830  75.9357075  58.3114764 132.0317873  76.7502698
  57.4495796 133.1295596  76.1638336  59.0920071 126.7802336  81.9820377
  58.7569904 126.7403106  82.8778026  58.5924017 126.1147052  81.5090787
  53.0664315 122.1869966  87.5072958  52.9284113 121.4550205  88.1084497
  53.9769239 122.0978866  87.2257145  62.0279263 124.1258371  72.2557436
  61.4108434 123.4005199  72.1590489  61.5595751 124.8867731  71.9124510
  55.6946616 121.8989926  86.9956637  56.4046234 121.2583118  86.9543256
  55.6515924 122.1502821  87.9182818  63.6833395 128.8357279  89.9163217
  63.6245941 128.1516499  89.2493800  64.0852913 129.5776269  89.4643843
  54.4075550 118.8855144  88.8152277  53.8712907 118.4345882  89.4673873
  53.8192258 119.0201052  88.0722741  53.8177809 118.3443795  71.3778740
  52.9407275 118.2232596  71.0140987  54.2935562 117.5529873  71.1257629
  63.6850802 126.7996863  88.1477196  62.7977581 126.4622785  88.2703595
  64.2549353 126.0679894  88.3845962  45.3379949 123.1320955  81.4720248
  46.0250989 122.8182685  80.8841263  45.1828078 124.0362319  81.1987499
  50.1414671 118.0211151  85.9005271  50.0572860 117.4136821  85.1655681
  49.3197377 118.5120170  85.9014768  57.2151955 131.4598315  85.1138439
  57.1422127 132.2653287  85.6257744  56.7729348 131.6590281  84.2886461
  57.0041735 130.6970085  78.6241261  56.2209257 131.2391766  78.7179485
  57.7034480 131.2144065  79.0235502  60.3138385 116.5064715  81.2675466
  60.8107084 115.7534677  80.9476537  59.5425366 116.5429031  80.7018676
  68.1668142 122.2105080  82.9093758  68.1558019 123.0929796  82.5387691
  67.2985522 121.8576631  82.7148295  59.6750639 131.3585149  87.2696598
  60.3878611 131.9932614  87.1972500  59.1840667 131.4549015  86.4536600
  61.3968166 125.2636402  78.8413890  60.4624444 125.3837865  78.6718594
  61.5744834 124.3608869  78.5773900  56.8973354 118.6482098  80.9947151
  56.5271141 118.0953138  81.6828057  57.3932446 118.0440231  80.4422151
  64.7840717 121.1053721  79.3763924  65.2501169 121.9381713  79.3024227
  65.2348217 120.6398703  80.0809182  54.7262552 129.1079593  88.0902169
  55.4272012 129.7416076  88.2431563  54.2557667 129.4494324  87.3297808
  62.8516948 127.4497543  76.3750076  63.1276792 127.3354137  77.2843950
  61.9821447 127.0515027  76.3362249  62.5263838 121.6624200  85.9154719
  61.8735288 121.9100108  85.2607172  62.9044218 120.8488338  85.5817197
  59.4871012 131.6983893  80.0182890  59.6693407 130.8805549  80.4810642
  60.3103998 131.9151586  79.5807780  59.8213178 130.6252079  77.2797938
  60.3500944 130.1144533  76.6668100  60.0841397 130.3094609  78.1443471
  58.5751411 122.4044011  92.4020756  57.8992048 122.3038141  93.0723132
  59.3979045 122.2483225  92.8656754  50.3230270 128.6415948  85.0233272
  50.9083707 127.8959636  85.1561176  50.1255109 128.9519905  85.9069935
  53.1768926 131.6767195  80.0395714  52.5079301 132.1613323  79.5559754
  53.0381795 131.9236416  80.9539092  44.9147925 121.2121548  83.7437715
  44.9532025 120.6785139  84.5374833  44.4088218 120.6856754  83.1248692
  57.3174194 133.7110939  86.6378372  57.8692502 133.8742560  87.4027458
  57.6580388 134.3015377  85.9658397  52.2938687 116.0586089  87.2400257
  52.3580014 116.9200919  86.8277655  52.2305808 115.4460090  86.5072616
  51.7690960 118.1309221  90.8873291  52.3962999 117.7486298  91.5010816
  50.9118879 117.9123423  91.2528984  62.1685068 128.5372196  92.4927027
  62.7124972 129.1502155  91.9981982  61.5871913 129.0951775  93.0094040
  48.5456503 119.9385650  76.8191646  48.8409944 119.0296329  76.7658700
  47.6444538 119.9173390  76.4972648  60.4542581 131.6592914  83.6242054
  60.3293721 130.8582654  83.1153000  61.1121673 132.1539108  83.1356024
  52.0750750 118.0141647  82.8019195  51.3537335 118.6277615  82.6626668
  52.8644005 118.5499412  82.7235841  62.5177490 129.4601934  85.2521605
  61.5707825 129.3407286  85.1799931  62.8660263 128.5724432  85.3347866
  54.8777063 115.3496073  89.0759846  55.4011465 115.5958370  89.8386156
  54.6589396 116.1816108  88.6562984  50.2744344 117.6199748  76.9430971
  49.9457050 116.7397127  76.7606077  50.6283715 117.5647417  77.8307360
  59.5223923 129.2554651  81.4525957  59.3748886 128.3271358  81.6333527
  60.3477417 129.2774741  80.9683032  53.3886167 117.9072718  77.3106449
  53.7282240 118.4358639  76.5885057  53.8358288 118.2453124  78.0865015
  63.1258045 130.0783209  82.5390830  64.0504592 129.8726071  82.4015281
  62.9573348 129.8299611  83.4480171  56.0829608 116.2909768  86.7609517
  55.7426429 115.4917581  87.1630197  55.3768614 116.5911479  86.1886350
  56.7346080 113.3759081  85.2136840  57.5572149 112.9019559  85.0915730
  56.9784144 114.1549565  85.7135526  55.3754315 116.4047339  75.5099742
  56.0962677 116.7828592  75.0063459  54.7519619 117.1236216  75.6134720
  59.5185437 117.1092488  76.4458074  59.7349052 117.9917126  76.1446902
  59.0379505 116.7178702  75.7163716  54.2584659 120.0678201  83.0228819
  54.1129240 120.3818505  83.9153100  53.7809862 120.6863102  82.4699717
  56.1181042 117.0580749  83.0709708  56.1042610 116.1621843  82.7342006
  56.8353470 117.0651413  83.7047994  57.9707172 117.4918090  85.1162836
  57.7124950 118.4135160  85.1147166  57.4392213 117.0948524  85.8063300
  62.9153361 130.5968877  77.8952921  63.0890239 130.0315299  77.1426773
  63.4082252 131.3969772  77.7132411  48.7330321 122.6083546  85.9616480
  48.1883789 123.3843354  86.0936754  49.6109671 122.9554350  85.8035601
  55.5217938 115.9395130  78.3397278  55.6433849 115.0111776  78.5388166
  55.2319980 115.9533816  77.4275594  68.7692752 123.3605300  79.5143221
  69.2123898 122.6112625  79.1162344  67.8919263 123.3515436  79.1316953
  63.9028534 129.9135641  74.9949819  64.5979438 130.5342334  75.2137134
  64.2451684 129.0630992  75.2702197  49.5196343 121.7353442  88.8546637
  48.7778079 121.8836078  89.4411267  49.1989087 121.9961708  87.9913386
  65.8019957 127.3635347  76.5237150  66.3271281 127.7022619  75.7986470
  65.7142309 126.4282362  76.3400285  57.4640005 131.2769420  88.6527027
  57.7727132 131.0318567  89.5249726  58.2615487 131.4816059  88.1645897
  57.4860618 133.4307330  80.8832403  57.0465608 132.9383709  81.5765260
  58.2368734 132.8880298  80.6424478  49.9652956 129.6218871  80.8857031
  50.7910976 129.3222643  80.5055675  49.6147008 128.8526493  81.3346820
  54.9334490 128.9745339  82.9554705  54.3114499 128.3116044  82.6556933
  55.6039357 129.0006471  82.2728353  48.1661562 127.5405197  81.8445965
  47.3293470 127.1127372  81.6629966  48.1385207 127.7337641  82.7816756
  55.0059017 117.4527127  92.5487211  55.0547173 118.3289250  92.1664981
  55.5481531 116.9104520  91.9758854  65.4913863 127.9968250  91.8288348
  64.7009407 127.9792389  91.2892847  65.2547217 128.5356544  92.5837385
  65.6111738 124.8460717  89.1421077  65.6609743 124.6810724  90.0836599
  65.5025661 123.9787976  88.7518957  54.4947997 127.5249262  76.4313165
  54.6436117 128.2084727  75.7779838  55.3014440 127.5054353  76.9462621
  62.9015500 120.8291645  90.4580383  63.8025363 120.6898110  90.1664381
  62.9763475 120.9946100  91.3978561  57.2358306 118.2058500  89.3033570
  56.3661615 118.4992066  89.0316158  57.4717786 118.7898945  90.0240833
  67.1129935 127.2657658  89.3863098  66.8214743 127.6287639  90.2226559
  66.5002066 126.5524667  89.2076430  68.3125617 124.8310538  81.9065668
  69.1472508 125.2700342  82.0703229  68.4484746 124.3549191  81.0873914
  65.3617123 122.3890273  87.8543156  65.8371245 122.5817919  87.0462007
  64.4382688 122.4449459  87.6086540  52.2500630 123.5514440  77.4374234
  52.0046671 122.6476770  77.6354444  52.4196544 123.5531591  76.4953712
  59.9397339 114.4238116  86.8198990  60.4579283 115.1599143  86.4945479
  59.5852472 114.7302110  87.6545749  51.5196277 119.2842798  74.9360396
  50.8265522 119.3587153  74.2800432  51.2748029 118.5203141  75.4581913
  57.9943402 130.0197393  73.9024913  57.4217369 130.6387580  73.4495385
  58.5676196 130.5696755  74.4364835  64.0618792 119.2656033  86.0871462
  65.0136215 119.3654131  86.1083686  63.8922242 118.4734302  86.5969546
  62.0833171 116.3511616  86.2730863  61.4883104 116.6316629  85.5777351
  61.7982868 116.8405517  87.0447604  61.2140662 130.3034543  75.0333495
  62.1471335 130.2380105  75.2366371  61.1263875 131.1390810  74.5748028
  63.8428679 129.6200413  71.9937443  63.7642310 129.2860277  72.8873201
  64.6638345 130.1122181  71.9928915  66.5406870 122.4862153  85.2013761
  66.5083190 121.5478153  85.3873445  67.1507493 122.5646189  84.4679586
  58.3790201 121.3558206  71.2440965  59.3249305 121.2264414  71.3129383
  58.0004446 120.6172868  71.7210394  66.6901358 119.2773196  85.2472045
  66.1740407 118.4931653  85.0601973  67.5741307 118.9491913  85.4118564
  72.3583420 123.5478160  84.3419798  73.0886808 123.2863448  84.9027501
  71.7490365 122.8106881  84.3821866  70.4398717 121.6886022  84.9394249
  69.7131880 121.5541987  84.3310741  70.0246004 121.9962851  85.7450967
  58.2628893 125.4075952  92.7041622  59.1831903 125.5854551  92.8981669
  58.2278476 124.4631997  92.5521322  56.5633118 119.2808182  71.1795851
  55.6564573 118.9841295  71.2558564  56.8409099 118.9838000  70.3130137
  47.4811058 120.6014545  81.6294897  47.1613842 119.7479854  81.3369271
  46.9344486 120.8163124  82.3852864  51.2590966 123.3176986  85.3464404
  51.4776975 124.2494094  85.3652437  51.6716739 122.9584961  86.1319207
  58.1795183 113.8245072  77.3340092  57.3695912 113.4792157  77.7095338
  58.8679600 113.5152615  77.9227703  56.1318831 118.8910192  94.7367152
  56.0315558 119.8404549  94.6679244  55.9140373 118.5628431  93.8643223
  55.3331902 116.1395117  71.3207830  56.1951066 116.4650016  71.5803647
  55.5182247 115.3526613  70.8080896  47.3499318 124.2217457  83.5988019
  46.6562790 123.8071410  83.0857973  48.0972309 124.2637993  83.0021437
  63.4864539 115.0123644  78.4643053  62.9063208 115.6708448  78.0821105
  63.2200472 114.1900988  78.0530470  55.9950101 122.3207331  93.5532214
  55.5117183 123.1207691  93.7596103  56.0811040 122.3315276  92.5999658
  49.2636061 124.1535711  81.4754033  49.2406749 124.2523398  80.5235917
  49.5736697 125.0000862  81.7971200  51.9223439 126.2111866  85.5900648
  52.8766692 126.1795808  85.5230579  51.7235962 125.7502489  86.4050874
  52.5122821 124.7812982  88.1571446  53.3315710 125.2757060  88.1806283
  52.7859628 123.8644950  88.1289013  62.2689417 117.1723734  77.5199401
  61.3815272 117.4573385  77.3019596  62.6843406 117.0117497  76.6726678
  65.6203953 117.1970255  81.2353740  66.3964343 117.6866708  81.5078357
  64.8952087 117.6228309  81.6925610  50.2773667 131.7531485  82.6070846
  50.1428135 130.9931886  82.0408844  49.8605730 132.4772385  82.1399635
  61.4132630 126.9368409  71.6147421  62.1168480 127.1418411  72.2305077
  60.6895279 127.5045171  71.8796505  62.2430441 122.6878270  77.7349691
  62.1865642 123.1446821  76.8957324  62.7958783 121.9268955  77.5572534
  66.0535247 118.4768002  78.5599811  65.7972181 118.0764638  79.3908018
  65.4288115 119.1911796  78.4349950  70.3647584 121.2164075  81.0671102
  69.8047142 121.2857264  81.8402664  69.7591088 121.0405060  80.3470598
  53.4342793 132.6500802  82.8189288  53.3175177 133.5946235  82.7167979
  52.6135239 132.3474364  83.2075088  63.3219328 127.3750938  73.6645881
  64.1564932 126.9432136  73.4823356  63.1603671 127.2032952  74.5922776
  62.9765220 123.8783051  75.0302220  62.9214024 123.7127323  74.0890664
  62.3511275 124.5859084  75.1864410  47.7657735 119.1151116  88.8563643
  48.4116599 118.6050070  89.3450868  47.5574886 119.8519797  89.4307068
  60.2911127 126.1831963  94.3555783  61.1602287 126.3572615  93.9942418
  59.8117879 127.0026380  94.2331513  56.2861345 113.3791160  74.6087539
  56.2740015 114.3233000  74.7655810  57.1784767 113.1961306  74.3147000
  54.4597307 133.3029064  86.0345217  55.3624554 133.3352674  86.3511712
  54.2334677 132.3729515  86.0491553  56.2150909 132.0560051  82.6955295
  55.2646540 132.0561912  82.5819668  56.5183395 131.3092785  82.1791330
  52.1055226 116.2618733  92.9538657  52.9686687 115.9055538  93.1641981
  51.5320637 115.9232628  93.6414061  71.9503603 137.8920589  83.7601058
  72.5882013 137.7727336  83.0564398  71.8324446 138.8401433  83.8189010
  68.7593309 137.8448017  83.6962583  68.4211821 137.7289082  82.8083117
  69.6283077 137.4439182  83.6763589  64.6180125 139.6983494  79.6859473
  64.0544990 139.6073431  78.9175761  64.5032520 138.8783398  80.1661966
  69.2413092 138.9982869  89.6548788  69.2301733 138.6035667  88.7829292
  69.4033732 138.2648942  90.2482560  66.8876560 139.1596829  85.1929332
  67.4840132 138.9352852  84.4786295  66.9451532 138.4181575  85.7954780
  66.4601588 136.6136265  73.0279523  66.7127109 136.0917786  72.2662986
  65.5226148 136.4502410  73.1306206  71.5044871 135.6172043  80.8354266
  72.2907961 135.1991466  80.4844683  71.7683576 136.5218135  81.0035914
  71.6754949 141.0544893  75.5342923  71.0400782 141.1279520  76.2463827
  71.3452355 141.6438492  74.8562002  76.9053298 135.5547276  81.7387244
  77.6378470 134.9846493  81.9725074  76.1492654 135.1668877  82.1793750
  66.1797877 138.5164371  75.2303898  66.0634135 137.8409274  75.8984982
  66.2900137 138.0296744  74.4136051  68.5229418 137.9774518  78.9350587
  68.1587625 137.4505139  79.6463508  69.3796534 137.5872987  78.7617072
  74.4278719 129.2668850  86.1981853  74.0962044 130.1364261  85.9743068
  73.8324332 128.9505134  86.8775883  68.1634905 133.0064417  73.9311935
  68.3309307 133.8744654  74.2982406  67.9732074 133.1691699  73.0073225
  70.9210238 141.4681396  85.5977766  70.6210961 142.3706435  85.4893573
  70.5761298 141.2013579  86.4498919  64.3722720 137.9195193  81.6314470
  63.4473216 137.7871407  81.8392162  64.6207133 138.6989412  82.1284413
  74.3207382 133.9863936  83.2775203  73.4124259 133.9179345  82.9833964
  74.2694978 134.4635881  84.1057029  68.1424126 135.4622075  74.9158602
  68.0223751 135.9079126  75.7544082  67.4476714 135.8107392  74.3572140
  61.7331531 137.5628467  82.4658259  61.8623912 137.8162946  83.3797671
  61.0528982 138.1556175  82.1462914  68.3948248 135.4053582  91.2210100
  67.6181582 135.9647502  91.2112965  69.0338811 135.8910365  91.7424970
  76.1869029 132.1880375  85.0553077  75.5443409 132.4812908  84.4092872
  75.6823957 132.0733295  85.8606274  73.8409192 135.9343548  75.7438936
  74.7527048 136.1670935  75.5686634  73.3318839 136.5180592  75.1814015
  66.6494620 138.2139035  90.7828067  67.3909305 138.7524079  90.5062891
  65.9431606 138.8405324  90.9399619  72.1249960 140.3568176  89.3800229
  72.5333316 139.9150586  88.6354861  71.4027221 139.7820803  89.6334422
  68.4781030 135.2940783  86.7533786  69.3242225 135.7180196  86.8968435
  68.4179668 134.6374407  87.4472349  72.4478774 140.9169366  83.1352518
  71.8187637 141.0815081  82.4328586  72.0604437 141.3310976  83.9063482
  76.3268006 141.8523804  80.4896881  75.6419045 142.2322706  79.9393915
  76.4111856 142.4619131  81.2228829  71.6280475 132.9545151  88.4114959
  71.3841407 133.7087211  87.8749235  71.9040406 133.3330499  89.2462206
  73.5818938 139.4983763  87.0892225  73.7935833 140.1415523  86.4126606
  73.5348686 138.6646080  86.6214155  71.1845167 132.1101584  83.9928797
  70.3229646 132.4082838  84.2845535  71.2107602 132.3271983  83.0609830
  68.0006736 140.6543775  80.4002603  68.4645082 140.9331478  79.6107225
  67.7363534 139.7527219  80.2175693  66.9375622 136.7766927  77.2092168
  67.6399666 137.2287971  77.6766094  66.6056251 136.1350746  77.8372061
  65.3855984 135.3678684  91.5843377  64.7554645 136.0494964  91.8178774
  65.2792072 135.2561765  90.6396516  60.6800956 135.0350480  82.5109301
  59.8900010 135.2908008  82.0349412  61.1712204 135.8498817  82.6161342
  74.6964766 142.3755719  85.2614582  75.5182210 141.9735906  84.9797264
  74.6927169 142.2723953  86.2130698  62.6315702 135.3995059  79.4692778
  61.8346865 135.5113753  79.9876274  62.4041294 135.7381711  78.6033669
  58.9638659 135.2880970  84.9424292  59.2146698 136.1727980  85.2081868
  59.4998208 135.1085572  84.1699384  82.7870759 138.7194467  81.6099554
  82.0334467 138.1501865  81.4543558  82.9218300 138.6857132  82.5570188
  64.6636727 129.6699449  93.9468628  64.2703672 129.1165648  94.6216273
  65.4802867 129.9810028  94.3375146  67.5804688 131.0857328  91.5388885
  68.3214401 131.6864482  91.4593347  67.8122610 130.3434966  90.9806927
  62.7246026 136.2713696  89.8167115  62.6099541 135.3698953  90.1174214
  61.8690543 136.5177392  89.4651931  71.5261851 127.1138431  85.8153167
  71.1826120 128.0040073  85.7392277  71.8940813 126.9240089  84.9522752
  71.4912133 137.1047043  74.3225602  70.9758757 137.8751647  74.5613989
  71.2189442 136.4312179  74.9458663  69.0759244 131.9496743  79.3810840
  68.2200841 131.5603594  79.2016479  69.4886196 132.0288704  78.5210626
  70.6058391 129.4843087  83.7802400  70.1023187 129.4473222  82.9670205
  70.8988998 130.3935829  83.8399057  66.8501277 129.5681816  82.7868582
  67.7154274 129.3724625  82.4274471  66.9178786 129.3392168  83.7137938
  76.4646407 139.8579397  76.2578775  75.6875850 139.5190557  75.8133937
  77.1437888 139.8632020  75.5833740  71.2798436 134.9774135  76.1485383
  70.9748572 135.2920284  76.9995526  72.2328879 135.0555555  76.1912716
  74.7037714 139.3313378  82.9145383  74.0461389 140.0212640  83.0025512
  75.5078114 139.7209810  83.2579370  64.4563596 131.7984024  80.1584948
  65.0307348 131.5759206  79.4258141  65.0434578 131.8672719  80.9113550
  73.5143173 137.6857751  80.9649325  74.0275055 138.3187743  81.4671035
  74.1644397 137.0858947  80.5992685  64.7833183 133.8288485  74.1780834
  63.9470495 134.1663172  74.4990108  64.6437953 133.6937465  73.2407971
  66.7586264 128.6725273  78.8860018  66.1050676 128.3574290  78.2616633
  66.7166738 128.0501014  79.6119841  67.8697469 138.9544568  70.8013310
  66.9624530 138.7233822  71.0004459  68.3668501 138.1582187  70.9887291
  69.9924004 135.1607207  83.2107665  69.0746565 135.3822154  83.0529354
  70.4084148 135.2353517  82.3519373  70.7759052 136.5598622  78.3410346
  71.5230871 137.0720020  78.0317468  71.0450641 136.2382675  79.2014739
  69.0485702 139.0557163  75.3237300  68.1396921 138.7716196  75.4209770
  69.0780786 139.4756242  74.4640607  74.2804969 142.6663753  79.0928468
  73.8267296 141.8254662  79.1493658  73.6498936 143.3025151  79.4303248
  73.2237889 133.5955739  80.3229135  72.4860646 133.0833125  80.6539378
  73.4764662 133.1556120  79.5112412  73.3249516 126.3731991  80.9170904
  73.6308393 125.5129354  80.6296819  74.0502121 126.9649611  80.7169898
  59.6173872 136.7762677  79.3052502  59.4198272 136.1832038  78.5803569
  59.0620536 136.4714887  80.0228441  67.5970596 136.6685784  81.4247095
  67.6519206 135.7159620  81.3489572  66.7861798 136.8245223  81.9088394
  68.7461790 140.5965907  72.6625379  68.3081220 139.8801766  72.2031016
  69.4872231 140.8242022  72.1010470  65.5362956 135.2862843  79.1837474
  64.7230821 135.5857014  79.5902666  66.0321950 134.8918532  79.9011956
  71.1337168 135.7504668  88.0152368  71.4886555 135.9776141  88.8746834
  71.7809299 136.0823045  87.3929623  76.8634905 138.8723104  78.7201697
  76.7252803 139.0624700  77.7922886  76.5071123 139.6342487  79.1769748
  65.0277031 132.8581199  84.7998709  65.6676410 132.7169958  84.1021672
  64.1954561 132.5715712  84.4237311  76.8904284 140.9399631  83.7312969
  77.3240791 140.8474920  84.5796023  77.6035865 140.9157131  83.0932985
  62.1120098 136.3026711  76.9893454  61.1817686 136.2411167  77.2063416
  62.2077570 135.7802664  76.1930096  62.0305647 132.8281524  79.5771696
  62.2912464 133.7426857  79.4680856  62.8522819 132.3605966  79.7268309
  63.5030572 134.2419281  86.7470520  64.1753626 134.0336643  86.0983169
  62.6760359 134.0441367  86.3075753  77.7519834 140.9823331  86.2645854
  77.9455724 141.8869142  86.5105129  77.6520452 140.5230751  87.0984439
  69.4056144 130.8681222  88.7636181  68.7584059 131.5671172  88.6700658
  70.1757160 131.3017366  89.1312430  72.8134942 141.1330074  91.8386735
  72.6620449 140.9040626  90.9216818  72.8039622 142.0900676  91.8518080
  69.5820279 138.7061987  86.8233001  70.5112339 138.8573147  86.6501968
  69.1611309 138.7946008  85.9681648  63.9058070 137.5161884  87.5072958
  63.7677868 136.7842123  88.1084497  64.8162993 137.4270784  87.2257145
  72.8673017 139.4550288  72.2557436  72.2502188 138.7297117  72.1590489
  72.3989506 140.2159649  71.9124510  66.5340370 137.2281843  86.9956637
  67.2439989 136.5875036  86.9543256  66.4909679 137.4794738  87.9182818
  65.2469304 134.2147061  88.8152277  64.7106661 133.7637800  89.4673873
  64.6586013 134.3492970  88.0722741  64.6571563 133.6735713  71.3778740
  63.7801030 133.5524513  71.0140987  65.1329316 132.8821791  71.1257629
  74.5244556 142.1288781  88.1477196  73.6371335 141.7914702  88.2703595
  75.0943107 141.3971812  88.3845962  60.9808426 133.3503069  85.9005271
  60.8966614 132.7428739  85.1655681  60.1591132 133.8412087  85.9014768
  71.1532139 131.8356633  81.2675466  71.6500839 131.0826595  80.9476537
  70.3819121 131.8720949  80.7018676  79.0061897 137.5396998  82.9093758
  78.9951773 138.4221713  82.5387691  78.1379276 137.1868549  82.7148295
  72.2361920 140.5928320  78.8413890  71.3018199 140.7129782  78.6718594
  72.4138589 139.6900786  78.5773900  67.7367108 133.9774015  80.9947151
  67.3664896 133.4245056  81.6828057  68.2326201 133.3732149  80.4422151
  75.6234471 136.4345639  79.3763924  76.0894924 137.2673631  79.3024227
  76.0741972 135.9690621  80.0809182  73.6910703 142.7789460  76.3750076
  73.9670546 142.6646055  77.2843950  72.8215201 142.3806945  76.3362249
  73.5951134 128.8026226  83.4154825  72.6814214 129.0330453  83.5837032
  74.0244236 128.8864670  84.2668858  73.3657593 136.9916118  85.9154719
  72.7129043 137.2392025  85.2607172  73.7437973 136.1780256  85.5817197
  69.4145166 137.7335929  92.4020756  68.7385803 137.6330058  93.0723132
  70.2372800 137.5775143  92.8656754  55.7541680 136.5413466  83.7437715
  55.7925779 136.0077056  84.5374833  55.2481972 136.0148671  83.1248692
  63.1332442 131.3878006  87.2400257  63.1973768 132.2492837  86.8277655
  63.0699562 130.7752008  86.5072616  62.6084714 133.4601139  90.8873291
  63.2356753 133.0778216  91.5010816  61.7512633 133.2415341  91.2528984
  59.3850257 135.2677568  76.8191646  59.6803698 134.3588246  76.7658700
  58.4838293 135.2465307  76.4972648  62.9144504 133.3433564  82.8019195
  62.1931090 133.9569532  82.6626668  63.7037760 133.8791329  82.7235841
  65.7170818 130.6787991  89.0759846  66.2405219 130.9250288  89.8386156
  65.4983151 131.5108026  88.6562984  61.1138099 132.9491666  76.9430971
  60.7850805 132.0689045  76.7606077  61.4677469 132.8939334  77.8307360
  64.2279922 133.2364635  77.3106449  64.5675994 133.7650557  76.5885057
  64.6752042 133.5745042  78.0865015  66.9223363 131.6201686  86.7609517
  66.5820183 130.8209499  87.1630197  66.2162369 131.9203397  86.1886350
  67.5739835 128.7050999  85.2136840  68.3965904 128.2311477  85.0915730
  67.8177898 129.4841482  85.7135526  66.2148069 131.7339257  75.5099742
  66.9356432 132.1120510  75.0063459  65.5913373 132.4528134  75.6134720
  70.3579192 132.4384406  76.4458074  70.5742806 133.3209044  76.1446902
  69.8773259 132.0470619  75.7163716  65.0978413 135.3970119  83.0228819
  64.9522994 135.7110422  83.9153100  64.6203617 136.0155019  82.4699717
  66.9574796 132.3872667  83.0709708  66.9436365 131.4913760  82.7342006
  67.6747224 132.3943331  83.7047994  68.8100927 132.8210007  85.1162836
  68.5518705 133.7427078  85.1147166  68.2785967 132.4240442  85.8063300
  66.3611692 131.2687047  78.3397278  66.4827603 130.3403694  78.5388166
  66.0713734 131.2825733  77.4275594  69.2302882 128.9541958  81.4763998
  69.2524579 129.0181291  80.5215978  69.6470941 128.1146467  81.6704504
  79.6086507 138.6897217  79.5143221  80.0517653 137.9404543  79.1162344
  78.7313017 138.6807354  79.1316953  60.3590097 137.0645360  88.8546637
  59.6171833 137.2127995  89.4411267  60.0382842 137.3253625  87.9913386
  76.6413711 142.6927264  76.5237150  77.1665035 143.0314537  75.7986470
  76.5536064 141.7574280  76.3400285  65.8452772 132.7819045  92.5487211
  65.8940927 133.6581168  92.1664981  66.3875286 132.2396438  91.9758854
  76.3307617 143.3260168  91.8288348  75.5403161 143.3084307  91.2892847
  76.0940972 143.8648462  92.5837385  76.4505492 140.1752634  89.1421077
  76.5003497 140.0102642  90.0836599  76.3419416 139.3079893  88.7518957
  73.7409255 136.1583562  90.4580383  74.6419118 136.0190027  90.1664381
  73.8157229 136.3238017  91.3978561  68.0752060 133.5350417  89.3033570
  67.2055369 133.8283983  89.0316158  68.3111540 134.1190862  90.0240833
  77.9523689 142.5949576  89.3863098  77.6608497 142.9579556  90.2226559
  77.3395820 141.8816584  89.2076430  79.1519372 140.1602456  81.9065668
  79.9866263 140.5992260  82.0703229  79.2878500 139.6841109  81.0873914
  76.2010877 137.7182191  87.8543156  76.6764999 137.9109837  87.0462007
  75.2776443 137.7741376  87.6086540  63.0894384 138.8806358  77.4374234
  62.8440426 137.9768688  77.6354444  63.2590299 138.8823508  76.4953712
  70.7791094 129.7530034  86.8198990  71.2973038 130.4891061  86.4945479
  70.4246227 130.0594027  87.6545749  62.3590032 134.6134715  74.9360396
  61.6659277 134.6879070  74.2800432  62.1141783 133.8495059  75.4581913
  71.0303688 126.1730317  82.3399887  71.3105442 125.5053506  82.9660313
  71.8154295 126.3659412  81.8274550  74.9012546 134.5947951  86.0871462
  75.8529969 134.6946048  86.1083686  74.7315997 133.8026219  86.5969546
  72.9226926 131.6803534  86.2730863  72.3276858 131.9608547  85.5777351
  72.6376623 132.1697435  87.0447604  77.3800624 137.8154070  85.2013761
  77.3476944 136.8770071  85.3873445  77.9901248 137.8938107  84.4679586
  69.2183955 136.6850123  71.2440965  70.1643060 136.5556331  71.3129383
  68.8398200 135.9464785  71.7210394  77.5295113 134.6065114  85.2472045
  77.0134161 133.8223570  85.0601973  78.4135061 134.2783830  85.4118564
  75.1905840 128.3506129  81.2067857  74.9930661 128.0421218  82.0911189
  75.8005545 129.0767768  81.3365787  83.1977174 138.8770077  84.3419798
  83.9280563 138.6155365  84.9027501  82.5884120 138.1398799  84.3821866
  81.2792471 137.0177940  84.9394249  80.5525635 136.8833905  84.3310741
  80.8639758 137.3254768  85.7450967  69.1022648 140.7367869  92.7041622
  70.0225657 140.9146468  92.8981669  69.0672231 139.7923915  92.5521322
  67.4026872 134.6100100  71.1795851  66.4958328 134.3133212  71.2558564
  67.6802853 134.3129918  70.3130137  58.3204813 135.9306463  81.6294897
  58.0007597 135.0771771  81.3369271  57.7738241 136.1455041  82.3852864
  69.0188938 129.1536989  77.3340092  68.2089666 128.8084074  77.7095338
  69.7073355 128.8444533  77.9227703  70.9479486 128.2315036  78.9564389
  71.5010525 128.6510490  79.6154412  71.1849573 127.3050784  78.9987345
  66.9712585 134.2202110  94.7367152  66.8709312 135.1696467  94.6679244
  66.7534128 133.8920349  93.8643223  66.1725657 131.4687035  71.3207830
  67.0344821 131.7941933  71.5803647  66.3576001 130.6818531  70.8080896
  74.3258293 130.3415561  78.4643053  73.7456962 131.0000365  78.0821105
  74.0594226 129.5192906  78.0530470  72.7761860 129.7420619  80.6664373
  73.2761638 129.8537154  79.8578692  73.4197468 129.4381672  81.3065182
  66.8343856 137.6499249  93.5532214  66.3510937 138.4499609  93.7596103
  66.9204795 137.6607194  92.5999658  73.1083171 132.5015652  77.5199401
  72.2209026 132.7865302  77.3019596  73.5237160 132.3409415  76.6726678
  76.4597707 132.5262173  81.2353740  77.2358098 133.0158625  81.5078357
  75.7345842 132.9520227  81.6925610  78.8970266 133.2389792  82.2927681
  79.4914757 132.9985528  81.5820989  78.9696850 132.5196923  82.9201217
  73.0824195 138.0170188  77.7349691  73.0259396 138.4738739  76.8957324
  73.6352538 137.2560872  77.5572534  76.8929001 133.8059920  78.5599811
  76.6365935 133.4056555  79.3908018  76.2681869 134.5203714  78.4349950
  81.2041339 136.5455993  81.0671102  80.6440897 136.6149182  81.8402664
  80.5984842 136.3696977  80.3470598  74.1613082 142.7042856  73.6645881
  74.9958686 142.2724054  73.4823356  73.9997425 142.5324869  74.5922776
  73.8158974 139.2074969  75.0302220  73.7607778 139.0419240  74.0890664
  73.1905030 139.9151002  75.1864410  58.6051489 134.4443033  88.8563643
  59.2510353 133.9341987  89.3450868  58.3968641 135.1811715  89.4307068
  71.1304882 141.5123881  94.3555783  71.9996041 141.6864533  93.9942418
  70.6511633 142.3318298  94.2331513  67.1255100 128.7083078  74.6087539
  67.1133770 129.6524918  74.7655810  68.0178522 128.5253223  74.3147000
  70.9407219 125.3025855  78.8633476  70.1739615 124.7484341  79.0090158
  71.3517924 125.3747723  79.7247627  62.9448980 131.5910650  92.9538657
  63.8080442 131.2347455  93.1641981  62.3714391 131.2524545  93.6414061
  85.2672473 144.5960768  86.1981853  84.9355798 145.4656179  85.9743068
  84.6718087 144.2797052  86.8775883  87.0262783 147.5172292  85.0553077
  86.3837163 147.8104826  84.4092872  86.5217712 147.4025213  85.8606274
  82.3655605 142.4430349  85.8153167  82.0219874 143.3331991  85.7392277
  82.7334568 142.2532007  84.9522752  81.4452145 144.8135004  83.7802400
  80.9416941 144.7765139  82.9670205  81.7382752 145.7227747  83.8399057
  77.5980018 144.0017191  78.8860018  76.9444430 143.6866208  78.2616633
  77.5560492 143.3792931  79.6119841  84.1643271 141.7023908  80.9170904
  84.4702148 140.8421272  80.6296819  84.8895876 142.2941528  80.7169898
  84.4344889 144.1318144  83.4154825  83.5207969 144.3622371  83.5837032
  84.8637990 144.2156588  84.2668858  78.4133589 144.0342916  85.2136840
  79.2359658 143.5603394  85.0915730  78.6571653 144.8133400  85.7135526
  80.0696637 144.2833876  81.4763998  80.0918334 144.3473209  80.5215978
  80.4864696 143.4438384  81.6704504  81.6184848 145.0821952  86.8198990
  82.1366792 145.8182979  86.4945479  81.2639981 145.3885945  87.6545749
  81.8697443 141.5022234  82.3399887  82.1499196 140.8345423  82.9660313
  82.6548049 141.6951330  81.8274550  86.0299594 143.6798047  81.2067857
  85.8324415 143.3713135  82.0911189  86.6399300 144.4059686  81.3365787
  79.8582692 144.4828907  77.3340092  79.0483421 144.1375992  77.7095338
  80.5467109 144.1736451  77.9227703  81.7873241 143.5606954  78.9564389
  82.3404279 143.9802407  79.6154412  82.0243327 142.6342702  78.9987345
  85.1652048 145.6707479  78.4643053  84.5850717 146.3292283  78.0821105
  84.8987981 144.8484824  78.0530470  83.6155614 145.0712537  80.6664373
  84.1155393 145.1829071  79.8578692  84.2591222 144.7673590  81.3065182
  89.7364021 148.5681710  82.2927681  90.3308511 148.3277446  81.5820989
  89.8090604 147.8488840  82.9201217  81.7800974 140.6317772  78.8633476
  81.0133370 140.0776259  79.0090158  82.1911679 140.7039641  79.7247627
   6.9141077  22.9231206  70.4846364   7.5519487  22.8037953  69.7809705
   6.7961920  23.8712050  70.5434317   3.7230783  22.8758634  70.4207889
   3.3849295  22.7599698  69.5328424   4.5920552  22.4749799  70.4008895
   4.2050566  24.0293485  76.3794095   4.1939207  23.6346284  75.5074598
   4.3671206  23.2959558  76.9727866   5.1617158  28.3965078  61.7219245
   4.5105138  28.9819158  61.3353259   5.9561521  28.9271273  61.7814282
   0.9257828  26.8130597  75.3273279   0.6347694  27.7176228  75.2119945
   1.5614812  26.8547125  76.0417348   1.8514034  24.1907446  71.9174638
   2.4477607  23.9663468  71.2031601   1.9089006  23.4492191  72.5200086
   1.4239063  21.6446881  59.7524829   1.6764583  21.1228402  58.9908292
   0.4863622  21.4813027  59.8551513   6.4682346  20.6482659  67.5599573
   7.2545435  20.2302083  67.2089990   6.7321050  21.5528752  67.7281221
   6.6392423  26.0855510  62.2588229   6.0038256  26.1590136  62.9709134
   6.3089829  26.6749109  61.5807309  11.8690773  20.5857893  68.4632551
  12.6015945  20.0157109  68.6970380  11.1130128  20.1979493  68.9039057
   1.1435352  23.5474987  61.9549204   1.0271610  22.8719890  62.6230289
   1.2537611  23.0607361  61.1381357   3.4866892  23.0085134  65.6595893
   3.1225100  22.4815755  66.3708815   4.3434008  22.6183603  65.4862379
   5.8847713  26.4992013  72.3223072   5.5848436  27.4017052  72.2138880
   5.5398772  26.2324196  73.1744225   9.2844856  19.0174553  70.0020510
   8.3761734  18.9489961  69.7079271   9.2332452  19.4946498  70.8302335
   3.1061600  20.4932691  61.6403909   2.9861226  20.9389742  62.4789389
   2.4114189  20.8418009  61.0817447   3.3585722  20.4364199  77.9455407
   2.5819056  20.9958119  77.9358272   3.9976285  20.9220982  78.4670277
  11.1506503  17.2190991  71.7798384  10.5080883  17.5123525  71.1338178
  10.6461431  17.1043912  72.5851580   8.8046666  20.9654165  62.4684243
   9.7164523  21.1981551  62.2931940   8.2956314  21.5491209  61.9059321
   1.6132095  23.2449652  77.5073374   2.3546779  23.7834696  77.2308198
   0.9069080  23.8715941  77.6644926   7.0887434  25.3878792  76.1045535
   7.4970790  24.9461203  75.3600168   6.3664696  24.8131420  76.3579728
   3.4418504  20.3251399  73.4779092   4.2879699  20.7490813  73.6213741
   3.3817142  19.6685023  74.1717655   7.4116249  25.9479983  69.8597824
   6.7825111  26.1125697  69.1573892   7.0241911  26.3621593  70.6308788
  11.2905481  26.8834421  67.2142188  10.6056519  27.2633322  66.6639221
  11.3749330  27.4929747  67.9474136   6.5917950  17.9855767  75.1360266
   6.3478881  18.7397828  74.5994542   6.8677880  18.3641115  75.9707513
   8.5456412  24.5294380  73.8137532   8.7573308  25.1726140  73.1371913
   8.4986161  23.6956696  73.3459462   6.1482641  17.1412201  70.7174104
   5.2867120  17.4393454  71.0090841   6.1745076  17.3582599  69.7855136
   2.9644211  25.6854391  67.1247909   3.4282556  25.9642094  66.3352532
   2.7001009  24.7837836  66.9421000   1.9013097  21.8077543  63.9337475
   2.6037140  22.2598587  64.4011401   1.5693725  21.1661362  64.5617368
   9.6602240  27.4066335  71.9859889  10.4819684  27.0046523  71.7042571
   9.6564643  27.3034569  72.9376005   3.4258844  26.9550379  74.1420599
   3.4903276  27.4170786  74.9778771   2.7169768  26.3247743  74.2702909
  17.7508233  23.7505084  68.3344860  16.9971942  23.1812482  68.1788865
  17.8855775  23.7167748  69.2815495   3.1406861  28.6218486  64.0099580
   3.0052536  29.4670022  64.4384428   3.6816674  28.8237764  63.2465514
   4.7675338  29.2442053  78.1399922   4.3239192  28.4578431  77.8220826
   5.4292551  29.4321203  77.4743813   6.8656576  29.5244853  76.1681323
   6.8475051  30.3453734  75.6761592   7.7876496  29.3998928  76.3931464
   3.3229630  27.0388982  77.0104831   3.8557967  26.2777270  76.7804139
   2.7943711  26.7462634  77.7528986   6.4549608  22.1357659  61.0470908
   5.9396231  22.9062264  61.2859296   6.1826916  21.4622795  61.6703970
  11.4283882  24.8890014  62.9824082  10.6513325  24.5501173  62.5379244
  12.1075363  24.8942637  62.3079047   6.2435911  20.0084751  62.8730690
   5.9386046  20.3230900  63.7240833   7.1966353  20.0866171  62.9158023
   4.6882343  26.1674974  64.5223644   4.1603704  25.4327734  64.2096881
   4.1869845  26.9449651  64.2763612   9.6675189  24.3623995  69.6390690
   9.0098863  25.0523256  69.7270818  10.4715588  24.7520427  69.9824676
   8.4780647  22.7168368  67.6894632   8.9912529  23.3498359  68.1916341
   9.1281871  22.1169563  67.3237992   2.8334943  23.9855185  57.5258617
   1.9262005  23.7544438  57.7249766   3.3305975  23.1892804  57.7132598
   5.7403022  32.6952692  60.4455303   5.0664720  32.9984389  61.0540261
   6.1268844  33.4981772  60.0960760   4.9561478  20.1917823  69.9352972
   4.0384040  20.4132770  69.7774660   5.3721622  20.2664134  69.0764679
   5.7396526  21.5909239  65.0655652   6.4868345  22.1030636  64.7562774
   6.0088116  21.2693292  65.9260046   4.0123176  24.0867780  62.0482607
   3.1034396  23.8026812  62.1455076   4.0418260  24.5066858  61.1885913
   9.2442444  27.6974369  65.8173774   8.7904771  26.8565279  65.8738965
   8.6136410  28.3335767  66.1548554   8.1875363  18.6266355  67.0474442
   7.4498120  18.1143741  67.3784684   8.4402137  18.1866737  66.2357719
   7.6875383  29.5350866  66.7523592   7.9798357  30.0955923  66.0335958
   8.1974004  29.8279427  67.5076751   2.5608070  21.6996400  68.1492402
   2.6156680  20.7470237  68.0734879   1.7499272  21.8555839  68.6333700
   3.7099264  25.6276523  59.3870685   3.2718694  24.9112382  58.9276323
   4.4509705  25.8552638  58.8255777   2.6509008  30.3131217  67.8417046
   2.6085187  30.5392063  66.9125578   3.5671707  30.0794591  67.9902847
   6.0974642  20.7815284  74.7397675   6.4524030  21.0086758  75.5992140
   6.7446773  21.1133661  74.1174930  11.8272379  23.9033720  65.4447004
  11.6890277  24.0935316  64.5168193  11.4708598  24.6653103  65.9015055
  11.8541758  25.9710247  70.4558275  12.2878265  25.8785536  71.3041329
  12.5673339  25.9467748  69.8178291   5.5869653  29.5712341  71.9891376
   5.6406676  30.1403278  72.7569092   4.7184435  29.7414226  71.6245413
  12.7157308  26.0133948  72.9891161  12.9093198  26.9179758  73.2350436
  12.6157926  25.5541367  73.8229746   7.7772417  26.1640691  78.5632041
   7.6257923  25.9351242  77.6462125   7.7677096  27.1211292  78.5763386
   4.5457753  23.7372603  73.5478308   5.4749813  23.8883763  73.3747275
   4.1248783  23.8256624  72.6926954   3.3446085  27.7623268  71.3176845
   3.2057171  27.3942052  72.1902783   2.5560681  28.2770907  71.1460803
   3.9394237  32.8632364  62.6602382   4.1145993  32.3920408  63.4748005
   3.2527025  33.4898131  62.8883643   4.8951300  27.1404871  68.7065683
   4.5601133  27.1005641  69.6023333   4.3955246  26.4749586  68.2336093
   7.8310492  24.4860905  58.9802743   7.2139662  23.7607733  58.8835795
   7.3626980  25.2470265  58.6369817   1.4977845  22.2592460  73.7201944
   2.2077463  21.6185652  73.6788562   1.4547153  22.5105355  74.6428125
   9.4864623  29.1959813  76.6408523   9.4277170  28.5119033  75.9739106
   9.8884142  29.9378803  76.1889149   9.4882031  27.1599397  74.8722503
   8.6008809  26.8225319  74.9948902  10.0580582  26.4282428  75.1091268
   3.0183184  31.8200850  71.8383746   2.9453356  32.6255821  72.3503051
   2.5760577  32.0192815  71.0131767   2.8072964  31.0572620  65.3486568
   2.0240486  31.5994300  65.4424792   3.5065709  31.5746599  65.7480809
  13.9699371  22.5707615  69.6339064  13.9589247  23.4532330  69.2632998
  13.1016751  22.2179165  69.4393602   5.4781868  31.7187684  73.9941905
   6.1909840  32.3535148  73.9217806   4.9871896  31.8151550  73.1781907
   7.1999394  25.6238936  65.5659196   6.2655673  25.7440399  65.3963901
   7.3776063  24.7211403  65.3019206  10.5871946  21.4656256  66.1009231
  11.0532398  22.2984247  66.0269533  11.0379446  21.0001237  66.8054489
   8.6548177  27.8100077  63.0995383   8.9308021  27.6956671  64.0089257
   7.7852676  27.4117562  63.0607556   8.3295067  22.0226734  72.6400026
   7.6766517  22.2702642  71.9852479   8.7075447  21.2090873  72.3062503
   5.2902241  32.0586428  66.7428196   5.4724635  31.2408084  67.2055948
   6.1135227  32.2754120  66.3053086   5.6244406  30.9854613  64.0043245
   6.1532173  30.4747067  63.3913407   5.8872626  30.6697143  64.8688778
   4.3782640  22.7646546  79.1266063   3.7023277  22.6640675  79.7968438
   5.2010274  22.6085759  79.5902060   3.1205423  34.0713473  73.3623679
   3.6723731  34.2345095  74.1272764   3.4611616  34.6617911  72.6903704
   7.9716297  28.8974731  79.2172333   8.5156201  29.5104689  78.7227288
   7.3903142  29.4554309  79.7339346   6.2573810  32.0195449  70.3487361
   6.1324950  31.2185188  69.8398307   6.9152901  32.5141642  69.8601331
   8.3208719  29.8204469  71.9766911   7.3739054  29.7009820  71.9045238
   8.6691492  28.9326967  72.0593173   5.3255152  29.6157185  68.1771263
   5.1780114  28.6873892  68.3578833   6.1508645  29.6377276  67.6928339
   8.9289274  30.4385744  69.2636136   9.8535821  30.2328605  69.1260587
   8.7604577  30.1902145  70.1725478   8.7184590  30.9571411  64.6198228
   8.8921467  30.3917833  63.8672080   9.2113481  31.7572306  64.4377718
  14.5723981  23.7207834  66.2388527  15.0155127  22.9715159  65.8407651
  13.6950491  23.7117970  65.8562259   9.7059762  30.2738175  61.7195126
  10.4010667  30.8944868  61.9382441  10.0482913  29.4233527  61.9947504
  11.6051186  27.7237881  63.2482457  12.1302510  28.0625154  62.5231777
  11.5173538  26.7884896  63.0645591   3.2671234  31.6371955  75.3772333
   3.5758361  31.3921101  76.2495033   4.0646716  31.8418593  74.8891204
   3.2891846  33.7909864  67.6077710   2.8496837  33.2986243  68.3010567
   4.0399963  33.2482832  67.3669785  11.2945092  28.3570785  78.5533655
  10.5040635  28.3394923  78.0138154  11.0578446  28.8959078  79.3082691
  11.4142967  25.2063251  75.8666383  11.4640972  25.0413258  76.8081906
  11.3056890  24.3390510  75.4764264   8.7046729  21.1894179  77.1825690
   9.6056592  21.0500644  76.8909688   8.7794704  21.3548634  78.1223867
  12.9161164  27.6260192  76.1108405  12.6245972  27.9890173  76.9471866
  12.3033295  26.9127201  75.9321737  14.1156846  25.1913072  68.6310975
  14.9503737  25.6302876  68.7948535  14.2515975  24.7151725  67.8119221
  11.1648352  22.7492807  74.5788463  11.6402473  22.9420453  73.7707314
  10.2413917  22.8051993  74.3331846   3.7974631  30.3799927  60.6270220
   3.2248598  30.9990114  60.1740691   4.3707425  30.9299289  61.1610141
   9.8650021  19.6258567  72.8116768  10.8167444  19.7256665  72.8328992
   9.6953471  18.8336836  73.3214853   7.8864400  16.7114150  72.9976169
   7.2914332  16.9919163  72.3022658   7.6014097  17.2008051  73.7692910
   7.0171891  30.6637077  61.7578802   7.9502564  30.5982639  61.9611677
   6.9295104  31.4993344  61.2993334   9.6459907  29.9802948  58.7182749
   9.5673539  29.6462811  59.6118507  10.4669574  30.4724715  58.7174222
  12.3438099  22.8464687  71.9259068  12.3114419  21.9080688  72.1118752
  12.9538722  22.9248724  71.1924893   4.1821429  21.7160740  57.9686272
   5.1280534  21.5866948  58.0374690   3.8035674  20.9775402  58.4455700
  12.4932587  19.6375730  71.9717351  11.9771636  18.8534187  71.7847280
  13.3772536  19.3094447  72.1363871  18.1614648  23.9080694  71.0665105
  18.8918037  23.6465982  71.6272808  17.5521594  23.1709416  71.1067173
  16.2429946  22.0488556  71.6639556  15.5163109  21.9144521  71.0556048
  15.8277232  22.3565385  72.4696274   4.0660122  25.7678486  79.4286929
   4.9863131  25.9457085  79.6226975   4.0309705  24.8234531  79.2766628
   9.2895768  15.3726178  65.1888359   8.7094437  16.0310982  64.8066412
   9.0231700  14.5503523  64.7775777   1.7981330  22.6809865  80.2777521
   1.3148412  23.4810225  80.4841410   1.8842269  22.6917810  79.3244965
   8.0720646  17.5326268  64.2444708   7.1846501  17.8175919  64.0264902
   8.4874635  17.3720032  63.3971985  11.4235182  17.5572789  67.9599047
  12.1995572  18.0469242  68.2323664  10.6983316  17.9830843  68.4170916
  13.8607740  18.2700409  69.0172988  14.4552231  18.0296144  68.3066296
  13.9334324  17.5507539  69.6446524   7.2163859  27.2970943  58.3392728
   7.9199709  27.5020945  58.9550383   6.4926508  27.8647705  58.6041811
   8.0461669  23.0480804  64.4594998   7.9896871  23.5049356  63.6202630
   8.5990012  22.2871489  64.2817841  11.8566475  18.8370536  65.2845117
  11.6003410  18.4367172  66.1153325  11.2319343  19.5514330  65.1595256
  16.1678813  21.5766609  67.7916409  15.6078371  21.6459799  68.5647971
  15.5622317  21.4007594  67.0715905   9.1250557  27.7353472  60.3891188
   9.9596160  27.3034671  60.2068663   8.9634899  27.5635486  61.3168082
   8.7796449  24.2385585  61.7547527   8.7245253  24.0729857  60.8135971
   8.1542504  24.9461618  61.9109717   6.0942356  26.5434497  81.0801090
   6.9633516  26.7175150  80.7187725   5.6149107  27.3628914  80.9576819
   2.0182138  32.4162585  69.4200602   1.0677769  32.4164447  69.3064974
   2.3214624  31.6695319  68.9036637  17.7534832  38.2523123  70.4846364
  18.3913242  38.1329871  69.7809705  17.6355675  39.2003967  70.5434317
  14.5624538  38.2050551  70.4207889  14.2243049  38.0891616  69.5328424
  15.4314306  37.8041716  70.4008895  10.4211354  40.0586028  66.4104780
   9.8576219  39.9675965  65.6421068  10.3063749  39.2385932  66.8907273
  15.0444321  39.3585403  76.3794095  15.0332962  38.9638201  75.5074598
  15.2064960  38.6251476  76.9727866   7.9675786  41.5537219  69.2489001
   8.7597077  41.2128044  68.8335300   8.2072436  41.6632194  70.1691154
  16.0010912  43.7256996  61.7219245  15.3498892  44.3111076  61.3353259
  16.7955275  44.2563190  61.7814282   9.9266539  40.8146133  62.1206379
  10.6997415  40.2675120  61.9819255  10.2791938  41.6790382  62.3320841
  11.7651582  42.1422515  75.3273279  11.4741448  43.0468146  75.2119945
  12.4008566  42.1839043  76.0417348  12.6907789  39.5199363  71.9174638
  13.2871361  39.2955386  71.2031601  12.7482760  38.7784109  72.5200086
  12.2632817  36.9738799  59.7524829  12.5158338  36.4520320  58.9908292
  11.3257376  36.8104944  59.8551513  17.3076100  35.9774577  67.5599573
  18.0939189  35.5594000  67.2089990  17.5714804  36.8820669  67.7281221
  17.4786177  41.4147427  62.2588229  16.8432010  41.4882054  62.9709134
  17.1483584  42.0041026  61.5807309  22.7084527  35.9149810  68.4632551
  23.4409699  35.3449027  68.6970380  21.9523883  35.5271411  68.9039057
  11.9829106  38.8766905  61.9549204  11.8665364  38.2011808  62.6230289
  12.0931366  38.3899279  61.1381357  14.3260647  38.3377052  65.6595893
  13.9618854  37.8107673  66.3708815  15.1827763  37.9475521  65.4862379
  20.2309948  29.6271384  72.9227160  19.8993272  30.4966795  72.6988375
  19.6355561  29.3107668  73.6021190  13.9666134  33.3666952  60.6557242
  14.1340536  34.2347188  61.0227713  13.7763303  33.5294233  59.7318531
  16.7241467  41.8283930  72.3223072  16.4242190  42.7308969  72.2138880
  16.3792527  41.5616114  73.1744225  10.1753949  38.2797727  68.3559777
   9.2504445  38.1473941  68.5637469  10.4238362  39.0591947  68.8529719
  20.1238611  34.3466471  70.0020510  19.2155488  34.2781879  69.7079271
  20.0726207  34.8238416  70.8302335  13.9455355  35.8224609  61.6403909
  13.8254980  36.2681660  62.4789389  13.2507943  36.1709927  61.0817447
   7.5362760  37.9231001  69.1903566   7.6655141  38.1765480  70.1042978
   6.8560211  38.5158709  68.8708221  11.7062247  48.5928251  65.2894040
  11.6286277  49.5436076  65.3682521  11.1023891  48.2474123  65.9468966
  14.1979477  35.7656116  77.9455407  13.4212811  36.3250036  77.9358272
  14.8370040  36.2512899  78.4670277  21.9900257  32.5482909  71.7798384
  21.3474638  32.8415442  71.1338178  21.4855186  32.4335829  72.5851580
  19.6440421  36.2946082  62.4684243  20.5558277  36.5273469  62.2931940
  19.1350068  36.8783126  61.9059321  12.4525849  38.5741570  77.5073374
  13.1940533  39.1126614  77.2308198  11.7462834  39.2007858  77.6644926
  17.9281189  40.7170710  76.1045535  18.3364545  40.2753121  75.3600168
  17.2058450  40.1423338  76.3579728  14.2812259  35.6543317  73.4779092
  15.1273454  36.0782730  73.6213741  14.2210896  34.9976941  74.1717655
  18.2510003  41.2771901  69.8597824  17.6218866  41.4417615  69.1573892
  17.8635665  41.6913510  70.6308788  22.1299235  42.2126339  67.2142188
  21.4450273  42.5925240  66.6639221  22.2143084  42.8221665  67.9474136
  17.4311704  33.3147685  75.1360266  17.1872636  34.0689746  74.5994542
  17.7071635  33.6933033  75.9707513  19.3850167  39.8586298  73.8137532
  19.5967062  40.5018057  73.1371913  19.3379915  39.0248614  73.3459462
  16.9876396  32.4704118  70.7174104  16.1260875  32.7685372  71.0090841
  17.0138830  32.6874517  69.7855136  13.8037965  41.0146309  67.1247909
  14.2676311  41.2934012  66.3352532  13.5394763  40.1129753  66.9421000
  10.6962046  40.5617790  70.0627673  11.2663403  40.9905059  69.4245157
  11.2870158  40.2800375  70.7611858  12.7406851  37.1369461  63.9337475
  13.4430895  37.5890505  64.4011401  12.4087480  36.4953280  64.5617368
  11.1887213  35.7281218  78.3088684  10.5585873  36.4097499  78.5424081
  11.0823301  35.6164299  77.3641822   6.4832185  35.3953014  69.2354608
   5.6931239  35.6510542  68.7594719   6.9743433  36.2101352  69.3406649
  20.4995995  42.7358253  71.9859889  21.3213438  42.3338440  71.7042571
  20.4958398  42.6326487  72.9376005   8.4346931  35.7597593  66.1938085
   7.6378094  35.8716287  66.7121580   8.2072523  36.0984245  65.3278975
  14.2652598  42.2842296  74.1420599  14.3297031  42.7462703  74.9778771
  13.5563522  41.6539661  74.2702909   4.7669888  35.6483504  71.6669599
   5.0177927  36.5330514  71.9327175   5.3029437  35.4688106  70.8944691
  28.5901988  39.0797001  68.3344860  27.8365696  38.5104400  68.1788865
  28.7249529  39.0459666  69.2815495  13.9800616  43.9510404  64.0099580
  13.8446291  44.7961939  64.4384428  14.5210428  44.1529681  63.2465514
  10.4667955  30.0301984  80.6713935  10.0734901  29.4768182  81.3461579
  11.2834096  30.3412562  81.0620453   7.4330013  41.4685842  64.5827505
   7.9454534  42.2629092  64.7333070   8.0852726  40.7712132  64.5161106
   9.2424898  44.5851598  66.6650258   9.4191526  45.5069563  66.4771242
  10.0381731  44.2710017  67.0944638  13.3835916  31.4459863  78.2634192
  14.1245630  32.0467016  78.1838654  13.6153839  30.7037500  77.7052234
   8.5277254  36.6316230  76.5412421   8.4130770  35.7301487  76.8419520
   7.6721772  36.8779927  76.1897238  15.6069092  44.5733970  78.1399922
  15.1632946  43.7870349  77.8220826  16.2686306  44.7613121  77.4743813
  10.3656213  46.1029772  72.6660600  10.9163639  45.9746835  71.8937594
   9.5267689  46.4024661  72.3155493  17.7050330  44.8536770  76.1681323
  17.6868806  45.6745651  75.6761592  18.6270250  44.7290845  76.3931464
  14.1623384  42.3680900  77.0104831  14.6951721  41.6069188  76.7804139
  13.6337466  42.0754551  77.7528986  17.3293079  27.4740966  72.5398473
  16.9857349  28.3642607  72.4637584  17.6972042  27.2842623  71.6768058
   5.3978930  39.7974496  65.3587075   6.2354152  40.2071504  65.1420783
   5.5757198  38.8573938  65.3287269  17.2943362  37.4649577  61.0470908
  16.7789986  38.2354181  61.2859296  17.0220671  36.7914713  61.6703970
  14.8790473  32.3099278  66.1056147  14.0232070  31.9206128  65.9261785
  15.2917425  32.3891238  65.2455932  16.4089620  29.8445621  70.5047706
  15.9054415  29.8075756  69.6915512  16.7020227  30.7538363  70.5644363
  12.6532506  29.9284351  69.5113888  13.5185502  29.7327159  69.1519778
  12.7210015  29.6994702  70.4383245  22.2677636  40.2181931  62.9824082
  21.4907079  39.8793091  62.5379244  22.9469117  40.2234555  62.3079047
  17.0829665  35.3376669  62.8730690  16.7779801  35.6522818  63.7240833
  18.0360107  35.4158089  62.9158023  15.5276097  41.4966892  64.5223644
  14.9997459  40.7619652  64.2096881  15.0263600  42.2741568  64.2763612
  20.5068943  39.6915913  69.6390690  19.8492618  40.3815174  69.7270818
  21.3109342  40.0812345  69.9824676  10.2594825  32.1586558  66.8830255
  10.8338577  31.9361740  66.1503448  10.8465807  32.2275253  67.6358856
  19.3174402  38.0460285  67.6894632  19.8306284  38.6790277  68.1916341
  19.9675626  37.4461481  67.3237992  10.5864412  34.1891019  60.9026140
   9.7501724  34.5265706  61.2235415  10.4469182  34.0539999  59.9653277
  12.5617492  29.0327807  65.6105324  11.9081905  28.7176825  64.9861939
  12.5197967  28.4103548  66.3365147  13.6728697  39.3147102  57.5258617
  12.7655759  39.0836356  57.7249766  14.1699729  38.5184722  57.7132598
  16.5796776  48.0244610  60.4455303  15.9058475  48.3276306  61.0540261
  16.9662598  48.8273690  60.0960760  15.7955233  35.5209741  69.9352972
  14.8777794  35.7424688  69.7774660  16.2115376  35.5956051  69.0764679
  16.5790281  36.9201157  65.0655652  17.3262100  37.4322554  64.7562774
  16.8481870  36.5985209  65.9260046  14.8516931  39.4159697  62.0482607
  13.9428150  39.1318730  62.1455076  14.8812015  39.8358776  61.1885913
  20.0836198  43.0266287  65.8173774  19.6298525  42.1857197  65.8738965
  19.4530165  43.6627685  66.1548554  19.0269118  33.9558273  67.0474442
  18.2891875  33.4435659  67.3784684  19.2795891  33.5158654  66.2357719
  18.5269137  44.8642783  66.7523592  18.8192112  45.4247841  66.0335958
  19.0367758  45.1571344  67.5076751  19.1280745  26.7334525  67.6416211
  19.4339622  25.8731888  67.3542126  19.8533350  27.3252145  67.4415205
   5.4205101  37.1365211  66.0297809   5.2229501  36.5434572  65.3048875
   4.8651765  36.8317422  66.7473748  13.4001825  37.0288318  68.1492402
  13.4550435  36.0762154  68.0734879  12.5893027  37.1847757  68.6333700
  14.5493019  40.9568441  59.3870685  14.1112449  40.2404300  58.9276323
  15.2903459  41.1844556  58.8255777  11.3394185  35.6465378  65.9082781
  10.5262050  35.9459548  66.3147973  11.8353179  35.2521066  66.6257263
  13.4902763  45.6423135  67.8417046  13.4478941  45.8683981  66.9125578
  14.4065461  45.4086509  67.9902847  16.9368396  36.1107202  74.7397675
  17.2917784  36.3378675  75.5992140  17.5840528  36.4425579  74.1174930
  22.6666133  39.2325638  65.4447004  22.5284032  39.4227234  64.5168193
  22.3102352  39.9945021  65.9015055  10.8308259  33.2183733  71.5244016
  11.4707639  33.0772492  70.8266979   9.9985790  32.9318247  71.1482618
  22.6935513  41.3002165  70.4558275  23.1272020  41.2077454  71.3041329
  23.4067094  41.2759665  69.8178291  11.6068563  42.5186164  67.6379008
  12.4009162  42.0236484  67.4361583  10.8960256  41.9904027  67.2746714
  16.4263408  44.9004259  71.9891376  16.4800430  45.4695195  72.7569092
  15.5578189  45.0706144  71.6245413   7.9151327  36.6629245  63.7138761
   6.9848915  36.6013701  63.9308723   8.0108799  36.1405198  62.9175402
   7.8336876  33.1884058  66.3017003   8.0943693  34.1029391  66.1926163
   8.6554048  32.7208501  66.4513615   9.3061801  34.6021815  73.4715827
   9.9784855  34.3939177  72.8228476   8.4791588  34.4043901  73.0321059
  23.5551063  41.3425866  72.9891161  23.7486953  42.2471676  73.2350436
  23.4551681  40.8833285  73.8229746  15.2087373  31.2283756  75.4881488
  14.5615288  31.9273706  75.3945964  15.9788389  31.6619900  75.8557736
  18.6166171  41.4932608  78.5632041  18.4651678  41.2643160  77.6462125
  18.6070851  42.4503210  78.5763386  15.3851508  39.0664521  73.5478308
  16.3143568  39.2175681  73.3747275  14.9642538  39.1548542  72.6926954
  14.1839839  43.0915186  71.3176845  14.0450925  42.7233970  72.1902783
  13.3954436  43.6062825  71.1460803  14.7787991  48.1924282  62.6602382
  14.9539747  47.7212325  63.4748005  14.0920779  48.8190048  62.8883643
  15.7345055  42.4696788  68.7065683  15.3994887  42.4297558  69.6023333
  15.2349000  41.8041504  68.2336093   9.7089298  37.8764418  74.2318264
   9.5709096  37.1444657  74.8329803  10.6194222  37.7873318  73.9502452
  18.6704246  39.8152823  58.9802743  18.0533417  39.0899651  58.8835795
  18.2020735  40.5762183  58.6369817  12.3371599  37.5884378  73.7201944
  13.0471218  36.9477570  73.6788562  12.2940907  37.8397272  74.6428125
  20.3258378  44.5251731  76.6408523  20.2670924  43.8410951  75.9739106
  20.7277896  45.2670721  76.1889149  11.0500533  34.5749595  75.5397583
  10.5137890  34.1240334  76.1919180  10.4617242  34.7095504  74.7968048
   9.3449077  51.3413645  69.4342242   9.5845675  51.9732169  70.1121261
   8.5018273  50.9901685  69.7207601  10.4602792  34.0338247  58.1024047
   9.5832258  33.9127048  57.7386294  10.9360545  33.2424325  57.8502936
  20.3275785  42.4891315  74.8722503  19.4402564  42.1517237  74.9948902
  20.8974336  41.7574346  75.1091268   1.9804932  38.8215407  68.1965554
   2.6675972  38.5077137  67.6086570   1.8253061  39.7256771  67.9232806
   6.7839654  33.7105603  72.6250578   6.6997843  33.1031273  71.8900988
   5.9622361  34.2014621  72.6260074  13.8576939  47.1492767  71.8383746
  13.7847110  47.9547739  72.3503051  13.4154332  47.3484733  71.0131767
  13.6466718  46.3864537  65.3486568  12.8634240  46.9286217  65.4424792
  14.3459463  46.9038517  65.7480809  16.9563368  32.1959167  67.9920773
  17.4532068  31.4429129  67.6721843  16.1850350  32.2323483  67.4263982
  24.8093126  37.8999532  69.6339064  24.7983002  38.7824248  69.2632998
  23.9410505  37.5471083  69.4393602  16.3175622  47.0479601  73.9941905
  17.0303594  47.6827066  73.9217806  15.8265651  47.1443467  73.1781907
  18.0393149  40.9530854  65.5659196  17.1049428  41.0732316  65.3963901
  18.2169817  40.0503321  65.3019206  13.5398337  34.3376550  67.7192458
  13.1696125  33.7847590  68.4073363  14.0357429  33.7334683  67.1667458
  21.4265700  36.7948173  66.1009231  21.8926152  37.6276165  66.0269533
  21.8773201  36.3293155  66.8054489  11.3687536  44.7974045  74.8147476
  12.0696995  45.4310528  74.9676870  10.8982651  45.1388776  74.0543115
  19.4941931  43.1391995  63.0995383  19.7701775  43.0248589  64.0089257
  18.6246430  42.7409479  63.0607556  19.3982363  29.1628760  70.1400132
  18.4845443  29.3932987  70.3082339  19.8275464  29.2467204  70.9914164
  19.1688822  37.3518652  72.6400026  18.5160272  37.5994560  71.9852479
  19.5469201  36.5382790  72.3062503  16.1295995  47.3878345  66.7428196
  16.3118390  46.5700001  67.2055948  16.9528981  47.6046038  66.3053086
  16.4638161  46.3146530  64.0043245  16.9925927  45.8038985  63.3913407
  16.7266380  45.9989061  64.8688778  15.2176395  38.0938463  79.1266063
  14.5417032  37.9932593  79.7968438  16.0404028  37.9377677  79.5902060
   6.9655254  44.3310400  71.7478578   7.5508690  43.5854088  71.8806482
   6.7680092  44.6414356  72.6315242   9.8193909  47.3661647  66.7641021
   9.1504284  47.8507775  66.2805061   9.6806779  47.6130868  67.6784399
   1.5572908  36.9016000  70.4683021   1.5957008  36.3679591  71.2620139
   1.0513201  36.3751205  69.8493999  13.9599177  49.4005391  73.3623679
  14.5117485  49.5637012  74.1272764  14.3005371  49.9909829  72.6903704
   8.9363671  31.7480540  73.9645564   9.0004997  32.6095371  73.5522961
   8.8730791  31.1354542  73.2317922   8.4115943  33.8203673  77.6118598
   9.0387982  33.4380750  78.2256122   7.5543862  33.6017875  77.9774290
  18.8110052  44.2266648  79.2172333  19.3549956  44.8396606  78.7227288
  18.2296897  44.7846227  79.7339346   5.1881486  35.6280102  63.5436953
   5.4834927  34.7190781  63.4904006   4.2869522  35.6067842  63.2217955
  17.0967565  47.3487366  70.3487361  16.9718704  46.5477106  69.8398307
  17.7546656  47.8433560  69.8601331   8.7175733  33.7036099  69.5264501
   7.9962319  34.3172066  69.3871975   9.5068989  34.2393864  69.4481147
  19.1602473  45.1496386  71.9766911  18.2132809  45.0301737  71.9045238
  19.5085246  44.2618884  72.0593173  11.5202046  31.0390525  75.8005153
  12.0436448  31.2852822  76.5631462  11.3014380  31.8710560  75.3808290
   6.9169328  33.3094200  63.6676278   6.5882034  32.4291579  63.4851384
   7.2708698  33.2541868  64.5552667  16.1648906  44.9449103  68.1771263
  16.0173869  44.0165810  68.3578833  16.9902400  44.9669193  67.6928339
  10.0311151  33.5967170  64.0351756  10.3707223  34.1253091  63.3130364
  10.4783271  33.9347576  64.8110322  19.7683028  45.7677661  69.2636136
  20.6929576  45.5620523  69.1260587  19.5998332  45.5194062  70.1725478
  12.7254592  31.9804220  73.4854824  12.3851412  31.1812033  73.8875504
  12.0193598  32.2805931  72.9131657  13.3771063  29.0653533  71.9382147
  14.1997133  28.5914011  71.8161037  13.6209127  29.8444016  72.4380833
  12.0179298  32.0941791  62.2345048  12.7387660  32.4723044  61.7308765
  11.3944602  32.8130668  62.3380026  16.1610421  32.7986940  63.1703381
  16.3774035  33.6811578  62.8692209  15.6804488  32.4073154  62.4409023
  10.9009642  35.7572653  69.7474125  10.7554223  36.0712956  70.6398407
  10.4234846  36.3757554  69.1945024  12.7606025  32.7475201  69.7955015
  12.7467594  31.8516295  69.4587313  13.4778453  32.7545865  70.4293301
  14.6132156  33.1812542  71.8408142  14.3549934  34.1029612  71.8392473
  14.0817196  32.7842976  72.5308606  19.5578344  46.2863329  64.6198228
  19.7315222  45.7209751  63.8672080  20.0507236  47.0864224  64.4377718
   5.3755304  38.2977998  72.6861786   4.8308772  39.0737806  72.8182061
   6.2534654  38.6448802  72.5280908  12.1642921  31.6289582  65.0642585
  12.2858832  30.7006228  65.2633472  11.8744963  31.6428268  64.1520900
  15.0334111  29.3144492  68.2009305  15.0555808  29.3783825  67.2461284
  15.4502170  28.4749001  68.3949811  25.4117736  39.0499752  66.2388527
  25.8548882  38.3007077  65.8407651  24.5344246  39.0409888  65.8562259
  20.5453517  45.6030093  61.7195126  21.2404422  46.2236786  61.9382441
  20.8876667  44.7525444  61.9947504   6.1621326  37.4247894  75.5791943
   5.4203062  37.5730529  76.1656574   5.8414070  37.6856160  74.7158693
  22.4444940  43.0529799  63.2482457  22.9696264  43.3917071  62.5231777
  22.3567293  42.1176814  63.0645591  14.1064989  46.9663872  75.3772333
  14.4152115  46.7213019  76.2495033  14.9040471  47.1710511  74.8891204
  14.1285601  49.1201782  67.6077710  13.6890591  48.6278161  68.3010567
  14.8793718  48.5774750  67.3669785   6.6077940  45.3113323  67.6102338
   7.4335960  45.0117095  67.2300981   6.2571992  44.5420945  68.0592127
  11.5759473  44.6639791  69.6800012  10.9539482  44.0010496  69.3802239
  12.2464340  44.6900923  68.9973659   4.8086545  43.2299649  68.5691272
   3.9718453  42.8021824  68.3875273   4.7810190  43.4232093  69.5062063
  11.6484000  33.1421579  79.2732518  11.6972156  34.0183702  78.8910287
  12.1906515  32.5998972  78.7004161  22.2536721  40.5355169  75.8666383
  22.3034726  40.3705176  76.8081906  22.1450645  39.6682428  75.4764264
  11.1372980  43.2143714  63.1558472  11.2861100  43.8979179  62.5025145
  11.9439423  43.1948804  63.6707928  19.5440484  36.5186097  77.1825690
  20.4450346  36.3792562  76.8909688  19.6188458  36.6840552  78.1223867
  13.8783289  33.8952951  76.0278876  13.0086598  34.1886517  75.7561465
  14.1142769  34.4793396  76.7486140  24.9550600  40.5204990  68.6310975
  25.7897492  40.9594794  68.7948535  25.0909729  40.0443643  67.8119221
  22.0042106  38.0784725  74.5788463  22.4796228  38.2712371  73.7707314
  21.0807672  38.1343911  74.3331846   8.8925613  39.2408892  64.1619541
   8.6471655  38.3371222  64.3599751   9.0621527  39.2426042  63.2199019
  16.5822323  30.1132568  73.5444297  17.1004267  30.8493595  73.2190785
  16.2277455  30.4196562  74.3791056   8.1621260  34.9737250  61.6605702
   7.4690505  35.0481605  61.0045738   7.9173012  34.2097593  62.1827219
  16.8334917  26.5332851  69.0645193  17.1136671  25.8656040  69.6905620
  17.6185524  26.7261946  68.5519857  14.6368385  45.7091845  60.6270220
  14.0642352  46.3282032  60.1740691  15.2101179  46.2591206  61.1610141
  20.7043775  34.9550485  72.8116768  21.6561198  35.0548583  72.8328992
  20.5347226  34.1628753  73.3214853  18.7258155  32.0406068  72.9976169
  18.1308087  32.3211081  72.3022658  18.4407851  32.5299969  73.7692910
  17.8565645  45.9928995  61.7578802  18.7896318  45.9274557  61.9611677
  17.7688858  46.8285262  61.2993334  20.4853662  45.3094865  58.7182749
  20.4067293  44.9754729  59.6118507  21.3063329  45.8016633  58.7174222
  23.1831853  38.1756605  71.9259068  23.1508173  37.2372605  72.1118752
  23.7932477  38.2540641  71.1924893  15.0215184  37.0452658  57.9686272
  15.9674289  36.9158866  58.0374690  14.6429429  36.3067319  58.4455700
  23.3326342  34.9667648  71.9717351  22.8165390  34.1826105  71.7847280
  24.2166290  34.6386365  72.1363871  20.9937068  28.7108664  67.9313164
  20.7961890  28.4023752  68.8156496  21.6036774  29.4370302  68.0611094
  29.0008403  39.2372611  71.0665105  29.7311791  38.9757900  71.6272808
  28.3915348  38.5001333  71.1067173  27.0823700  37.3780474  71.6639556
  26.3556864  37.2436439  71.0556048  26.6670987  37.6857303  72.4696274
  14.9053876  41.0970404  79.4286929  15.8256886  41.2749003  79.6226975
  14.8703459  40.1526449  79.2766628  13.2058101  34.9702634  57.9041157
  12.2989556  34.6735747  57.9803871  13.4834082  34.6732452  57.0375443
   4.1236041  36.2908997  68.3540204   3.8038826  35.4374306  68.0614578
   3.5769470  36.5057575  69.1098171   7.9015949  39.0071438  72.0709710
   8.1201959  39.9388546  72.0897744   8.3141723  38.6479413  72.8564514
  14.8220167  29.5139524  64.0585399  14.0120895  29.1686609  64.4340645
  15.5104584  29.2047067  64.6473010  16.7510715  28.5917570  65.6809695
  17.3041754  29.0113024  66.3399718  16.9880801  27.6653319  65.7232651
  12.7743814  34.5804644  81.4612459  12.6740541  35.5299001  81.3924550
  12.5565356  34.2522883  80.5888529  11.9756886  31.8289569  58.0453136
  12.8376050  32.1544467  58.3048954  12.1607230  31.0421065  57.5326202
   3.9924301  39.9111909  70.3233325   3.2987773  39.4965862  69.8103280
   4.7397292  39.9532445  69.7266744  20.1289522  30.7018096  65.1888359
  19.5488191  31.3602900  64.8066412  19.8625455  29.8795440  64.7775777
  18.5793089  30.1023153  67.3909680  19.0792867  30.2139688  66.5823999
  19.2228696  29.7984206  68.0310488  12.6375084  38.0101783  80.2777521
  12.1542166  38.8102143  80.4841410  12.7236023  38.0209728  79.3244965
   5.9061044  39.8430163  68.1999340   5.8831732  39.9417850  67.2481223
   6.2161680  40.6895313  68.5216506   8.5648422  41.9006318  72.3145955
   9.5191675  41.8690260  72.2475886   8.3660945  41.4396941  73.1296180
   9.1547804  40.4707434  74.8816752   9.9740693  40.9651512  74.9051589
   9.4284612  39.5539402  74.8534320  18.9114400  32.8618186  64.2444708
  18.0240255  33.1467837  64.0264902  19.3268389  32.7011949  63.3971985
  22.2628936  32.8864707  67.9599047  23.0389326  33.3761159  68.2323664
  21.5377070  33.3122761  68.4170916  24.7001495  33.5992326  69.0172988
  25.2945986  33.3588062  68.3066296  24.7728079  32.8799457  69.6446524
   6.9198651  47.4425937  69.3316152   6.7853119  46.6826338  68.7654150
   6.5030713  48.1666837  68.8644941  18.0557614  42.6262861  58.3392728
  18.7593464  42.8312863  58.9550383  17.3320262  43.1939623  58.6041811
  18.8855424  38.3772722  64.4594998  18.8290625  38.8341273  63.6202630
  19.4383766  37.6163407  64.2817841  22.6960230  34.1662454  65.2845117
  22.4397164  33.7659089  66.1153325  22.0713098  34.8806248  65.1595256
  27.0072568  36.9058527  67.7916409  26.4472126  36.9751716  68.5647971
  26.4016071  36.7299512  67.0715905  10.0767776  48.3395254  69.5434595
   9.9600161  49.2840687  69.4413285   9.2560223  48.0368816  69.9320394
  19.9644311  43.0645390  60.3891188  20.7989915  42.6326588  60.2068663
  19.8028654  42.8927404  61.3168082  19.6190203  39.5677503  61.7547527
  19.5639007  39.4021775  60.8135971  18.9936258  40.2753536  61.9109717
   4.4082718  34.8045568  75.5808949   5.0541582  34.2944522  76.0696174
   4.1999869  35.5414249  76.1552374  16.9336110  41.8726415  81.0801090
  17.8027270  42.0467067  80.7187725  16.4542862  42.6920832  80.9576819
  12.9286329  29.0685612  61.3332845  12.9164999  30.0127452  61.4901116
  13.8209751  28.8855758  61.0392307  11.1022291  48.9923516  72.7590523
  12.0049537  49.0247126  73.0757018  10.8759661  48.0623967  72.7736859
  12.8575893  47.7454503  69.4200602  11.9071524  47.7456364  69.3064974
  13.1608379  46.9987237  68.9036637  16.7438448  25.6628389  65.5878782
  15.9770844  25.1086876  65.7335465  17.1549153  25.7350258  66.4492934
   8.7480209  31.9513185  79.6783963   9.6111671  31.5949989  79.8887288
   8.1745620  31.6127079  80.3659368  18.8069540  56.8829137  69.2489001
  19.5990832  56.5419962  68.8335300  19.0466190  56.9924112  70.1691154
  20.7660294  56.1438050  62.1206379  21.5391170  55.5967037  61.9819255
  21.1185693  57.0082300  62.3320841  23.1026572  52.3030716  59.7524829
  23.3552092  51.7812238  58.9908292  22.1651131  52.1396862  59.8551513
  22.8222861  54.2058822  61.9549204  22.7059119  53.5303726  62.6230289
  22.9325120  53.7191196  61.1381357  24.8059888  48.6958869  60.6557242
  24.9734291  49.5639106  61.0227713  24.6157058  48.8586151  59.7318531
  24.7849109  51.1516527  61.6403909  24.6648735  51.5973577  62.4789389
  24.0901698  51.5001844  61.0817447  18.3756514  53.2522919  69.1903566
  18.5048895  53.5057397  70.1042978  17.6953965  53.8450627  68.8708221
  30.4834175  51.6238000  62.4684243  31.3952032  51.8565387  62.2931940
  29.9743823  52.2075044  61.9059321  23.5800606  52.4661379  63.9337475
  24.2824649  52.9182422  64.4011401  23.2481234  51.8245198  64.5617368
  17.3225940  50.7244931  69.2354608  16.5324994  50.9802460  68.7594719
  17.8137187  51.5393269  69.3406649  19.2740685  51.0889511  66.1938085
  18.4771848  51.2008205  66.7121580  19.0466277  51.4276163  65.3278975
  15.6063643  50.9775422  71.6669599  15.8571681  51.8622432  71.9327175
  16.1423191  50.7980023  70.8944691  18.2723768  56.7977759  64.5827505
  18.7848288  57.5921010  64.7333070  18.9246481  56.1004050  64.5161106
  20.0818652  59.9143516  66.6650258  20.2585281  60.8361480  66.4771242
  20.8775486  59.6001935  67.0944638  21.2049968  61.4321690  72.6660600
  21.7557393  61.3038753  71.8937594  20.3661444  61.7316579  72.3155493
  16.2372685  55.1266414  65.3587075  17.0747907  55.5363422  65.1420783
  16.4150952  54.1865856  65.3287269  28.1337117  52.7941494  61.0470908
  27.6183740  53.5646099  61.2859296  27.8614425  52.1206631  61.6703970
  23.4926260  45.2576268  69.5113888  24.3579257  45.0619077  69.1519778
  23.5603769  45.0286620  70.4383245  27.9223420  50.6668587  62.8730690
  27.6173555  50.9814736  63.7240833  28.8753862  50.7450006  62.9158023
  21.4258166  49.5182937  60.9026140  20.5895479  49.8557624  61.2235415
  21.2862936  49.3831917  59.9653277  23.4011247  44.3619725  65.6105324
  22.7475659  44.0468742  64.9861939  23.3591721  43.7395465  66.3365147
  24.5122452  54.6439020  57.5258617  23.6049514  54.4128274  57.7249766
  25.0093484  53.8476639  57.7132598  27.4190531  63.3536527  60.4455303
  26.7452229  63.6568224  61.0540261  27.8056353  64.1565608  60.0960760
  25.6910685  54.7451615  62.0482607  24.7821905  54.4610648  62.1455076
  25.7205769  55.1650694  61.1885913  29.9674500  42.0626442  67.6416211
  30.2733376  41.2023806  67.3542126  30.6927104  42.6544063  67.4415205
  16.2598856  52.4657129  66.0297809  16.0623255  51.8726490  65.3048875
  15.7045520  52.1609339  66.7473748  25.3886773  56.2860359  59.3870685
  24.9506203  55.5696218  58.9276323  26.1297214  56.5136473  58.8255777
  21.6702014  48.5475651  71.5244016  22.3101393  48.4064410  70.8266979
  20.8379545  48.2610164  71.1482618  18.7545081  51.9921163  63.7138761
  17.8242669  51.9305618  63.9308723  18.8502553  51.4697116  62.9175402
  18.6730630  48.5175976  66.3017003  18.9337448  49.4321309  66.1926163
  19.4947803  48.0500418  66.4513615  20.1455556  49.9313733  73.4715827
  20.8178609  49.7231095  72.8228476  19.3185342  49.7335819  73.0321059
  25.6181746  63.5216200  62.6602382  25.7933502  63.0504243  63.4748005
  24.9314534  64.1481966  62.8883643  29.5098001  55.1444740  58.9802743
  28.8927171  54.4191568  58.8835795  29.0414489  55.9054101  58.6369817
  21.2996547  49.3630165  58.1024047  20.4226013  49.2418965  57.7386294
  21.7754300  48.5716243  57.8502936  12.8198687  54.1507324  68.1965554
  13.5069727  53.8369054  67.6086570  12.6646815  55.0548689  67.9232806
  17.6233409  49.0397521  72.6250578  17.5391598  48.4323190  71.8900988
  16.8016115  49.5306539  72.6260074  22.2081290  60.1265962  74.8147476
  22.9090750  60.7602445  74.9676870  21.7376405  60.4680694  74.0543115
  17.8049008  59.6602317  71.7478578  18.3902445  58.9146005  71.8806482
  17.6073847  59.9706274  72.6315242  12.3966663  52.2307918  70.4683021
  12.4350762  51.6971508  71.2620139  11.8906956  51.7043123  69.8493999
  24.7992932  64.7297308  73.3623679  25.3511240  64.8928930  74.1272764
  25.1399125  65.3201746  72.6903704  19.7757425  47.0772458  73.9645564
  19.8398752  47.9387289  73.5522961  19.7124545  46.4646460  73.2317922
  16.0275240  50.9572020  63.5436953  16.3228682  50.0482698  63.4904006
  15.1263276  50.9359759  63.2217955  19.5569487  49.0328016  69.5264501
  18.8356073  49.6463984  69.3871975  20.3462743  49.5685781  69.4481147
  17.7563082  48.6386117  63.6676278  17.4275788  47.7583496  63.4851384
  18.1102453  48.5833786  64.5552667  20.8704905  48.9259087  64.0351756
  21.2100978  49.4545009  63.3130364  21.3177026  49.2639493  64.8110322
  23.5648346  47.3096138  73.4854824  23.2245166  46.5103951  73.8875504
  22.8587352  47.6097849  72.9131657  24.2164818  44.3945450  71.9382147
  25.0390887  43.9205929  71.8161037  24.4602881  45.1735934  72.4380833
  22.8573052  47.4233709  62.2345048  23.5781415  47.8014962  61.7308765
  22.2338356  48.1422586  62.3380026  27.0004175  48.1278858  63.1703381
  27.2167790  49.0103496  62.8692209  26.5198242  47.7365071  62.4409023
  16.2149059  53.6269915  72.6861786  15.6702527  54.4029723  72.8182061
  17.0928409  53.9740720  72.5280908  25.8727866  44.6436410  68.2009305
  25.8949563  44.7075743  67.2461284  26.2895925  43.8040918  68.3949811
  17.0015081  52.7539812  75.5791943  16.2596817  52.9022447  76.1656574
  16.6807825  53.0148077  74.7158693  24.9458743  62.2955790  75.3772333
  25.2545870  62.0504937  76.2495033  25.7434225  62.5002428  74.8891204
  17.4471694  60.6405240  67.6102338  18.2729714  60.3409012  67.2300981
  17.0965746  59.8712863  68.0592127  15.6480299  58.5591567  68.5691272
  14.8112208  58.1313741  68.3875273  15.6203945  58.7524010  69.5062063
  19.7319367  54.5700810  64.1619541  19.4865409  53.6663140  64.3599751
  19.9015282  54.5717960  63.2199019  19.0015015  50.3029167  61.6605702
  18.3084260  50.3773522  61.0045738  18.7566767  49.5389511  62.1827219
  27.6728671  41.8624769  69.0645193  27.9530425  41.1947958  69.6905620
  28.4579278  42.0553864  68.5519857  25.4762140  61.0383762  60.6270220
  24.9036107  61.6573950  60.1740691  26.0494934  61.5883124  61.1610141
  31.3247416  60.6386783  58.7182749  31.2461048  60.3046647  59.6118507
  32.1457083  61.1308551  58.7174222  25.8608938  52.3744575  57.9686272
  26.8068043  52.2450783  58.0374690  25.4823183  51.6359237  58.4455700
  24.0451856  50.2994552  57.9041157  23.1383311  50.0027664  57.9803871
  24.3227837  50.0024370  57.0375443  14.9629796  51.6200915  68.3540204
  14.6432580  50.7666223  68.0614578  14.4163224  51.8349493  69.1098171
  25.6613921  44.8431441  64.0585399  24.8514650  44.4978526  64.4340645
  26.3498338  44.5338985  64.6473010  27.5904470  43.9209488  65.6809695
  28.1435508  44.3404942  66.3399718  27.8274556  42.9945236  65.7232651
  22.8150640  47.1581487  58.0453136  23.6769804  47.4836385  58.3048954
  23.0000984  46.3712983  57.5326202  14.8318056  55.2403826  70.3233325
  14.1381527  54.8257779  69.8103280  15.5791047  55.2824363  69.7266744
  16.7454798  55.1722080  68.1999340  16.7225487  55.2709768  67.2481223
  17.0555435  56.0187231  68.5216506  17.7592405  62.7717855  69.3316152
  17.6246873  62.0118256  68.7654150  17.3424467  63.4958755  68.8644941
  28.8951368  57.9554778  58.3392728  29.5987218  58.1604781  58.9550383
  28.1714017  58.5231540  58.6041811  30.8038066  58.3937308  60.3891188
  31.6383669  57.9618506  60.2068663  30.6422408  58.2219321  61.3168082
  30.4583958  54.8969421  61.7547527  30.4032761  54.7313692  60.8135971
  29.8330013  55.6045454  61.9109717  15.2476473  50.1337485  75.5808949
  15.8935336  49.6236439  76.0696174  15.0393624  50.8706167  76.1552374
  23.7680083  44.3977530  61.3332845  23.7558753  45.3419370  61.4901116
  24.6603505  44.2147675  61.0392307  21.9416045  64.3215434  72.7590523
  22.8443292  64.3539044  73.0757018  21.7153415  63.3915885  72.7736859
  27.5832203  40.9920306  65.5878782  26.8164598  40.4378793  65.7335465
  27.9942908  41.0642175  66.4492934  39.4322341  68.9106959  70.4846364
  40.0700751  68.7913706  69.7809705  39.3143184  69.8587803  70.5434317
  36.2412047  68.8634387  70.4207889  35.9030558  68.7475451  69.5328424
  37.1101815  68.4625552  70.4008895  32.0998863  70.7169863  66.4104780
  31.5363728  70.6259800  65.6421068  31.9851258  69.8969768  66.8907273
  36.7231830  70.0169238  76.3794095  36.7120471  69.6222037  75.5074598
  36.8852469  69.2835311  76.9727866  29.6463295  72.2121055  69.2489001
  30.4384586  71.8711879  68.8335300  29.8859945  72.3216030  70.1691154
  37.6798421  74.3840831  61.7219245  37.0286401  74.9694911  61.3353259
  38.4742784  74.9147026  61.7814282  31.6054048  71.4729968  62.1206379
  32.3784924  70.9258955  61.9819255  31.9579447  72.3374217  62.3320841
  33.4439091  72.8006350  75.3273279  33.1528957  73.7051981  75.2119945
  34.0796075  72.8422878  76.0417348  34.3695298  70.1783199  71.9174638
  34.9658870  69.9539221  71.2031601  34.4270269  69.4367944  72.5200086
  33.9420326  67.6322634  59.7524829  34.1945847  67.1104155  58.9908292
  33.0044885  67.4688780  59.8551513  39.1573686  72.0731263  62.2588229
  38.5219519  72.1465889  62.9709134  38.8271093  72.6624862  61.5807309
  44.3872036  66.5733646  68.4632551  45.1197208  66.0032862  68.6970380
  43.6311392  66.1855246  68.9039057  33.6616615  69.5350740  61.9549204
  33.5452873  68.8595643  62.6230289  33.7718875  69.0483114  61.1381357
  36.0048156  68.9960887  65.6595893  35.6406363  68.4691508  66.3708815
  36.8615272  68.6059356  65.4862379  35.6453643  64.0250787  60.6557242
  35.8128045  64.8931023  61.0227713  35.4550812  64.1878069  59.7318531
  38.4028976  72.4867766  72.3223072  38.1029699  73.3892805  72.2138880
  38.0580036  72.2199949  73.1744225  31.8541458  68.9381563  68.3559777
  30.9291954  68.8057777  68.5637469  32.1025871  69.7175782  68.8529719
  35.6242864  66.4808444  61.6403909  35.5042489  66.9265495  62.4789389
  34.9295452  66.8293762  61.0817447  29.2150269  68.5814836  69.1903566
  29.3442650  68.8349315  70.1042978  28.5347720  69.1742544  68.8708221
  33.3849756  79.2512086  65.2894040  33.3073786  80.2019911  65.3682521
  32.7811399  78.9057959  65.9468966  35.8766986  66.4239952  77.9455407
  35.1000320  66.9833872  77.9358272  36.5157549  66.9096735  78.4670277
  41.3227930  66.9529918  62.4684243  42.2345786  67.1857304  62.2931940
  40.8137577  67.5366962  61.9059321  34.1313358  69.2325405  77.5073374
  34.8728042  69.7710449  77.2308198  33.4250343  69.8591694  77.6644926
  39.6068698  71.3754545  76.1045535  40.0152054  70.9336956  75.3600168
  38.8845959  70.8007173  76.3579728  35.9599768  66.3127152  73.4779092
  36.8060963  66.7366566  73.6213741  35.8998405  65.6560776  74.1717655
  39.9297512  71.9355736  69.8597824  39.3006375  72.1001450  69.1573892
  39.5423174  72.3497346  70.6308788  43.8086744  72.8710174  67.2142188
  43.1237782  73.2509075  66.6639221  43.8930593  73.4805501  67.9474136
  41.0637676  70.5170133  73.8137532  41.2754571  71.1601893  73.1371913
  41.0167424  69.6832449  73.3459462  35.4825474  71.6730144  67.1247909
  35.9463820  71.9517847  66.3352532  35.2182272  70.7713589  66.9421000
  32.3749555  71.2201626  70.0627673  32.9450912  71.6488894  69.4245157
  32.9657667  70.9384210  70.7611858  34.4194360  67.7953296  63.9337475
  35.1218404  68.2474340  64.4011401  34.0874989  67.1537115  64.5617368
  32.8674722  66.3865053  78.3088684  32.2373382  67.0681334  78.5424081
  32.7610810  66.2748135  77.3641822  42.1783504  73.3942088  71.9859889
  43.0000947  72.9922276  71.7042571  42.1745907  73.2910322  72.9376005
  30.1134440  66.4181428  66.1938085  29.3165603  66.5300123  66.7121580
  29.8860032  66.7568081  65.3278975  35.9440107  72.9426132  74.1420599
  36.0084540  73.4046539  74.9778771  35.2351031  72.3123497  74.2702909
  26.4457397  66.3067340  71.6669599  26.6965436  67.1914349  71.9327175
  26.9816946  66.1271941  70.8944691  50.2689497  69.7380837  68.3344860
  49.5153205  69.1688235  68.1788865  50.4037038  69.7043501  69.2815495
  35.6588125  74.6094239  64.0099580  35.5233800  75.4545775  64.4384428
  36.1997937  74.8113517  63.2465514  29.1117522  72.1269677  64.5827505
  29.6242043  72.9212927  64.7333070  29.7640235  71.4295968  64.5161106
  30.9212407  75.2435433  66.6650258  31.0979035  76.1653398  66.4771242
  31.7169240  74.9293853  67.0944638  30.2064763  67.2900065  76.5412421
  30.0918279  66.3885323  76.8419520  29.3509281  67.5363762  76.1897238
  37.2856601  75.2317806  78.1399922  36.8420455  74.4454184  77.8220826
  37.9473815  75.4196956  77.4743813  32.0443722  76.7613607  72.6660600
  32.5951148  76.6330671  71.8937594  31.2055198  77.0608496  72.3155493
  39.3837839  75.5120606  76.1681323  39.3656315  76.3329487  75.6761592
  40.3057759  75.3874681  76.3931464  35.8410893  73.0264735  77.0104831
  36.3739230  72.2653023  76.7804139  35.3124975  72.7338387  77.7528986
  27.0766439  70.4558331  65.3587075  27.9141661  70.8655340  65.1420783
  27.2544707  69.5157774  65.3287269  38.9730871  68.1233412  61.0470908
  38.4577495  68.8938017  61.2859296  38.7008180  67.4498548  61.6703970
  43.9465145  70.8765767  62.9824082  43.1694588  70.5376926  62.5379244
  44.6256626  70.8818390  62.3079047  38.7617174  65.9960504  62.8730690
  38.4567310  66.3106653  63.7240833  39.7147616  66.0741924  62.9158023
  37.2063606  72.1550727  64.5223644  36.6784968  71.4203487  64.2096881
  36.7051109  72.9325404  64.2763612  42.1856452  70.3499748  69.6390690
  41.5280127  71.0399009  69.7270818  42.9896851  70.7396180  69.9824676
  40.9961911  68.7044121  67.6894632  41.5093793  69.3374113  68.1916341
  41.6463135  68.1045316  67.3237992  32.2651921  64.8474855  60.9026140
  31.4289233  65.1849541  61.2235415  32.1256690  64.7123835  59.9653277
  35.3516206  69.9730938  57.5258617  34.4443268  69.7420191  57.7249766
  35.8487238  69.1768557  57.7132598  38.2584285  78.6828445  60.4455303
  37.5845984  78.9860142  61.0540261  38.6450107  79.4857525  60.0960760
  38.2577790  67.5784992  65.0655652  39.0049609  68.0906389  64.7562774
  38.5269379  67.2569045  65.9260046  36.5304440  70.0743533  62.0482607
  35.6215659  69.7902565  62.1455076  36.5599524  70.4942611  61.1885913
  41.7623707  73.6850122  65.8173774  41.3086034  72.8441032  65.8738965
  41.1317674  74.3211520  66.1548554  40.2056646  75.5226619  66.7523592
  40.4979621  76.0831676  66.0335958  40.7155267  75.8155180  67.5076751
  36.2280528  71.6152276  59.3870685  35.7899957  70.8988135  58.9276323
  36.9690968  71.8428391  58.8255777  35.1690272  76.3006970  67.8417046
  35.1266450  76.5267816  66.9125578  36.0852970  76.0670344  67.9902847
  44.3453642  69.8909473  65.4447004  44.2071541  70.0811069  64.5168193
  43.9889861  70.6528856  65.9015055  44.3723022  71.9586000  70.4558275
  44.8059529  71.8661289  71.3041329  45.0854603  71.9343501  69.8178291
  33.2856072  73.1769999  67.6379008  34.0796671  72.6820319  67.4361583
  32.5747765  72.6487862  67.2746714  38.1050917  75.5588094  71.9891376
  38.1587939  76.1279031  72.7569092  37.2365698  75.7289979  71.6245413
  29.5938836  67.3213081  63.7138761  28.6636424  67.2597536  63.9308723
  29.6896308  66.7989033  62.9175402  30.9849310  65.2605651  73.4715827
  31.6572364  65.0523013  72.8228476  30.1579097  65.0627737  73.0321059
  45.2338572  72.0009701  72.9891161  45.4274462  72.9055511  73.2350436
  45.1339190  71.5417120  73.8229746  40.2953680  72.1516444  78.5632041
  40.1439187  71.9226995  77.6462125  40.2858360  73.1087045  78.5763386
  37.0639017  69.7248356  73.5478308  37.9931077  69.8759516  73.3747275
  36.6430047  69.8132377  72.6926954  35.8627348  73.7499021  71.3176845
  35.7238434  73.3817805  72.1902783  35.0741945  74.2646660  71.1460803
  36.4575500  78.8508117  62.6602382  36.6327256  78.3796161  63.4748005
  35.7708288  79.4773884  62.8883643  37.4132564  73.1280624  68.7065683
  37.0782396  73.0881394  69.6023333  36.9136509  72.4625340  68.2336093
  31.3876807  68.5348254  74.2318264  31.2496605  67.8028492  74.8329803
  32.2981731  68.4457154  73.9502452  40.3491755  70.4736658  58.9802743
  39.7320926  69.7483486  58.8835795  39.8808244  71.2346018  58.6369817
  34.0159108  68.2468213  73.7201944  34.7258727  67.6061405  73.6788562
  33.9728416  68.4981108  74.6428125  42.0045887  75.1835566  76.6408523
  41.9458433  74.4994786  75.9739106  42.4065405  75.9254556  76.1889149
  31.0236586  81.9997480  69.4342242  31.2633184  82.6316004  70.1121261
  30.1805782  81.6485520  69.7207601  32.1390301  64.6922082  58.1024047
  31.2619767  64.5710883  57.7386294  32.6148054  63.9008161  57.8502936
  42.0063294  73.1475150  74.8722503  41.1190073  72.8101072  74.9948902
  42.5761845  72.4158181  75.1091268  28.4627163  64.3689439  72.6250578
  28.3785352  63.7615108  71.8900988  27.6409870  64.8598457  72.6260074
  35.5364447  77.8076603  71.8383746  35.4634619  78.6131574  72.3503051
  35.0941841  78.0068568  71.0131767  35.3254227  77.0448373  65.3486568
  34.5421749  77.5870053  65.4424792  36.0246972  77.5622352  65.7480809
  46.4880635  68.5583368  69.6339064  46.4770511  69.4408083  69.2632998
  45.6198014  68.2054918  69.4393602  37.9963131  77.7063437  73.9941905
  38.7091103  78.3410901  73.9217806  37.5053160  77.8027303  73.1781907
  39.7180658  71.6114689  65.5659196  38.7836937  71.7316152  65.3963901
  39.8957326  70.7087156  65.3019206  43.1053209  67.4532009  66.1009231
  43.5713661  68.2860000  66.0269533  43.5560710  66.9876990  66.8054489
  33.0475045  75.4557880  74.8147476  33.7484504  76.0894363  74.9676870
  32.5770160  75.7972612  74.0543115  41.1729440  73.7975830  63.0995383
  41.4489284  73.6832424  64.0089257  40.3033939  73.3993315  63.0607556
  40.8476331  68.0102488  72.6400026  40.1947781  68.2578395  71.9852479
  41.2256710  67.1966626  72.3062503  37.8083504  78.0462181  66.7428196
  37.9905899  77.2283837  67.2055948  38.6316490  78.2629873  66.3053086
  38.1425670  76.9730366  64.0043245  38.6713436  76.4622820  63.3913407
  38.4053889  76.6572896  64.8688778  36.8963904  68.7522299  79.1266063
  36.2204541  68.6516428  79.7968438  37.7191537  68.5961512  79.5902060
  28.6442763  74.9894235  71.7478578  29.2296199  74.2437923  71.8806482
  28.4467601  75.2998192  72.6315242  31.4981418  78.0245483  66.7641021
  30.8291793  78.5091610  66.2805061  31.3594288  78.2714703  67.6784399
  35.6386686  80.0589226  73.3623679  36.1904994  80.2220848  74.1272764
  35.9792880  80.6493664  72.6903704  40.4897561  74.8850484  79.2172333
  41.0337465  75.4980442  78.7227288  39.9084406  75.4430062  79.7339346
  26.8668995  66.2863937  63.5436953  27.1622436  65.3774616  63.4904006
  25.9657031  66.2651677  63.2217955  38.7755074  78.0071202  70.3487361
  38.6506213  77.2060941  69.8398307  39.4334165  78.5017395  69.8601331
  40.8389982  75.8080222  71.9766911  39.8920318  75.6885573  71.9045238
  41.1872755  74.9202720  72.0593173  37.8436415  75.6032938  68.1771263
  37.6961378  74.6749645  68.3578833  38.6689909  75.6253029  67.6928339
  41.4470537  76.4261497  69.2636136  42.3717085  76.2204358  69.1260587
  41.2785841  76.1777898  70.1725478  41.2365853  76.9447164  64.6198228
  41.4102731  76.3793587  63.8672080  41.7294745  77.7448059  64.4377718
  27.0542813  68.9561833  72.6861786  26.5096281  69.7321641  72.8182061
  27.9322163  69.3032638  72.5280908  47.0905245  69.7083587  66.2388527
  47.5336391  68.9590912  65.8407651  46.2131755  69.6993723  65.8562259
  42.2241026  76.2613928  61.7195126  42.9191931  76.8820621  61.9382441
  42.5664176  75.4109280  61.9947504  27.8408835  68.0831729  75.5791943
  27.0990571  68.2314365  76.1656574  27.5201579  68.3439995  74.7158693
  44.1232449  73.7113634  63.2482457  44.6483773  74.0500907  62.5231777
  44.0354802  72.7760649  63.0645591  35.7852498  77.6247708  75.3772333
  36.0939624  77.3796854  76.2495033  36.5827980  77.8294346  74.8891204
  35.8073110  79.7785617  67.6077710  35.3678100  79.2861996  68.3010567
  36.5581227  79.2358585  67.3669785  28.2865449  75.9697158  67.6102338
  29.1123469  75.6700930  67.2300981  27.9359501  75.2004781  68.0592127
  33.2546982  75.3223626  69.6800012  32.6326991  74.6594331  69.3802239
  33.9251849  75.3484758  68.9973659  26.4874054  73.8883485  68.5691272
  25.6505962  73.4605659  68.3875273  26.4597699  74.0815928  69.5062063
  43.8126355  74.3446538  78.5533655  43.0221899  74.3270676  78.0138154
  43.5759710  74.8834831  79.3082691  43.9324230  71.1939004  75.8666383
  43.9822235  71.0289011  76.8081906  43.8238153  70.3266263  75.4764264
  32.8160489  73.8727550  63.1558472  32.9648609  74.5563014  62.5025145
  33.6226932  73.8532640  63.6707928  45.4342427  73.6135946  76.1108405
  45.1427235  73.9765926  76.9471866  44.8214558  72.9002954  75.9321737
  46.6338109  71.1788825  68.6310975  47.4685001  71.6178629  68.7948535
  46.7697238  70.7027478  67.8119221  43.6829615  68.7368560  74.5788463
  44.1583737  68.9296206  73.7707314  42.7595181  68.7927746  74.3331846
  30.5713122  69.8992727  64.1619541  30.3259164  68.9955057  64.3599751
  30.7409036  69.9009878  63.2199019  29.8408769  65.6321085  61.6605702
  29.1478014  65.7065440  61.0045738  29.5960521  64.8681429  62.1827219
  36.3155894  76.3675680  60.6270220  35.7429861  76.9865867  60.1740691
  36.8888688  76.9175042  61.1610141  39.5353154  76.6512830  61.7578802
  40.4683827  76.5858392  61.9611677  39.4476367  77.4869097  61.2993334
  42.1641171  75.9678701  58.7182749  42.0854802  75.6338564  59.6118507
  42.9850838  76.4600469  58.7174222  44.8619362  68.8340440  71.9259068
  44.8295682  67.8956441  72.1118752  45.4719986  68.9124477  71.1924893
  36.7002693  67.7036493  57.9686272  37.6461798  67.5742701  58.0374690
  36.3216938  66.9651155  58.4455700  50.6795912  69.8956447  71.0665105
  51.4099300  69.6341735  71.6272808  50.0702857  69.1585169  71.1067173
  36.5841385  71.7554239  79.4286929  37.5044395  71.9332838  79.6226975
  36.5490968  70.8110284  79.2766628  34.8845610  65.6286469  57.9041157
  33.9777065  65.3319582  57.9803871  35.1621591  65.3316287  57.0375443
  29.5803458  69.6655274  72.0709710  29.7989468  70.5972381  72.0897744
  29.9929232  69.3063248  72.8564514  33.6544395  62.4873404  58.0453136
  34.5163559  62.8128303  58.3048954  33.8394739  61.7004900  57.5326202
  25.6711810  70.5695744  70.3233325  24.9775282  70.1549697  69.8103280
  26.4184801  70.6116281  69.7266744  34.3162593  68.6685618  80.2777521
  33.8329675  69.4685978  80.4841410  34.4023532  68.6793563  79.3244965
  27.5848553  70.5013998  68.1999340  27.5619241  70.6001685  67.2481223
  27.8949189  71.3479149  68.5216506  30.2435931  72.5590153  72.3145955
  31.1979184  72.5274095  72.2475886  30.0448454  72.0980777  73.1296180
  30.8335313  71.1291269  74.8816752  31.6528202  71.6235348  74.9051589
  31.1072121  70.2123237  74.8534320  28.5986160  78.1009772  69.3316152
  28.4640628  77.3410173  68.7654150  28.1818222  78.8250672  68.8644941
  39.7345123  73.2846696  58.3392728  40.4380973  73.4896699  58.9550383
  39.0107771  73.8523458  58.6041811  40.5642933  69.0356557  64.4594998
  40.5078134  69.4925109  63.6202630  41.1171275  68.2747242  64.2817841
  31.7555285  78.9979089  69.5434595  31.6387670  79.9424522  69.4413285
  30.9347732  78.6952651  69.9320394  41.6431820  73.7229225  60.3891188
  42.4777424  73.2910424  60.2068663  41.4816163  73.5511239  61.3168082
  41.2977712  70.2261339  61.7547527  41.2426516  70.0605610  60.8135971
  40.6723767  70.9337371  61.9109717  26.0870227  65.4629403  75.5808949
  26.7329091  64.9528357  76.0696174  25.8787378  66.1998085  76.1552374
  38.6123619  72.5310250  81.0801090  39.4814779  72.7050903  80.7187725
  38.1330371  73.3504667  80.9576819  32.7809800  79.6507351  72.7590523
  33.6837046  79.6830962  73.0757018  32.5547170  78.7207802  72.7736859
  34.5363402  78.4038338  69.4200602  33.5859033  78.4040200  69.3064974
  34.8395888  77.6571072  68.9036637  50.2716095  84.2398876  70.4846364
  50.9094505  84.1205624  69.7809705  50.1536938  85.1879720  70.5434317
  47.0805801  84.1926304  70.4207889  46.7424313  84.0767369  69.5328424
  47.9495570  83.7917470  70.4008895  47.5625584  85.3461156  76.3794095
  47.5514225  84.9513954  75.5074598  47.7246224  84.6127229  76.9727866
  40.4857049  87.5412972  69.2489001  41.2778341  87.2003797  68.8335300
  40.7253699  87.6507947  70.1691154  42.4447803  86.8021886  62.1206379
  43.2178679  86.2550873  61.9819255  42.7973202  87.6666135  62.3320841
  44.2832846  88.1298268  75.3273279  43.9922711  89.0343899  75.2119945
  44.9189830  88.1714796  76.0417348  45.2089052  85.5075116  71.9174638
  45.8052625  85.2831139  71.2031601  45.2664024  84.7659862  72.5200086
  49.8257364  81.9650330  67.5599573  50.6120453  81.5469753  67.2089990
  50.0896068  82.8696422  67.7281221  49.2422731  87.8159683  72.3223072
  48.9423454  88.7184722  72.2138880  48.8973790  87.5491867  73.1744225
  40.0544023  83.9106754  69.1903566  40.1836404  84.1641233  70.1042978
  39.3741474  84.5034462  68.8708221  44.2243510  94.5804004  65.2894040
  44.1467540  95.5311829  65.3682521  43.6205154  94.2349876  65.9468966
  46.7160740  81.7531869  77.9455407  45.9394074  82.3125789  77.9358272
  47.3551303  82.2388652  78.4670277  44.9707112  84.5617323  77.5073374
  45.7121797  85.1002367  77.2308198  44.2644098  85.1883611  77.6644926
  46.7993522  81.6419070  73.4779092  47.6454717  82.0658483  73.6213741
  46.7392160  80.9852694  74.1717655  49.5057659  78.4579871  70.7174104
  48.6442138  78.7561125  71.0090841  49.5320094  78.6750270  69.7855136
  43.7068476  81.7156971  78.3088684  43.0767137  82.3973252  78.5424081
  43.6004564  81.6040052  77.3641822  39.0013449  81.3828767  69.2354608
  38.2112503  81.6386295  68.7594719  39.4924696  82.1977105  69.3406649
  40.9528194  81.7473346  66.1938085  40.1559357  81.8592040  66.7121580
  40.7253786  82.0859998  65.3278975  46.7833862  88.2718049  74.1420599
  46.8478294  88.7338457  74.9778771  46.0744786  87.6415414  74.2702909
  37.2851152  81.6359257  71.6669599  37.5359190  82.5206267  71.9327175
  37.8210700  81.4563859  70.8944691  42.9849219  76.0177737  80.6713935
  42.5916165  75.4643935  81.3461579  43.8015359  76.3288315  81.0620453
  39.9511277  87.4561595  64.5827505  40.4635797  88.2504845  64.7333070
  40.6033990  86.7587885  64.5161106  41.7606161  90.5727351  66.6650258
  41.9372790  91.4945316  66.4771242  42.5562995  90.2585770  67.0944638
  45.9017180  77.4335616  78.2634192  46.6426893  78.0342769  78.1838654
  46.1335103  76.6913254  77.7052234  41.0458518  82.6191983  76.5412421
  40.9312033  81.7177240  76.8419520  40.1903036  82.8655680  76.1897238
  48.1250356  90.5609723  78.1399922  47.6814210  89.7746102  77.8220826
  48.7867569  90.7488874  77.4743813  42.8837477  92.0905525  72.6660600
  43.4344902  91.9622588  71.8937594  42.0448953  92.3900414  72.3155493
  50.2231594  90.8412523  76.1681323  50.2050069  91.6621404  75.6761592
  51.1451514  90.7166598  76.3931464  46.6804648  88.3556653  77.0104831
  47.2132985  87.5944941  76.7804139  46.1518729  88.0630305  77.7528986
  49.8474343  73.4616719  72.5398473  49.5038612  74.3518360  72.4637584
  50.2153305  73.2718376  71.6768058  37.9160193  85.7850249  65.3587075
  38.7535415  86.1947257  65.1420783  38.0938461  84.8449691  65.3287269
  47.3971737  78.2975031  66.1056147  46.5413333  77.9081881  65.9261785
  47.8098688  78.3766991  65.2455932  48.9270883  75.8321374  70.5047706
  48.4235679  75.7951509  69.6915512  49.2201490  76.7414117  70.5644363
  45.1713769  75.9160104  69.5113888  46.0366766  75.7202912  69.1519778
  45.2391278  75.6870455  70.4383245  42.7776088  78.1462311  66.8830255
  43.3519840  77.9237493  66.1503448  43.3647071  78.2151006  67.6358856
  43.1045675  80.1766772  60.9026140  42.2682988  80.5141459  61.2235415
  42.9650445  80.0415752  59.9653277  45.0798756  75.0203560  65.6105324
  44.4263168  74.7052578  64.9861939  45.0379230  74.3979301  66.3365147
  48.3136496  81.5085494  69.9352972  47.3959058  81.7300441  69.7774660
  48.7296640  81.5831804  69.0764679  51.6462009  72.7210278  67.6416211
  51.9520885  71.8607641  67.3542126  52.3714613  73.3127898  67.4415205
  37.9386365  83.1240964  66.0297809  37.7410764  82.5310325  65.3048875
  37.3833029  82.8193175  66.7473748  43.3489523  79.2059486  71.5244016
  43.9888902  79.0648245  70.8266979  42.5167054  78.9194000  71.1482618
  40.4332590  82.6504998  63.7138761  39.5030178  82.5889454  63.9308723
  40.5290062  82.1280951  62.9175402  40.3518139  79.1759811  66.3017003
  40.6124957  80.0905144  66.1926163  41.1735312  78.7084254  66.4513615
  41.8243065  80.5897568  73.4715827  42.4966118  80.3814930  72.8228476
  40.9972851  80.3919654  73.0321059  47.7268637  77.2159509  75.4881488
  47.0796552  77.9149459  75.3945964  48.4969652  77.6495653  75.8557736
  51.1347435  87.4808361  78.5632041  50.9832941  87.2518913  77.6462125
  51.1252114  88.4378963  78.5763386  47.9032771  85.0540274  73.5478308
  48.8324831  85.2051434  73.3747275  47.4823801  85.1424295  72.6926954
  47.2969255  94.1800035  62.6602382  47.4721011  93.7088078  63.4748005
  46.6102043  94.8065801  62.8883643  42.2270562  83.8640171  74.2318264
  42.0890360  83.1320410  74.8329803  43.1375485  83.7749071  73.9502452
  44.8552863  83.5760131  73.7201944  45.5652481  82.9353323  73.6788562
  44.8122171  83.8273025  74.6428125  52.8439641  90.5127484  76.6408523
  52.7852187  89.8286704  75.9739106  53.2459160  91.2546474  76.1889149
  43.5681797  80.5625349  75.5397583  43.0319154  80.1116087  76.1919180
  42.9798505  80.6971257  74.7968048  41.8630340  97.3289398  69.4342242
  42.1026938  97.9607922  70.1121261  41.0199537  96.9777438  69.7207601
  42.9784056  80.0214000  58.1024047  42.1013522  79.9002801  57.7386294
  43.4541809  79.2300078  57.8502936  52.8457049  88.4767068  74.8722503
  51.9583827  88.1392990  74.9948902  53.4155600  87.7450099  75.1091268
  34.4986196  84.8091160  68.1965554  35.1857236  84.4952890  67.6086570
  34.3434324  85.7132524  67.9232806  39.3020918  79.6981356  72.6250578
  39.2179107  79.0907026  71.8900988  38.4803624  80.1890375  72.6260074
  46.3758202  93.1368520  71.8383746  46.3028373  93.9423492  72.3503051
  45.9335595  93.3360486  71.0131767  49.4744632  78.1834920  67.9920773
  49.9713331  77.4304882  67.6721843  48.7031613  78.2199236  67.4263982
  48.8356885  93.0355354  73.9941905  49.5484858  93.6702819  73.9217806
  48.3446914  93.1319220  73.1781907  46.0579600  80.3252303  67.7192458
  45.6877388  79.7723343  68.4073363  46.5538693  79.7210436  67.1667458
  43.8868799  90.7849798  74.8147476  44.5878259  91.4186281  74.9676870
  43.4163914  91.1264529  74.0543115  47.7357658  84.0814216  79.1266063
  47.0598295  83.9808346  79.7968438  48.5585292  83.9253430  79.5902060
  39.4836517  90.3186153  71.7478578  40.0689954  89.5729841  71.8806482
  39.2861356  90.6290110  72.6315242  42.3375172  93.3537400  66.7641021
  41.6685548  93.8383528  66.2805061  42.1988042  93.6006621  67.6784399
  34.0754172  82.8891753  70.4683021  34.1138271  82.3555344  71.2620139
  33.5694465  82.3626959  69.8493999  46.4780441  95.3881144  73.3623679
  47.0298749  95.5512765  74.1272764  46.8186634  95.9785582  72.6903704
  41.4544934  77.7356294  73.9645564  41.5186261  78.5971124  73.5522961
  41.3912054  77.1230295  73.2317922  40.9297207  79.8079426  77.6118598
  41.5569245  79.4256503  78.2256122  40.0725126  79.5893628  77.9774290
  51.3291315  90.2142401  79.2172333  51.8731219  90.8272359  78.7227288
  50.7478160  90.7721980  79.7339346  37.7062749  81.6155855  63.5436953
  38.0016190  80.7066534  63.4904006  36.8050785  81.5943595  63.2217955
  41.2356996  79.6911852  69.5264501  40.5143582  80.3047819  69.3871975
  42.0250252  80.2269617  69.4481147  44.0383310  77.0266278  75.8005153
  44.5617712  77.2728575  76.5631462  43.8195643  77.8586313  75.3808290
  39.4350591  79.2969953  63.6676278  39.1063297  78.4167332  63.4851384
  39.7889962  79.2417622  64.5552667  42.5492414  79.5842923  64.0351756
  42.8888487  80.1128844  63.3130364  42.9964535  79.9223329  64.8110322
  45.2435855  77.9679973  73.4854824  44.9032675  77.1687786  73.8875504
  44.5374861  78.2681684  72.9131657  45.8952327  75.0529286  71.9382147
  46.7178396  74.5789764  71.8161037  46.1390390  75.8319770  72.4380833
  44.5360561  78.0817544  62.2345048  45.2568924  78.4598797  61.7308765
  43.9125865  78.8006421  62.3380026  43.4190906  81.7448406  69.7474125
  43.2735486  82.0588709  70.6398407  42.9416109  82.3633307  69.1945024
  45.2787288  78.7350954  69.7955015  45.2648857  77.8392048  69.4587313
  45.9959717  78.7421618  70.4293301  47.1313419  79.1688295  71.8408142
  46.8731197  80.0905365  71.8392473  46.5998460  78.7718729  72.5308606
  37.8936568  84.2853751  72.6861786  37.3490036  85.0613559  72.8182061
  38.7715918  84.6324555  72.5280908  44.6824184  77.6165335  65.0642585
  44.8040096  76.6881981  65.2633472  44.3926227  77.6304021  64.1520900
  47.5515375  75.3020245  68.2009305  47.5737072  75.3659578  67.2461284
  47.9683434  74.4624754  68.3949811  38.6802590  83.4123647  75.5791943
  37.9384326  83.5606282  76.1656574  38.3595334  83.6731913  74.7158693
  46.6246252  92.9539625  75.3772333  46.9333379  92.7088772  76.2495033
  47.4221734  93.1586264  74.8891204  46.6466864  95.1077535  67.6077710
  46.2071855  94.6153914  68.3010567  47.3974981  94.5650503  67.3669785
  39.1259203  91.2989076  67.6102338  39.9517223  90.9992848  67.2300981
  38.7753255  90.5296698  68.0592127  44.0940736  90.6515544  69.6800012
  43.4720746  89.9886249  69.3802239  44.7645603  90.6776676  68.9973659
  37.3267808  89.2175402  68.5691272  36.4899717  88.7897577  68.3875273
  37.2991454  89.4107846  69.5062063  44.1665264  79.1297332  79.2732518
  44.2153419  80.0059455  78.8910287  44.7087778  78.5874725  78.7004161
  54.6520110  89.6738455  78.5533655  53.8615653  89.6562594  78.0138154
  54.4153464  90.2126749  79.3082691  46.3964552  79.8828704  76.0278876
  45.5267862  80.1762271  75.7561465  46.6324033  80.4669149  76.7486140
  49.1003586  76.1008321  73.5444297  49.6185530  76.8369348  73.2190785
  48.7458719  76.4072315  74.3791056  40.6802524  80.9613003  61.6605702
  39.9871769  81.0357358  61.0045738  40.4354276  80.1973346  62.1827219
  49.3516180  72.5208604  69.0645193  49.6317934  71.8531793  69.6905620
  50.1366787  72.7137700  68.5519857  47.1549649  91.6967598  60.6270220
  46.5823616  92.3157785  60.1740691  47.7282443  92.2466960  61.1610141
  47.4235140  87.0846157  79.4286929  48.3438149  87.2624756  79.6226975
  47.3884723  86.1402202  79.2766628  36.6417305  82.2784750  68.3540204
  36.3220089  81.4250059  68.0614578  36.0950733  82.4933329  69.1098171
  40.4197212  84.9947191  72.0709710  40.6383222  85.9264299  72.0897744
  40.8322986  84.6355166  72.8564514  47.3401430  75.5015277  64.0585399
  46.5302159  75.1562362  64.4340645  48.0285847  75.1922820  64.6473010
  49.2691979  74.5793323  65.6809695  49.8223017  74.9988777  66.3399718
  49.5062065  73.6529072  65.7232651  45.2925078  80.5680397  81.4612459
  45.1921805  81.5174754  81.3924550  45.0746620  80.2398636  80.5888529
  44.4938149  77.8165322  58.0453136  45.3557313  78.1420220  58.3048954
  44.6788493  77.0296818  57.5326202  36.5105565  85.8987662  70.3233325
  35.8169036  85.4841615  69.8103280  37.2578556  85.9408198  69.7266744
  52.6470786  76.6893849  65.1888359  52.0669455  77.3478653  64.8066412
  52.3806718  75.8671193  64.7775777  51.0974352  76.0898906  67.3909680
  51.5974130  76.2015441  66.5823999  51.7409960  75.7859959  68.0310488
  45.1556348  83.9977536  80.2777521  44.6723430  84.7977896  80.4841410
  45.2417287  84.0085481  79.3244965  38.4242307  85.8305916  68.1999340
  38.4012996  85.9293603  67.2481223  38.7342944  86.6771066  68.5216506
  41.0829685  87.8882071  72.3145955  42.0372939  87.8566013  72.2475886
  40.8842209  87.4272694  73.1296180  41.6729067  86.4583187  74.8816752
  42.4921956  86.9527265  74.9051589  41.9465875  85.5415155  74.8534320
  39.4379914  93.4301690  69.3316152  39.3034382  92.6702091  68.7654150
  39.0211976  94.1542590  68.8644941  42.5949040  94.3271007  69.5434595
  42.4781424  95.2716440  69.4413285  41.7741486  94.0244569  69.9320394
  36.9263982  80.7921321  75.5808949  37.5722845  80.2820275  76.0696174
  36.7181133  81.5290002  76.1552374  49.4517374  87.8602168  81.0801090
  50.3208533  88.0342820  80.7187725  48.9724125  88.6796585  80.9576819
  45.4467592  75.0561365  61.3332845  45.4346262  76.0003205  61.4901116
  46.3391014  74.8731511  61.0392307  43.6203554  94.9799269  72.7590523
  44.5230801  95.0122879  73.0757018  43.3940924  94.0499720  72.7736859
  45.3757156  93.7330256  69.4200602  44.4252787  93.7332117  69.3064974
  45.6789642  92.9862990  68.9036637  49.2619712  71.6504142  65.5878782
  48.4952107  71.0962629  65.7335465  49.6730417  71.7226011  66.4492934
  41.2661473  77.9388938  79.6783963  42.1292934  77.5825742  79.8887288
  40.6926883  77.6002832  80.3659368  57.9199556  99.5218222  70.4207889
  57.5818067  99.4059287  69.5328424  58.7889324  99.1209387  70.4008895
  58.4019339 100.6753074  76.3794095  58.3907980 100.2805872  75.5074598
  58.5639978  99.9419146  76.9727866  55.1226600 103.4590186  75.3273279
  54.8316466 104.3635816  75.2119945  55.7583584 103.5006713  76.0417348
  56.0482807 100.8367034  71.9174638  56.6446379 100.6123057  71.2031601
  56.1057778 100.0951780  72.5200086  60.0816485 103.1451601  72.3223072
  59.7817208 104.0476640  72.2138880  59.7367545 102.8783784  73.1744225
  55.0637265 109.9095921  65.2894040  54.9861295 110.8603747  65.3682521
  54.4598908 109.5641794  65.9468966  57.5554495  97.0823787  77.9455407
  56.7787829  97.6417707  77.9358272  58.1945058  97.5680570  78.4670277
  55.8100867  99.8909240  77.5073374  56.5515551 100.4294284  77.2308198
  55.1037852 100.5175529  77.6644926  61.2856207 102.0338381  76.1045535
  61.6939563 101.5920791  75.3600168  60.5633468 101.4591008  76.3579728
  57.6387277  96.9710988  73.4779092  58.4848472  97.3950401  73.6213741
  57.5785914  96.3144612  74.1717655  62.7425185 101.1753968  73.8137532
  62.9542080 101.8185728  73.1371913  62.6954933 100.3416285  73.3459462
  54.5462231  97.0448888  78.3088684  53.9160891  97.7265169  78.5424081
  54.4398319  96.9331970  77.3641822  63.8571013 104.0525924  71.9859889
  64.6788456 103.6506111  71.7042571  63.8533416 103.9494158  72.9376005
  57.6227616 103.6009967  74.1420599  57.6872049 104.0630374  74.9778771
  56.9138540 102.9707332  74.2702909  48.1244906  96.9651175  71.6669599
  48.3752945  97.8498185  71.9327175  48.6604455  96.7855776  70.8944691
  53.8242973  91.3469654  80.6713935  53.4309919  90.7935853  81.3461579
  54.6409114  91.6580233  81.0620453  51.8852272  97.9483901  76.5412421
  51.7705788  97.0469158  76.8419520  51.0296790  98.1947597  76.1897238
  58.9644110 105.8901641  78.1399922  58.5207964 105.1038020  77.8220826
  59.6261324 106.0780791  77.4743813  53.7231231 107.4197443  72.6660600
  54.2738656 107.2914506  71.8937594  52.8842707 107.7192332  72.3155493
  57.5198402 103.6848570  77.0104831  58.0526739 102.9236859  76.7804139
  56.9912484 103.3922222  77.7528986  63.8643961 101.0083583  69.6390690
  63.2067636 101.6982845  69.7270818  64.6684360 101.3980015  69.9824676
  59.9371794 109.3412280  60.4455303  59.2633493 109.6443977  61.0540261
  60.3237616 110.1441361  60.0960760  56.8477781 106.9590805  67.8417046
  56.8053959 107.1851652  66.9125578  57.7640479 106.7254180  67.9902847
  66.0510531 102.6169836  70.4558275  66.4847038 102.5245125  71.3041329
  66.7642112 102.5927336  69.8178291  59.7838426 106.2171930  71.9891376
  59.8375448 106.7862866  72.7569092  58.9153207 106.3873815  71.6245413
  52.6636819  95.9189486  73.4715827  53.3359873  95.7106848  72.8228476
  51.8366606  95.7211572  73.0321059  58.7426526 100.3832192  73.5478308
  59.6718586 100.5343351  73.3747275  58.3217556 100.4716213  72.6926954
  57.5414857 104.4082856  71.3176845  57.4025943 104.0401641  72.1902783
  56.7529454 104.9230496  71.1460803  58.1363009 109.5091953  62.6602382
  58.3114765 109.0379996  63.4748005  57.4495797 110.1357719  62.8883643
  53.0664316  99.1932089  74.2318264  52.9284114  98.4612328  74.8329803
  53.9769240  99.1040989  73.9502452  55.6946617  98.9052048  73.7201944
  56.4046236  98.2645241  73.6788562  55.6515925  99.1564943  74.6428125
  54.4075551  95.8917266  75.5397583  53.8712908  95.4408005  76.1919180
  53.8192260  96.0263175  74.7968048  52.7024095 112.6581315  69.4342242
  52.9420693 113.2899840  70.1121261  51.8593291 112.3069356  69.7207601
  45.3379950 100.1383077  68.1965554  46.0250990  99.8244807  67.6086570
  45.1828079 101.0424442  67.9232806  57.2151956 108.4660438  71.8383746
  57.1422128 109.2715409  72.3503051  56.7729350 108.6652404  71.0131767
  57.0041736 107.7032208  65.3486568  56.2209258 108.2453888  65.4424792
  57.7034481 108.2206188  65.7480809  59.6750640 108.3647272  73.9941905
  60.3878612 108.9994737  73.9217806  59.1840669 108.4611138  73.1781907
  54.7262554 106.1141715  74.8147476  55.4272013 106.7478198  74.9676870
  54.2557669 106.4556447  74.0543115  62.5263839  98.6686323  72.6400026
  61.8735290  98.9162230  71.9852479  62.9044219  97.8550461  72.3062503
  59.4871013 108.7046016  66.7428196  59.6693408 107.8867672  67.2055948
  60.3103999 108.9213708  66.3053086  59.8213179 107.6314201  64.0043245
  60.3500945 107.1206656  63.3913407  60.0841398 107.3156731  64.8688778
  58.5751413  99.4106134  79.1266063  57.8992050  99.3100263  79.7968438
  59.3979046  99.2545348  79.5902060  50.3230272 105.6478070  71.7478578
  50.9083708 104.9021758  71.8806482  50.1255110 105.9582027  72.6315242
  53.1768927 108.6829318  66.7641021  52.5079302 109.1675445  66.2805061
  53.0381797 108.9298538  67.6784399  44.9147926  98.2183671  70.4683021
  44.9532026  97.6847261  71.2620139  44.4088219  97.6918876  69.8493999
  57.3174195 110.7173061  73.3623679  57.8692503 110.8804683  74.1272764
  57.6580389 111.3077499  72.6903704  52.2938689  93.0648211  73.9645564
  52.3580015  93.9263042  73.5522961  52.2305809  92.4522213  73.2317922
  51.7690961  95.1371344  77.6118598  52.3963000  94.7548421  78.2256122
  50.9118880  94.9185546  77.9774290  48.5456504  96.9447773  63.5436953
  48.8409945  96.0358451  63.4904006  47.6444540  96.9235512  63.2217955
  60.4542583 108.6655037  70.3487361  60.3293722 107.8644777  69.8398307
  61.1121674 109.1601230  69.8601331  62.5177491 106.4664057  71.9766911
  61.5707827 106.3469408  71.9045238  62.8660264 105.5786555  72.0593173
  63.1258046 107.0845332  69.2636136  64.0504594 106.8788193  69.1260587
  62.9573350 106.8361733  70.1725478  54.2584660  97.0740324  69.7474125
  54.1129241  97.3880627  70.6398407  53.7809864  97.6925224  69.1945024
  48.7330322  99.6145668  72.6861786  48.1883790 100.3905476  72.8182061
  49.6109672  99.9616473  72.5280908  49.5196344  98.7415565  75.5791943
  48.7778080  98.8898200  76.1656574  49.1989088  99.0023830  74.7158693
  57.4640007 108.2831543  75.3772333  57.7727133 108.0380690  76.2495033
  58.2615489 108.4878181  74.8891204  57.4860619 110.4369453  67.6077710
  57.0465609 109.9445831  68.3010567  58.2368736 109.8942420  67.3669785
  54.9334491 105.9807462  69.6800012  54.3114500 105.3178167  69.3802239
  55.6039358 106.0068594  68.9973659  55.0059018  94.4589250  79.2732518
  55.0547174  95.3351373  78.8910287  55.5481533  93.9166643  78.7004161
  62.9015502  97.8353767  77.1825690  63.8025364  97.6960232  76.8909688
  62.9763476  98.0008222  78.1223867  66.5406871  99.4924275  71.9259068
  66.5083191  98.5540276  72.1118752  67.1507495  99.5708312  71.1924893
  58.2628894 102.4138074  79.4286929  59.1831904 102.5916673  79.6226975
  58.2278477 101.4694120  79.2766628  47.4811059  97.6076668  68.3540204
  47.1613844  96.7541976  68.0614578  46.9344488  97.8225246  69.1098171
  51.2590967 100.3239109  72.0709710  51.4776977 101.2556217  72.0897744
  51.6716741  99.9647083  72.8564514  56.1318832  95.8972315  81.4612459
  56.0315559  96.8466672  81.3924550  55.9140374  95.5690554  80.5888529
  47.3499319 101.2279580  70.3233325  46.6562791 100.8133532  69.8103280
  48.0972310 101.2700116  69.7266744  55.9950102  99.3269454  80.2777521
  55.5117184 100.1269814  80.4841410  56.0811041  99.3377398  79.3244965
  51.9223440 103.2173988  72.3145955  52.8766693 103.1857931  72.2475886
  51.7235963 102.7564612  73.1296180  52.5122822 101.7875104  74.8816752
  53.3315711 102.2819183  74.9051589  52.7859630 100.8707073  74.8534320
  50.2773669 108.7593608  69.3316152  50.1428137 107.9994009  68.7654150
  49.8605731 109.4834508  68.8644941  53.4342794 109.6562925  69.5434595
  53.3175179 110.6008357  69.4413285  52.6135241 109.3536486  69.9320394
  47.7657736  96.1213238  75.5808949  48.4116600  95.6112192  76.0696174
  47.5574887  96.8581920  76.1552374  54.4597309 110.3091187  72.7590523
  55.3624555 110.3414797  73.0757018  54.2334679 109.3791638  72.7736859
  56.2150911 109.0622173  69.4200602  55.2646542 109.0624035  69.3064974
  56.5183397 108.3154908  68.9036637  52.1055227  93.2680855  79.6783963
  52.9686689  92.9117660  79.8887288  51.5320638  92.9294750  80.3659368
  68.7593310 114.8510140  70.4207889  68.4211822 114.7351204  69.5328424
  69.6283079 114.4501305  70.4008895  64.6180126 116.7045616  66.4104780
  64.0544991 116.6135553  65.6421068  64.5032521 115.8845521  66.8907273
  62.1644558 118.1996808  69.2489001  62.9565850 117.8587632  68.8335300
  62.4041208 118.3091783  70.1691154  70.1979685 120.3716584  61.7219245
  69.5467665 120.9570664  61.3353259  70.9924048 120.9022779  61.7814282
  64.1235312 117.4605721  62.1206379  64.8966188 116.9134708  61.9819255
  64.4760711 118.3249970  62.3320841  65.9620354 118.7882103  75.3273279
  65.6710220 119.6927734  75.2119945  66.5977339 118.8298631  76.0417348
  66.8876561 116.1658952  71.9174638  67.4840134 115.9414974  71.2031601
  66.9451533 115.4243697  72.5200086  66.4601590 113.6198387  59.7524829
  66.7127110 113.0979908  58.9908292  65.5226149 113.4564533  59.8551513
  71.5044873 112.6234166  67.5599573  72.2907962 112.2053589  67.2089990
  71.7683577 113.5280258  67.7281221  71.6754950 118.0607016  62.2588229
  71.0400783 118.1341642  62.9709134  71.3452356 118.6500615  61.5807309
  66.1797878 115.5226493  61.9549204  66.0634137 114.8471396  62.6230289
  66.2900138 115.0358867  61.1381357  68.5229419 114.9836640  65.6595893
  68.1587627 114.4567261  66.3708815  69.3796535 114.5935109  65.4862379
  64.3722721 114.9257316  68.3559777  63.4473218 114.7933530  68.5637469
  64.6207134 115.7051535  68.8529719  68.1424127 112.4684197  61.6403909
  68.0223752 112.9141248  62.4789389  67.4476716 112.8169515  61.0817447
  61.7331532 114.5690589  69.1903566  61.8623913 114.8225068  70.1042978
  61.0528983 115.1618297  68.8708221  65.9031019 125.2387839  65.2894040
  65.8255049 126.1895664  65.3682521  65.2992663 124.8933712  65.9468966
  72.4478776 117.9231489  69.8597824  71.8187638 118.0877203  69.1573892
  72.0604438 118.3373099  70.6308788  68.0006738 117.6605897  67.1247909
  68.4645083 117.9393600  66.3352532  67.7363536 116.7589342  66.9421000
  64.8930819 117.2077379  70.0627673  65.4632176 117.6364647  69.4245157
  65.4838931 116.9259963  70.7611858  66.9375624 113.7829050  63.9337475
  67.6399667 114.2350093  64.4011401  66.6056252 113.1412868  64.5617368
  60.6800958 112.0412602  69.2354608  59.8900012 112.2970131  68.7594719
  61.1712205 112.8560940  69.3406649  62.6315703 112.4057181  66.1938085
  61.8346866 112.5175876  66.7121580  62.4041295 112.7443834  65.3278975
  68.4621371 118.9301885  74.1420599  68.5265803 119.3922292  74.9778771
  67.7532295 118.2999250  74.2702909  58.9638661 112.2943093  71.6669599
  59.2146699 113.1790103  71.9327175  59.4998209 112.1147694  70.8944691
  68.1769388 120.5969992  64.0099580  68.0415063 121.4421528  64.4384428
  68.7179201 120.7989270  63.2465514  61.6298786 118.1145430  64.5827505
  62.1423306 118.9088680  64.7333070  62.2821499 117.4171721  64.5161106
  63.4393670 121.2311186  66.6650258  63.6160299 122.1529151  66.4771242
  64.2350504 120.9169606  67.0944638  62.7246027 113.2775818  76.5412421
  62.6099542 112.3761076  76.8419520  61.8690545 113.5239515  76.1897238
  69.8037865 121.2193559  78.1399922  69.3601719 120.4329937  77.8220826
  70.4655078 121.4072709  77.4743813  64.5624986 122.7489360  72.6660600
  65.1132411 122.6206424  71.8937594  63.7236462 123.0484249  72.3155493
  68.3592157 119.0140488  77.0104831  68.8920494 118.2528776  76.7804139
  67.8306238 118.7214140  77.7528986  59.5947702 116.4434084  65.3587075
  60.4322924 116.8531093  65.1420783  59.7725970 115.5033527  65.3287269
  71.4912135 114.1109165  61.0470908  70.9758758 114.8813770  61.2859296
  71.2189443 113.4374301  61.6703970  69.0759246 108.9558866  66.1056147
  68.2200842 108.5665716  65.9261785  69.4886197 109.0350827  65.2455932
  66.8501278 106.5743939  69.5113888  67.7154275 106.3786748  69.1519778
  66.9178787 106.3454291  70.4383245  76.4646409 116.8641520  62.9824082
  75.6875851 116.5252679  62.5379244  77.1437890 116.8694143  62.3079047
  71.2798438 111.9836257  62.8730690  70.9748573 112.2982406  63.7240833
  72.2328880 112.0617677  62.9158023  69.7244870 118.1426481  64.5223644
  69.1966231 117.4079240  64.2096881  69.2232372 118.9201157  64.2763612
  64.7833184 110.8350608  60.9026140  63.9470497 111.1725294  61.2235415
  64.6437954 110.6999588  59.9653277  67.8697470 115.9606691  57.5258617
  66.9624532 115.7295944  57.7249766  68.3668502 115.1644310  57.7132598
  70.7765549 124.6704198  60.4455303  70.1027247 124.9735895  61.0540261
  71.1631371 125.4733278  60.0960760  70.7759053 113.5660745  65.0655652
  71.5230872 114.0782142  64.7562774  71.0450643 113.2444798  65.9260046
  69.0485703 116.0619286  62.0482607  68.1396922 115.7778318  62.1455076
  69.0780787 116.4818364  61.1885913  59.6173874 113.7824800  66.0297809
  59.4198273 113.1894160  65.3048875  59.0620538 113.4777010  66.7473748
  67.5970597 113.6747906  68.1492402  67.6519207 112.7221743  68.0734879
  66.7861799 113.8307345  68.6333700  68.7461791 117.6028029  59.3870685
  68.3081221 116.8863888  58.9276323  69.4872232 117.8304144  58.8255777
  65.5362957 112.2924966  65.9082781  64.7230823 112.5919137  66.3147973
  66.0321951 111.8980655  66.6257263  67.6871535 122.2882723  67.8417046
  67.6447714 122.5143569  66.9125578  68.6034234 122.0546098  67.9902847
  65.8037336 119.1645752  67.6379008  66.5977934 118.6696072  67.4361583
  65.0929028 118.6363615  67.2746714  62.1120099 113.3088834  63.7138761
  61.1817687 113.2473289  63.9308723  62.2077571 112.7864786  62.9175402
  62.0305648 109.8343647  66.3017003  62.2912466 110.7488980  66.1926163
  62.8522821 109.3668089  66.4513615  63.5030574 111.2481404  73.4715827
  64.1753627 111.0398766  72.8228476  62.6760360 111.0503490  73.0321059
  68.3808612 119.7374774  71.3176845  68.2419698 119.3693558  72.1902783
  67.5923208 120.2522413  71.1460803  68.9756764 124.8383870  62.6602382
  69.1508519 124.3671914  63.4748005  68.2889552 125.4649637  62.8883643
  69.9313827 119.1156377  68.7065683  69.5963660 119.0757147  69.6023333
  69.4317773 118.4501093  68.2336093  63.9058071 114.5224007  74.2318264
  63.7677869 113.7904245  74.8329803  64.8162994 114.4332907  73.9502452
  72.8673019 116.4612411  58.9802743  72.2502189 115.7359239  58.8835795
  72.3989507 117.2221771  58.6369817  63.5417849 127.9873233  69.4342242
  63.7814447 128.6191757  70.1121261  62.6987046 127.6361273  69.7207601
  64.6571565 110.6797835  58.1024047  63.7801031 110.5586636  57.7386294
  65.1329318 109.8883914  57.8502936  56.1773705 115.4674995  68.1965554
  56.8644745 115.1536725  67.6086570  56.0221833 116.3716360  67.9232806
  60.9808427 110.3565192  72.6250578  60.8966616 109.7490861  71.8900988
  60.1591133 110.8474210  72.6260074  68.0545711 123.7952356  71.8383746
  67.9815882 124.6007327  72.3503051  67.6123104 123.9944321  71.0131767
  67.8435491 123.0324126  65.3486568  67.0603012 123.5745806  65.4424792
  68.5428236 123.5498105  65.7480809  71.1532141 108.8418755  67.9920773
  71.6500840 108.0888717  67.6721843  70.3819122 108.8783072  67.4263982
  72.2361921 117.5990442  65.5659196  71.3018200 117.7191905  65.3963901
  72.4138590 116.6962909  65.3019206  67.7367109 110.9836138  67.7192458
  67.3664897 110.4307178  68.4073363  68.2326202 110.3794272  67.1667458
  65.5656308 121.4433633  74.8147476  66.2665768 122.0770116  74.9676870
  65.0951423 121.7848365  74.0543115  73.6910704 119.7851583  63.0995383
  73.9670548 119.6708177  64.0089257  72.8215203 119.3869068  63.0607556
  70.3264768 124.0337934  66.7428196  70.5087162 123.2159590  67.2055948
  71.1497754 124.2505626  66.3053086  70.6606933 122.9606119  64.0043245
  71.1894700 122.4498573  63.3913407  70.9235153 122.6448649  64.8688778
  61.1624026 120.9769988  71.7478578  61.7477463 120.2313676  71.8806482
  60.9648865 121.2873945  72.6315242  64.0162681 124.0121236  66.7641021
  63.3473057 124.4967363  66.2805061  63.8775551 124.2590456  67.6784399
  55.7541681 113.5475588  70.4683021  55.7925780 113.0139179  71.2620139
  55.2481974 113.0210794  69.8493999  68.1567950 126.0464979  73.3623679
  68.7086258 126.2096601  74.1272764  68.4974143 126.6369417  72.6903704
  73.0078824 120.8726237  79.2172333  73.5518728 121.4856195  78.7227288
  72.4265669 121.4305815  79.7339346  59.3850258 112.2739691  63.5436953
  59.6803699 111.3650369  63.4904006  58.4838294 112.2527430  63.2217955
  71.2936337 123.9946955  70.3487361  71.1687477 123.1936694  69.8398307
  71.9515428 124.4893148  69.8601331  62.9144505 110.3495687  69.5264501
  62.1931091 110.9631655  69.3871975  63.7037761 110.8853452  69.4481147
  61.1138100 109.9553788  63.6676278  60.7850806 109.0751167  63.4851384
  61.4677471 109.9001457  64.5552667  70.3617679 121.5908691  68.1771263
  70.2142641 120.6625398  68.3578833  71.1871172 121.6128782  67.6928339
  64.2279923 110.2426758  64.0351756  64.5675996 110.7712679  63.3130364
  64.6752044 110.5807164  64.8110322  65.0978415 112.4032242  69.7474125
  64.9522995 112.7172545  70.6398407  64.6203618 113.0217142  69.1945024
  66.9574797 109.3934790  69.7955015  66.9436366 108.4975883  69.4587313
  67.6747226 109.4005453  70.4293301  59.5724077 114.9437586  72.6861786
  59.0277545 115.7197394  72.8182061  60.4503427 115.2908391  72.5280908
  74.7422289 122.2489681  61.7195126  75.4373194 122.8696374  61.9382441
  75.0845440 121.3985033  61.9947504  60.3590099 114.0707482  75.5791943
  59.6171835 114.2190118  76.1656574  60.0382843 114.3315748  74.7158693
  76.6413713 119.6989387  63.2482457  77.1665037 120.0376660  62.5231777
  76.5536065 118.7636402  63.0645591  68.3033761 123.6123461  75.3772333
  68.6120888 123.3672607  76.2495033  69.1009243 123.8170099  74.8891204
  68.3254373 125.7661370  67.6077710  67.8859364 125.2737749  68.3010567
  69.0762490 125.2234338  67.3669785  60.8046712 121.9572911  67.6102338
  61.6304732 121.6576683  67.2300981  60.4540764 121.1880534  68.0592127
  65.7728245 121.3099379  69.6800012  65.1508255 120.6470084  69.3802239
  66.4433112 121.3360511  68.9973659  59.0055317 119.8759238  68.5691272
  58.1687226 119.4481412  68.3875273  58.9778963 120.0691681  69.5062063
  65.3341752 119.8603303  63.1558472  65.4829873 120.5438767  62.5025145
  66.1408196 119.8408393  63.6707928  63.0894385 115.8868480  64.1619541
  62.8440427 114.9830810  64.3599751  63.2590300 115.8885631  63.2199019
  62.3590033 111.6196838  61.6605702  61.6659278 111.6941193  61.0045738
  62.1141785 110.8557182  62.1827219  68.8337158 122.3551433  60.6270220
  68.2611125 122.9741620  60.1740691  69.4069952 122.9050795  61.1610141
  72.0534418 122.6388583  61.7578802  72.9865091 122.5734145  61.9611677
  71.9657630 123.4744850  61.2993334  74.6822434 121.9554454  58.7182749
  74.6036066 121.6214317  59.6118507  75.5032101 122.4476222  58.7174222
  69.2183956 113.6912246  57.9686272  70.1643061 113.5618454  58.0374690
  68.8398201 112.9526908  58.4455700  67.4026873 111.6162222  57.9041157
  66.4958329 111.3195335  57.9803871  67.6802854 111.3192040  57.0375443
  58.3204814 112.9368586  68.3540204  58.0007598 112.0833894  68.0614578
  57.7738242 113.1517164  69.1098171  62.0984721 115.6531027  72.0709710
  62.3170731 116.5848135  72.0897744  62.5110495 115.2939001  72.8564514
  58.1893074 116.5571497  70.3233325  57.4956545 116.1425450  69.8103280
  58.9366065 116.5992034  69.7266744  60.1029816 116.4889751  68.1999340
  60.0800505 116.5877438  67.2481223  60.4130453 117.3354902  68.5216506
  62.7617194 118.5465906  72.3145955  63.7160448 118.5149848  72.2475886
  62.5629718 118.0856530  73.1296180  63.3516576 117.1167022  74.8816752
  64.1709465 117.6111101  74.9051589  63.6253384 116.1998990  74.8534320
  61.1167423 124.0885526  69.3316152  60.9821891 123.3285926  68.7654150
  60.6999485 124.8126425  68.8644941  72.2526386 119.2722449  58.3392728
  72.9562236 119.4772452  58.9550383  71.5289035 119.8399211  58.6041811
  73.0824196 115.0232310  64.4594998  73.0259398 115.4800862  63.6202630
  73.6352539 114.2622995  64.2817841  64.2736549 124.9854843  69.5434595
  64.1568933 125.9300275  69.4413285  63.4528995 124.6828404  69.9320394
  74.1613083 119.7104978  60.3891188  74.9958687 119.2786177  60.2068663
  73.9997426 119.5386992  61.3168082  73.8158976 116.2137092  61.7547527
  73.7607779 116.0481363  60.8135971  73.1905031 116.9213124  61.9109717
  58.6051491 111.4505156  75.5808949  59.2510354 110.9404110  76.0696174
  58.3968642 112.1873838  76.1552374  65.2991063 125.6383104  72.7590523
  66.2018310 125.6706715  73.0757018  65.0728433 124.7083555  72.7736859
  67.0544665 124.3914091  69.4200602  66.1040296 124.3915953  69.3064974
  67.3577151 123.6446826  68.9036637  75.4573881 132.0337534  66.4104780
  74.8938746 131.9427471  65.6421068  75.3426276 131.2137438  66.8907273
  73.0038312 133.5288725  69.2489001  73.7959604 133.1879550  68.8335300
  73.2434963 133.6383701  70.1691154  81.0373439 135.7008502  61.7219245
  80.3861419 136.2862582  61.3353259  81.8317802 136.2314696  61.7814282
  74.9629066 132.7897639  62.1206379  75.7359942 132.2426626  61.9819255
  75.3154465 133.6541888  62.3320841  76.8014109 134.1174021  75.3273279
  76.5103975 135.0219652  75.2119945  77.4371093 134.1590549  76.0417348
  77.2995344 128.9490305  59.7524829  77.5520865 128.4271826  58.9908292
  76.3619903 128.7856450  59.8551513  82.5148704 133.3898934  62.2588229
  81.8794537 133.4633560  62.9709134  82.1846111 133.9792532  61.5807309
  87.7447054 127.8901316  68.4632551  88.4772226 127.3200533  68.6970380
  86.9886410 127.5022917  68.9039057  77.0191633 130.8518411  61.9549204
  76.9027891 130.1763314  62.6230289  77.1293893 130.3650785  61.1381357
  79.3623174 130.3128558  65.6595893  78.9981381 129.7859179  66.3708815
  80.2190290 129.9227027  65.4862379  79.0028661 125.3418458  60.6557242
  79.1703063 126.2098694  61.0227713  78.8125830 125.5045739  59.7318531
  85.1601138 126.3217977  70.0020510  84.2518015 126.2533385  69.7079271
  85.1088734 126.7989922  70.8302335  78.9817882 127.7976115  61.6403909
  78.8617507 128.2433166  62.4789389  78.2870470 128.1461433  61.0817447
  72.5725287 129.8982507  69.1903566  72.7017668 130.1516986  70.1042978
  71.8922738 130.4910215  68.8708221  76.7424774 140.5679757  65.2894040
  76.6648804 141.5187582  65.3682521  76.1386417 140.2225629  65.9468966
  87.0262784 124.5234415  71.7798384  86.3837165 124.8166948  71.1338178
  86.5217713 124.4087335  72.5851580  84.6802948 128.2697588  62.4684243
  85.5920804 128.5024975  62.2931940  84.1712595 128.8534632  61.9059321
  82.9643716 132.6922216  76.1045535  83.3727072 132.2504627  75.3600168
  82.2420977 132.1174844  76.3579728  83.2872530 133.2523407  69.8597824
  82.6581393 133.4169121  69.1573892  82.8998192 133.6665016  70.6308788
  87.1661762 134.1877845  67.2142188  86.4812800 134.5676746  66.6639221
  87.2505611 134.7973171  67.9474136  84.4212694 131.8337804  73.8137532
  84.6329589 132.4769563  73.1371913  84.3742442 131.0000120  73.3459462
  77.7769378 129.1120967  63.9337475  78.4793422 129.5642011  64.4011401
  77.4450007 128.4704786  64.5617368  71.5194712 127.3704520  69.2354608
  70.7293766 127.6262048  68.7594719  72.0105959 128.1852858  69.3406649
  85.5358522 134.7109759  71.9859889  86.3575965 134.3089946  71.7042571
  85.5320925 134.6077993  72.9376005  73.4709458 127.7349099  66.1938085
  72.6740621 127.8467793  66.7121580  73.2435050 128.0735751  65.3278975
  79.3015125 134.2593802  74.1420599  79.3659558 134.7214210  74.9778771
  78.5926049 133.6291167  74.2702909  69.8032415 127.6235010  71.6669599
  70.0540454 128.5082020  71.9327175  70.3391964 127.4439612  70.8944691
  93.6264515 131.0548507  68.3344860  92.8728223 130.4855906  68.1788865
  93.7612056 131.0211172  69.2815495  79.0163143 135.9261910  64.0099580
  78.8808818 136.7713446  64.4384428  79.5572955 136.1281187  63.2465514
  75.5030482 122.0053490  80.6713935  75.1097428 121.4519688  81.3461579
  76.3196623 122.3164068  81.0620453  72.4692540 133.4437348  64.5827505
  72.9817061 134.2380598  64.7333070  73.1215253 132.7463638  64.5161106
  74.2787425 136.5603104  66.6650258  74.4554053 137.4821069  66.4771242
  75.0744258 136.2461523  67.0944638  80.6431619 136.5485476  78.1399922
  80.1995473 135.7621855  77.8220826  81.3048833 136.7364627  77.4743813
  75.4018740 138.0781278  72.6660600  75.9526165 137.9498341  71.8937594
  74.5630216 138.3776167  72.3155493  82.7412857 136.8288276  76.1681323
  82.7231333 137.6497157  75.6761592  83.6632777 136.7042351  76.3931464
  79.1985911 134.3432406  77.0104831  79.7314248 133.5820694  76.7804139
  78.6699992 134.0506058  77.7528986  70.4341457 131.7726002  65.3587075
  71.2716679 132.1823011  65.1420783  70.6119725 130.8325444  65.3287269
  82.3305889 129.4401083  61.0470908  81.8152513 130.2105687  61.2859296
  82.0583198 128.7666219  61.6703970  87.3040163 132.1933437  62.9824082
  86.5269606 131.8544597  62.5379244  87.9831644 132.1986061  62.3079047
  82.1192192 127.3128175  62.8730690  81.8142328 127.6274324  63.7240833
  83.0722634 127.3909595  62.9158023  80.5638624 133.4718398  64.5223644
  80.0359986 132.7371158  64.2096881  80.0626127 134.2493075  64.2763612
  85.5431470 131.6667419  69.6390690  84.8855145 132.3566680  69.7270818
  86.3471869 132.0563851  69.9824676  84.3536929 130.0211791  67.6894632
  84.8668811 130.6541783  68.1916341  85.0038153 129.4212987  67.3237992
  75.6226939 126.1642526  60.9026140  74.7864251 126.5017212  61.2235415
  75.4831708 126.0291505  59.9653277  78.7091224 131.2898608  57.5258617
  77.8018286 131.0587862  57.7249766  79.2062256 130.4936228  57.7132598
  81.6159303 139.9996116  60.4455303  80.9421002 140.3027812  61.0540261
  82.0025125 140.8025196  60.0960760  79.8879458 131.3911203  62.0482607
  78.9790677 131.1070236  62.1455076  79.9174542 131.8110282  61.1885913
  85.1198725 135.0017793  65.8173774  84.6661052 134.1608703  65.8738965
  84.4892692 135.6379191  66.1548554  83.5631664 136.8394290  66.7523592
  83.8554639 137.3999347  66.0335958  84.0730285 137.1322851  67.5076751
  70.4567628 129.1116717  66.0297809  70.2592028 128.5186078  65.3048875
  69.9014292 128.8068928  66.7473748  79.5855546 132.9319947  59.3870685
  79.1474975 132.2155806  58.9276323  80.3265986 133.1596062  58.8255777
  78.5265290 137.6174641  67.8417046  78.4841468 137.8435487  66.9125578
  79.4427988 137.3838015  67.9902847  87.7028660 131.2077144  65.4447004
  87.5646559 131.3978740  64.5168193  87.3464879 131.9696527  65.9015055
  87.7298040 133.2753671  70.4558275  88.1634547 133.1828960  71.3041329
  88.4429621 133.2511172  69.8178291  76.6431090 134.4937670  67.6379008
  77.4371689 133.9987990  67.4361583  75.9322783 133.9655533  67.2746714
  81.4625935 136.8755765  71.9891376  81.5162957 137.4446701  72.7569092
  80.5940716 137.0457650  71.6245413  72.9513854 128.6380751  63.7138761
  72.0211442 128.5765207  63.9308723  73.0471326 128.1156704  62.9175402
  88.5913589 133.3177372  72.9891161  88.7849480 134.2223182  73.2350436
  88.4914208 132.8584791  73.8229746  83.6528698 133.4684114  78.5632041
  83.5014205 133.2394666  77.6462125  83.6433378 134.4254716  78.5763386
  79.8150518 140.1675788  62.6602382  79.9902274 139.6963831  63.4748005
  79.1283306 140.7941554  62.8883643  83.7066773 131.7904329  58.9802743
  83.0895944 131.0651157  58.8835795  83.2383262 132.5513689  58.6369817
  85.3620905 136.5003237  76.6408523  85.3033451 135.8162457  75.9739106
  85.7640423 137.2422227  76.1889149  75.4965319 126.0089753  58.1024047
  74.6194785 125.8878554  57.7386294  75.9723072 125.2175831  57.8502936
  85.3638312 134.4642821  74.8722503  84.4765091 134.1268743  74.9948902
  85.9336863 133.7325852  75.1091268  67.0167459 130.7966913  68.1965554
  67.7038499 130.4828643  67.6086570  66.8615588 131.7008277  67.9232806
  78.8939465 139.1244273  71.8383746  78.8209637 139.9299245  72.3503051
  78.4516859 139.3236239  71.0131767  78.6829245 138.3616043  65.3486568
  77.8996767 138.9037724  65.4424792  79.3821990 138.8790023  65.7480809
  89.8455653 129.8751038  69.6339064  89.8345529 130.7575754  69.2632998
  88.9773032 129.5222589  69.4393602  81.3538149 139.0231107  73.9941905
  82.0666121 139.6578572  73.9217806  80.8628178 139.1194973  73.1781907
  83.0755676 132.9282360  65.5659196  82.1411955 133.0483822  65.3963901
  83.2532344 132.0254827  65.3019206  86.4628227 128.7699679  66.1009231
  86.9288679 129.6027671  66.0269533  86.9135728 128.3044661  66.8054489
  76.4050063 136.7725551  74.8147476  77.1059522 137.4062034  74.9676870
  75.9345177 137.1140282  74.0543115  84.5304458 135.1143501  63.0995383
  84.8064302 135.0000095  64.0089257  83.6608957 134.7160985  63.0607556
  84.2051348 129.3270158  72.6400026  83.5522799 129.5746066  71.9852479
  84.5831728 128.5134296  72.3062503  81.1658522 139.3629851  66.7428196
  81.3480917 138.5451507  67.2055948  81.9891508 139.5797544  66.3053086
  81.5000688 138.2898037  64.0043245  82.0288454 137.7790491  63.3913407
  81.7628907 137.9740567  64.8688778  72.0017781 136.3061906  71.7478578
  72.5871217 135.5605594  71.8806482  71.8042619 136.6165863  72.6315242
  74.8556436 139.3413153  66.7641021  74.1866811 139.8259281  66.2805061
  74.7169305 139.5882374  67.6784399  66.5935435 128.8767506  70.4683021
  66.6319535 128.3431097  71.2620139  66.0875728 128.3502712  69.8493999
  78.9961704 141.3756897  73.3623679  79.5480012 141.5388518  74.1272764
  79.3367898 141.9661335  72.6903704  73.4478470 125.7955179  77.6118598
  74.0750509 125.4132256  78.2256122  72.5906389 125.5769381  77.9774290
  83.8472579 136.2018154  79.2172333  84.3912483 136.8148113  78.7227288
  83.2659424 136.7597733  79.7339346  70.2244013 127.6031608  63.5436953
  70.5197454 126.6942287  63.4904006  69.3232049 127.5819348  63.2217955
  82.1330092 139.3238872  70.3487361  82.0081231 138.5228612  69.8398307
  82.7909183 139.8185066  69.8601331  84.1965000 137.1247892  71.9766911
  83.2495336 137.0053244  71.9045238  84.5447773 136.2370390  72.0593173
  71.9531854 125.2845706  63.6676278  71.6244561 124.4043085  63.4851384
  72.3071225 125.2293375  64.5552667  81.2011433 136.9200609  68.1771263
  81.0536396 135.9917316  68.3578833  82.0264927 136.9420699  67.6928339
  75.0673678 125.5718676  64.0351756  75.4069750 126.1004597  63.3130364
  75.5145798 125.9099082  64.8110322  84.8045555 137.7429167  69.2636136
  85.7292103 137.5372029  69.1260587  84.6360859 137.4945568  70.1725478
  77.0541825 124.0693297  62.2345048  77.7750187 124.4474550  61.7308765
  76.4307129 124.7882174  62.3380026  81.1972948 124.7738446  63.1703381
  81.4136562 125.6563084  62.8692209  80.7167015 124.3824660  62.4409023
  84.5940871 138.2614835  64.6198228  84.7677749 137.6961257  63.8672080
  85.0869763 139.0615730  64.4377718  70.4117831 130.2729504  72.6861786
  69.8671299 131.0489312  72.8182061  71.2897181 130.6200308  72.5280908
  90.4480263 131.0251258  66.2388527  90.8911409 130.2758583  65.8407651
  89.5706773 131.0161394  65.8562259  85.5816044 137.5781599  61.7195126
  86.2766948 138.1988292  61.9382441  85.9239194 136.7276950  61.9947504
  71.1983853 129.3999400  75.5791943  70.4565589 129.5482035  76.1656574
  70.8776597 129.6607666  74.7158693  87.4807467 135.0281305  63.2482457
  88.0058791 135.3668577  62.5231777  87.3929820 134.0928320  63.0645591
  79.1427516 138.9415378  75.3772333  79.4514642 138.6964525  76.2495033
  79.9402998 139.1462017  74.8891204  79.1648128 141.0953288  67.6077710
  78.7253118 140.6029667  68.3010567  79.9156245 140.5526256  67.3669785
  71.6440467 137.2864829  67.6102338  72.4698487 136.9868601  67.2300981
  71.2934519 136.5172451  68.0592127  76.6122000 136.6391297  69.6800012
  75.9902009 135.9762002  69.3802239  77.2826867 136.6652429  68.9973659
  69.8449072 135.2051155  68.5691272  69.0080980 134.7773330  68.3875273
  69.8172717 135.3983599  69.5062063  87.1701373 135.6614208  78.5533655
  86.3796917 135.6438347  78.0138154  86.9334728 136.2002502  79.3082691
  87.2899248 132.5106675  75.8666383  87.3397253 132.3456682  76.8081906
  87.1813171 131.6433934  75.4764264  76.1735507 135.1895220  63.1558472
  76.3223627 135.8730685  62.5025145  76.9801950 135.1700310  63.6707928
  84.5803011 128.4937603  77.1825690  85.4812873 128.3544068  76.8909688
  84.6550985 128.6592058  78.1223867  88.7917445 134.9303616  76.1108405
  88.5002253 135.2933597  76.9471866  88.1789576 134.2170625  75.9321737
  89.9913127 132.4956496  68.6310975  90.8260019 132.9346300  68.7948535
  90.1272256 132.0195149  67.8119221  87.0404633 130.0536231  74.5788463
  87.5158755 130.2463877  73.7707314  86.1170199 130.1095417  74.3331846
  73.9288140 131.2160398  64.1619541  73.6834182 130.3122728  64.3599751
  74.0984054 131.2177548  63.2199019  73.1983787 126.9488756  61.6605702
  72.5053032 127.0233111  61.0045738  72.9535539 126.1849099  62.1827219
  79.6730912 137.6843351  60.6270220  79.1004879 138.3033538  60.1740691
  80.2463706 138.2342713  61.1610141  85.7406302 126.9301991  72.8116768
  86.6923725 127.0300089  72.8328992  85.5709753 126.1380259  73.3214853
  82.8928172 137.9680501  61.7578802  83.8258845 137.9026063  61.9611677
  82.8051385 138.8036768  61.2993334  85.5216189 137.2846371  58.7182749
  85.4429820 136.9506235  59.6118507  86.3425856 137.7768139  58.7174222
  88.2194380 130.1508111  71.9259068  88.1870700 129.2124111  72.1118752
  88.8295004 130.2292147  71.1924893  80.0577711 129.0204164  57.9686272
  81.0036816 128.8910372  58.0374690  79.6791956 128.2818825  58.4455700
  88.3688868 126.9419154  71.9717351  87.8527917 126.1577611  71.7847280
  89.2528817 126.6137871  72.1363871  94.0370930 131.2124117  71.0665105
  94.7674318 130.9509406  71.6272808  93.4277875 130.4752839  71.1067173
  92.1186227 129.3531980  71.6639556  91.3919391 129.2187945  71.0556048
  91.7033514 129.6608809  72.4696274  79.9416403 133.0721910  79.4286929
  80.8619413 133.2500509  79.6226975  79.9065986 132.1277955  79.2766628
  78.2420628 126.9454140  57.9041157  77.3352083 126.6487253  57.9803871
  78.5196609 126.6483958  57.0375443  69.1598568 128.2660503  68.3540204
  68.8401353 127.4125812  68.0614578  68.6131997 128.4809082  69.1098171
  79.8582694 121.4891030  64.0585399  79.0483422 121.1438115  64.4340645
  80.5467111 121.1798573  64.6473010  77.8106341 126.5556150  81.4612459
  77.7103068 127.5050507  81.3924550  77.5927883 126.2274389  80.5888529
  77.0119413 123.8041075  58.0453136  77.8738577 124.1295974  58.3048954
  77.1969757 123.0172571  57.5326202  69.0286828 131.8863415  70.3233325
  68.3350300 131.4717368  69.8103280  69.7759819 131.9283951  69.7266744
  85.1652049 122.6769602  65.1888359  84.5850718 123.3354406  64.8066412
  84.8987982 121.8546946  64.7775777  70.9423571 131.8181669  68.1999340
  70.9194259 131.9169356  67.2481223  71.2524207 132.6646819  68.5216506
  73.6010949 133.8757824  72.3145955  74.5554202 133.8441766  72.2475886
  73.4023472 133.4148447  73.1296180  74.1910331 132.4458940  74.8816752
  75.0103220 132.9403018  74.9051589  74.4647139 131.5290908  74.8534320
  83.9476927 124.8369692  64.2444708  83.0602782 125.1219343  64.0264902
  84.3630916 124.6763455  63.3971985  87.2991463 124.8616213  67.9599047
  88.0751853 125.3512665  68.2323664  86.5739597 125.2874267  68.4170916
  89.7364022 125.5743832  69.0172988  90.3308513 125.3339568  68.3066296
  89.8090606 124.8550963  69.6446524  71.9561178 139.4177443  69.3316152
  71.8215645 138.6577844  68.7654150  71.5393240 140.1418343  68.8644941
  83.0920141 134.6014367  58.3392728  83.7955991 134.8064369  58.9550383
  82.3682789 135.1691129  58.6041811  83.9217951 130.3524228  64.4594998
  83.8653152 130.8092779  63.6202630  84.4746293 129.5914913  64.2817841
  87.7322757 126.1413960  65.2845117  87.4759691 125.7410596  66.1153325
  87.1075625 126.8557754  65.1595256  92.0435095 128.8810033  67.7916409
  91.4834653 128.9503222  68.5647971  91.4378598 128.7051018  67.0715905
  75.1130303 140.3146760  69.5434595  74.9962688 141.2592193  69.4413285
  74.2922750 140.0120322  69.9320394  85.0006838 135.0396896  60.3891188
  85.8352442 134.6078094  60.2068663  84.8391181 134.8678910  61.3168082
  84.6552730 131.5429009  61.7547527  84.6001534 131.3773281  60.8135971
  84.0298785 132.2505042  61.9109717  69.4445245 126.7797074  75.5808949
  70.0904109 126.2696028  76.0696174  69.2362396 127.5165755  76.1552374
  81.9698637 133.8477921  81.0801090  82.8389797 134.0218573  80.7187725
  81.4905389 134.6672338  80.9576819  77.9648856 121.0437118  61.3332845
  77.9527525 121.9878958  61.4901116  78.8572277 120.8607264  61.0392307
  76.1384818 140.9675022  72.7590523  77.0412064 140.9998632  73.0757018
  75.9122188 140.0375473  72.7736859  77.8938420 139.7206009  69.4200602
  76.9434051 139.7207870  69.3064974  78.1970906 138.9738743  68.9036637
  93.6291113 145.5566547  70.4846364  94.2669523 145.4373294  69.7809705
  93.5111956 146.5047391  70.5434317  90.4380819 145.5093975  70.4207889
  90.0999331 145.3935040  69.5328424  91.3070588 145.1085140  70.4008895
  86.2967635 147.3629452  66.4104780  85.7332500 147.2719388  65.6421068
  86.1820030 146.5429356  66.8907273  90.9200602 146.6628827  76.3794095
  90.9089243 146.2681625  75.5074598  91.0821242 145.9294899  76.9727866
  88.5664070 146.8242787  71.9174638  89.1627643 146.5998810  71.2031601
  88.6239042 146.0827533  72.5200086  88.1389099 144.2782223  59.7524829
  88.3914619 143.7563744  58.9908292  87.2013658 144.1148368  59.8551513
  93.1832382 143.2818001  67.5599573  93.9695471 142.8637424  67.2089990
  93.4471086 144.1864093  67.7281221  98.5840809 143.2193234  68.4632551
  99.3165981 142.6492451  68.6970380  97.8280164 142.8314835  68.9039057
  87.8585387 146.1810328  61.9549204  87.7421646 145.5055232  62.6230289
  87.9687647 145.6942702  61.1381357  90.2016928 145.6420476  65.6595893
  89.8375136 145.1151097  66.3708815  91.0584044 145.2518945  65.4862379
  96.1066229 136.9314808  72.9227160  95.7749554 137.8010219  72.6988375
  95.5111842 136.6151092  73.6021190  89.8422415 140.6710375  60.6557242
  90.0096818 141.5390612  61.0227713  89.6519584 140.8337657  59.7318531
  86.0510230 145.5841151  68.3559777  85.1260727 145.4517365  68.5637469
  86.2994643 146.3635370  68.8529719  95.9994892 141.6509894  70.0020510
  95.0911770 141.5825303  69.7079271  95.9482488 142.1281839  70.8302335
  89.8211636 143.1268033  61.6403909  89.7011261 143.5725084  62.4789389
  89.1264225 143.4753350  61.0817447  83.4119041 145.2274425  69.1903566
  83.5411422 145.4808903  70.1042978  82.7316492 145.8202133  68.8708221
  90.0735758 143.0699540  77.9455407  89.2969092 143.6293460  77.9358272
  90.7126321 143.5556323  78.4670277  97.8656539 139.8526333  71.7798384
  97.2230919 140.1458866  71.1338178  97.3611467 139.7379253  72.5851580
  95.5196702 143.5989506  62.4684243  96.4314559 143.8316893  62.2931940
  95.0106349 144.1826550  61.9059321  88.3282130 145.8784993  77.5073374
  89.0696815 146.4170037  77.2308198  87.6219116 146.5051282  77.6644926
  93.8037470 148.0214134  76.1045535  94.2120826 147.5796544  75.3600168
  93.0814732 147.4466761  76.3579728  90.1568540 142.9586741  73.4779092
  91.0029735 143.3826154  73.6213741  90.0967178 142.3020365  74.1717655
  93.3067985 140.6191109  75.1360266  93.0628917 141.3733169  74.5994542
  93.5827916 140.9976457  75.9707513  92.8632677 139.7747542  70.7174104
  92.0017156 140.0728795  71.0090841  92.8895112 139.9917941  69.7855136
  89.6794247 148.3189732  67.1247909  90.1432592 148.5977435  66.3352532
  89.4151045 147.4173177  66.9421000  88.6163133 144.4412885  63.9337475
  89.3187176 144.8933929  64.4011401  88.2843761 143.7996704  64.5617368
  87.0643494 143.0324641  78.3088684  86.4342155 143.7140922  78.5424081
  86.9579582 142.9207723  77.3641822  82.3588467 142.6996438  69.2354608
  81.5687521 142.9553966  68.7594719  82.8499714 143.5144775  69.3406649
  84.3103212 143.0641017  66.1938085  83.5134375 143.1759711  66.7121580
  84.0828804 143.4027669  65.3278975  80.6426170 142.9526928  71.6669599
  80.8934208 143.8373938  71.9327175  81.1785718 142.7731529  70.8944691
  86.3424237 137.3345407  80.6713935  85.9491182 136.7811606  81.3461579
  87.1590377 137.6455986  81.0620453  89.2592198 138.7503286  78.2634192
  90.0001911 139.3510440  78.1838654  89.4910121 138.0080924  77.7052234
  84.4033536 143.9359654  76.5412421  84.2887051 143.0344911  76.8419520
  83.5478054 144.1823350  76.1897238  93.2049361 134.7784389  72.5398473
  92.8613630 135.6686031  72.4637584  93.5728323 134.5886047  71.6768058
  93.1699644 144.7693000  61.0470908  92.6546267 145.5397605  61.2859296
  92.8976952 144.0958137  61.6703970  90.7546755 139.6142701  66.1056147
  89.8988351 139.2249552  65.9261785  91.1673706 139.6934662  65.2455932
  92.2845901 137.1489045  70.5047706  91.7810697 137.1119180  69.6915512
  92.5776508 138.0581787  70.5644363  88.5288787 137.2327774  69.5113888
  89.3941784 137.0370583  69.1519778  88.5966296 137.0038126  70.4383245
  92.9585947 142.6420093  62.8730690  92.6536082 142.9566242  63.7240833
  93.9116389 142.7201512  62.9158023  86.1351106 139.4629982  66.8830255
  86.7094858 139.2405164  66.1503448  86.7222089 139.5318677  67.6358856
  95.1930683 145.3503709  67.6894632  95.7062565 145.9833701  68.1916341
  95.8431907 144.7504905  67.3237992  86.4620693 141.4934443  60.9026140
  85.6258006 141.8309130  61.2235415  86.3225463 141.3583423  59.9653277
  88.4373774 136.3371231  65.6105324  87.7838186 136.0220248  64.9861939
  88.3954248 135.7146972  66.3365147  89.5484979 146.6190526  57.5258617
  88.6412040 146.3879780  57.7249766  90.0456011 145.8228145  57.7132598
  91.6711514 142.8253165  69.9352972  90.7534076 143.0468112  69.7774660
  92.0871658 142.8999475  69.0764679  92.4546562 144.2244580  65.0655652
  93.2018381 144.7365978  64.7562774  92.7238152 143.9028633  65.9260046
  90.7273212 146.7203121  62.0482607  89.8184431 146.4362154  62.1455076
  90.7568296 147.1402200  61.1885913  94.9025399 141.2601697  67.0474442
  94.1648156 140.7479083  67.3784684  95.1552173 140.8202078  66.2357719
  95.0037026 134.0377949  67.6416211  95.3095903 133.1775312  67.3542126
  95.7289631 134.6295569  67.4415205  81.2961383 144.4408635  66.0297809
  81.0985782 143.8477996  65.3048875  80.7408047 144.1360845  66.7473748
  89.2758106 144.3331742  68.1492402  89.3306716 143.3805578  68.0734879
  88.4649308 144.4891181  68.6333700  90.4249300 148.2611865  59.3870685
  89.9868730 147.5447724  58.9276323  91.1659741 148.4887980  58.8255777
  87.2150466 142.9508801  65.9082781  86.4018332 143.2502972  66.3147973
  87.7109460 142.5564490  66.6257263  92.8124678 143.4150626  74.7397675
  93.1674066 143.6422099  75.5992140  93.4596809 143.7469003  74.1174930
  86.7064541 140.5227157  71.5244016  87.3463920 140.3815916  70.8266979
  85.8742071 140.2361670  71.1482618  83.7907608 143.9672669  63.7138761
  82.8605196 143.9057125  63.9308723  83.8865080 143.4448622  62.9175402
  83.7093157 140.4927482  66.3017003  83.9699975 141.4072815  66.1926163
  84.5310330 140.0251924  66.4513615  85.1818083 141.9065239  73.4715827
  85.8541136 141.6982601  72.8228476  84.3547869 141.7087325  73.0321059
  91.0843655 138.5327180  75.4881488  90.4371570 139.2317130  75.3945964
  91.8544670 138.9663324  75.8557736  91.2607789 146.3707945  73.5478308
  92.1899849 146.5219104  73.3747275  90.8398819 146.4591966  72.6926954
  85.5845580 145.1807842  74.2318264  85.4465378 144.4488081  74.8329803
  86.4950503 145.0916742  73.9502452  94.5460528 147.1196246  58.9802743
  93.9289698 146.3943074  58.8835795  94.0777016 147.8805607  58.6369817
  88.2127881 144.8927801  73.7201944  88.9227499 144.2520994  73.6788562
  88.1697189 145.1440696  74.6428125  86.9256815 141.8793019  75.5397583
  86.3894172 141.4283758  76.1919180  86.3373523 142.0138928  74.7968048
  86.3359074 141.3381671  58.1024047  85.4588540 141.2170471  57.7386294
  86.8116827 140.5467749  57.8502936  82.6595936 141.0149027  72.6250578
  82.5754125 140.4074696  71.8900988  81.8378642 141.5058045  72.6260074
  92.8319650 139.5002590  67.9920773  93.3288349 138.7472553  67.6721843
  92.0606631 139.5366907  67.4263982  93.9149430 148.2574278  65.5659196
  92.9805709 148.3775740  65.3963901  94.0926099 147.3546744  65.3019206
  89.4154618 141.6419973  67.7192458  89.0452406 141.0891014  68.4073363
  89.9113711 141.0378107  67.1667458  97.3021982 144.0991597  66.1009231
  97.7682434 144.9319589  66.0269533  97.7529482 143.6336579  66.8054489
  95.2738644 136.4672184  70.1400132  94.3601724 136.6976411  70.3082339
  95.7031746 136.5510628  70.9914164  95.0445103 144.6562076  72.6400026
  94.3916553 144.9037983  71.9852479  95.4225483 143.8426214  72.3062503
  91.0932676 145.3981887  79.1266063  90.4173313 145.2976016  79.7968438
  91.9160310 145.2421101  79.5902060  77.4329190 144.2059424  70.4683021
  77.4713289 143.6723014  71.2620139  76.9269483 143.6794629  69.8493999
  84.8119952 139.0523964  73.9645564  84.8761279 139.9138795  73.5522961
  84.7487072 138.4397966  73.2317922  84.2872225 141.1247097  77.6118598
  84.9144263 140.7424174  78.2256122  83.4300143 140.9061299  77.9774290
  81.0637767 142.9323526  63.5436953  81.3591208 142.0234204  63.4904006
  80.1625803 142.9111265  63.2217955  84.5932014 141.0079522  69.5264501
  83.8718600 141.6215490  69.3871975  85.3825270 141.5437287  69.4481147
  87.3958328 138.3433949  75.8005153  87.9192730 138.5896245  76.5631462
  87.1770661 139.1753984  75.3808290  82.7925609 140.6137624  63.6676278
  82.4638315 139.7335002  63.4851384  83.1464980 140.5585292  64.5552667
  85.9067432 140.9010593  64.0351756  86.2463505 141.4296515  63.3130364
  86.3539553 141.2390999  64.8110322  88.6010873 139.2847644  73.4854824
  88.2607693 138.4855457  73.8875504  87.8949879 139.5849355  72.9131657
  89.2527345 136.3696956  71.9382147  90.0753414 135.8957435  71.8161037
  89.4965408 137.1487440  72.4380833  87.8935579 139.3985215  62.2345048
  88.6143942 139.7766468  61.7308765  87.2700883 140.1174092  62.3380026
  92.0366702 140.1030364  63.1703381  92.2530317 140.9855002  62.8692209
  91.5560769 139.7116577  62.4409023  86.7765924 143.0616077  69.7474125
  86.6310504 143.3756380  70.6398407  86.2991127 143.6800977  69.1945024
  88.6362306 140.0518625  69.7955015  88.6223875 139.1559718  69.4587313
  89.3534735 140.0589289  70.4293301  90.4888437 140.4855965  71.8408142
  90.2306215 141.4073036  71.8392473  89.9573477 140.0886400  72.5308606
  88.0399202 138.9333005  65.0642585  88.1615114 138.0049652  65.2633472
  87.7501245 138.9471691  64.1520900  90.9090393 136.6187916  68.2009305
  90.9312090 136.6827249  67.2461284  91.3258452 135.7792424  68.3949811
  82.0377608 144.7291318  75.5791943  81.2959344 144.8773953  76.1656574
  81.7170352 144.9899583  74.7158693  87.5240282 140.4465003  79.2732518
  87.5728437 141.3227126  78.8910287  88.0662796 139.9042396  78.7004161
  95.4196765 143.8229520  77.1825690  96.3206628 143.6835985  76.8909688
  95.4944739 143.9883975  78.1223867  89.7539570 141.1996375  76.0278876
  88.8842880 141.4929941  75.7561465  89.9899051 141.7836820  76.7486140
  84.7681894 146.5452316  64.1619541  84.5227936 145.6414646  64.3599751
  84.9377809 146.5469466  63.2199019  92.4578604 137.4175992  73.5444297
  92.9760548 138.1537019  73.2190785  92.1033737 137.7239985  74.3791056
  84.0377542 142.2780673  61.6605702  83.3446787 142.3525028  61.0045738
  83.7929294 141.5141017  62.1827219  92.7091198 133.8376275  69.0645193
  92.9892952 133.1699464  69.6905620  93.4941805 134.0305370  68.5519857
  96.5800057 142.2593909  72.8116768  97.5317480 142.3592006  72.8328992
  96.4103507 141.4672177  73.3214853  94.6014436 139.3449492  72.9976169
  94.0064368 139.6254505  72.3022658  94.3164133 139.8343393  73.7692910
  90.8971465 144.3496081  57.9686272  91.8430570 144.2202289  58.0374690
  90.5185710 143.6110743  58.4455700  99.2082623 142.2711072  71.9717351
  98.6921672 141.4869528  71.7847280 100.0922571 141.9429788  72.1363871
  96.8693350 136.0152087  67.9313164  96.6718171 135.7067175  68.8156496
  97.4793055 136.7413726  68.0611094  90.7810158 148.4013827  79.4286929
  91.7013167 148.5792426  79.6226975  90.7459741 147.4569873  79.2766628
  89.0814382 142.2746058  57.9041157  88.1745838 141.9779170  57.9803871
  89.3590363 141.9775876  57.0375443  79.9992323 143.5952421  68.3540204
  79.6795107 142.7417729  68.0614578  79.4525751 143.8100999  69.1098171
  90.6976448 136.8182947  64.0585399  89.8877177 136.4730032  64.4340645
  91.3860865 136.5090491  64.6473010  92.6266996 135.8960994  65.6809695
  93.1798035 136.3156448  66.3399718  92.8637083 134.9696742  65.7232651
  88.6500096 141.8848068  81.4612459  88.5496823 142.8342425  81.3924550
  88.4321638 141.5566307  80.5888529  87.8513167 139.1332993  58.0453136
  88.7132331 139.4587891  58.3048954  88.0363511 138.3464489  57.5326202
  96.0045804 138.0061519  65.1888359  95.4244473 138.6646323  64.8066412
  95.7381736 137.1838864  64.7775777  94.4549370 137.4066577  67.3909680
  94.9549148 137.5183112  66.5823999  95.0984978 137.1027630  68.0310488
  88.5131366 145.3145207  80.2777521  88.0298447 146.1145567  80.4841410
  88.5992305 145.3253152  79.3244965  94.7870682 140.1661610  64.2444708
  93.8996537 140.4511260  64.0264902  95.2024671 140.0055373  63.3971985
  98.1385218 140.1908131  67.9599047  98.9145608 140.6804583  68.2323664
  97.4133352 140.6166185  68.4170916 100.5757776 140.9035750  69.0172988
 101.1702267 140.6631486  68.3066296 100.6484360 140.1842880  69.6446524
  94.7611705 145.6816146  64.4594998  94.7046907 146.1384697  63.6202630
  95.3140048 144.9206830  64.2817841  98.5716511 141.4705878  65.2845117
  98.3153445 141.0702513  66.1153325  97.9469379 142.1849671  65.1595256
  95.4946485 146.8720927  61.7547527  95.4395288 146.7065198  60.8135971
  94.8692540 147.5796960  61.9109717  80.2839000 142.1088991  75.5808949
  80.9297863 141.5987945  76.0696174  80.0756151 142.8457673  76.1552374
  88.8042610 136.3729036  61.3332845  88.7921280 137.3170876  61.4901116
  89.6966032 136.1899181  61.0392307  92.6194730 132.9671813  65.5878782
  91.8527125 132.4130299  65.7335465  93.0305435 133.0393681  66.4492934
  84.6236491 139.2556608  79.6783963  85.4867952 138.8993413  79.8887288
  84.0501901 138.9170503  80.3659368  17.7534833  15.2585246  57.2091671
  18.3913243  15.1391993  56.5055011  17.6355676  16.2066090  57.2679623
  14.5624539  15.2112674  57.1453196  14.2243051  15.0953739  56.2573731
  15.4314307  14.8103839  57.1254202  10.4211355  17.0648150  53.1350087
   9.8576220  16.9738087  52.3666374  10.3063750  16.2448055  53.6152579
  15.0444322  16.3647526  63.1039401  15.0332963  15.9700324  62.2319905
  15.2064962  15.6313598  63.6973173   7.9675787  18.5599342  55.9734307
   8.7597079  18.2190167  55.5580607   8.2072437  18.6694317  56.8936461
  16.0010914  20.7319118  48.4464552  15.3498893  21.3173199  48.0598565
  16.7955276  21.2625313  48.5059589   9.9266541  17.8208255  48.8451686
  10.6997417  17.2737242  48.7064562  10.2791940  18.6852505  49.0566147
  11.7651583  19.1484638  62.0518585  11.4741449  20.0530268  61.9365252
  12.4008568  19.1901165  62.7662655  12.6907790  16.5261486  58.6419945
  13.2871362  16.3017508  57.9276908  12.7482762  15.7846232  59.2445393
  12.2632819  13.9800921  46.4770136  12.5158339  13.4582443  45.7153599
  11.3257378  13.8167067  46.5796820  17.3076101  12.9836700  54.2844879
  18.0939191  12.5656123  53.9335296  17.5714806  13.8882792  54.4526528
  17.4786179  18.4209550  48.9833536  16.8432012  18.4944177  49.6954441
  17.1483585  19.0103149  48.3052615  22.7084529  12.9211933  55.1877858
  23.4409700  12.3511150  55.4215687  21.9523884  12.5333533  55.6284363
  11.9829107  15.8829027  48.6794511  11.8665365  15.2073931  49.3475595
  12.0931367  15.3961401  47.8626664  14.3260648  15.3439174  52.3841200
  13.9618855  14.8169795  53.0954122  15.1827764  14.9537643  52.2107686
  16.7241468  18.8346053  59.0468379  16.4242191  19.7371092  58.9384186
  16.3792528  18.5678236  59.8989532  10.1753950  15.2859850  55.0805083
   9.2504446  15.1536064  55.2882775  10.4238363  16.0654069  55.5775026
  20.1238612  11.3528593  56.7265816  19.2155490  11.2844002  56.4324577
  20.0726208  11.8300538  57.5547642  13.9455356  12.8286732  48.3649215
  13.8254981  13.2743782  49.2034696  13.2507944  13.1772049  47.8062754
  11.7062248  25.5990373  52.0139347  11.6286278  26.5498198  52.0927827
  11.1023892  25.2536246  52.6714273  14.1979478  12.7718239  64.6700714
  13.4212812  13.3312159  64.6603578  14.8370041  13.2575022  65.1915584
  21.9900259   9.5545032  58.5043690  21.3474639   9.8477565  57.8583485
  21.4855187   9.4397952  59.3096887  19.6440422  13.3008205  49.1929549
  20.5558278  13.5335592  49.0177247  19.1350069  13.8845249  48.6304628
  12.4525850  15.5803692  64.2318681  13.1940535  16.1188736  63.9553504
  11.7462836  16.2069981  64.3890232  17.9281190  17.7232833  62.8290842
  18.3364546  17.2815243  62.0845474  17.2058451  17.1485460  63.0825035
  14.2812260  12.6605439  60.2024399  15.1273455  13.0844853  60.3459048
  14.2210898  12.0039064  60.8962962  18.2510005  18.2834023  56.5843131
  17.6218867  18.4479737  55.8819199  17.8635667  18.6975633  57.3554095
  22.1299236  19.2188461  53.9387495  21.4450275  19.5987362  53.3884528
  22.2143086  19.8283788  54.6719442  17.4311705  10.3209808  61.8605573
  17.1872637  11.0751868  61.3239848  17.7071636  10.6995155  62.6952820
  19.3850168  16.8648420  60.5382838  19.5967063  17.5080180  59.8617219
  19.3379916  16.0310737  60.0704768  16.9876397   9.4766241  57.4419410
  16.1260876   9.7747494  57.7336148  17.0138832   9.6936640  56.5100443
  13.8037966  18.0208431  53.8493216  14.2676312  18.2996134  53.0597839
  13.5394765  17.1191876  53.6666307  10.6962047  17.5679913  56.7872979
  11.2663405  17.9967181  56.1490464  11.2870159  17.2862498  57.4857165
  12.7406852  14.1431584  50.6582781  13.4430896  14.5952627  51.1256708
  12.4087481  13.5015403  51.2862674  20.4995996  19.7420376  58.7105196
  21.3213440  19.3400563  58.4287877  20.4958399  19.6388610  59.6621311
  14.2652599  19.2904419  60.8665906  14.3297032  19.7524826  61.7024078
  13.5563523  18.6601784  60.9948216  28.5901989  16.0859124  55.0590167
  27.8365697  15.5166522  54.9034171  28.7249530  16.0521789  56.0060802
  13.9800617  20.9572526  50.7344886  13.8446292  21.8024062  51.1629734
  14.5210430  21.1591804  49.9710820   7.4330014  18.4747964  51.3072811
   7.9454535  19.2691215  51.4578376   8.0852727  17.7774255  51.2406413
   9.2424899  21.5913721  53.3895565   9.4191528  22.5131685  53.2016549
  10.0381733  21.2772140  53.8189944  15.6069093  21.5796093  64.8645228
  15.1632948  20.7932471  64.5466133  16.2686307  21.7675243  64.1989119
  10.3656215  23.1091894  59.3905907  10.9163640  22.9808958  58.6182901
   9.5267691  23.4086783  59.0400800  17.7050332  21.8598893  62.8926630
  17.6868807  22.6807774  62.4006899  18.6270252  21.7352968  63.1176771
  14.1623386  19.3743022  63.7350138  14.6951723  18.6131310  63.5049446
  13.6337467  19.0816674  64.4774293  17.2943363  14.4711699  47.7716215
  16.7789987  15.2416304  48.0104602  17.0220672  13.7976835  48.3949276
  22.2677638  17.2244054  49.7069388  21.4907080  16.8855213  49.2624551
  22.9469118  17.2296677  49.0324354  17.0829667  12.3438791  49.5975996
  16.7779802  12.6584941  50.4486139  18.0360109  12.4220211  49.6403329
  15.5276098  18.5029015  51.2468950  14.9997460  17.7681774  50.9342188
  15.0263601  19.2803691  51.0008918  20.5068944  16.6978035  56.3635996
  19.8492619  17.3877297  56.4516125  21.3109344  17.0874467  56.7069983
  19.3174403  15.0522408  54.4139938  19.8306285  15.6852400  54.9161648
  19.9675627  14.4523603  54.0483298  13.6728699  16.3209225  44.2503923
  12.7655760  16.0898478  44.4495072  14.1699731  15.5246844  44.4377905
  16.5796777  25.0306732  47.1700609  15.9058476  25.3338429  47.7785567
  16.9662599  25.8335813  46.8206066  15.7955234  12.5271863  56.6598279
  14.8777795  12.7486810  56.5019967  16.2115378  12.6018174  55.8009986
  16.5790282  13.9263279  51.7900959  17.3262101  14.4384676  51.4808081
  16.8481871  13.6047332  52.6505353  14.8516932  16.4221820  48.7727913
  13.9428151  16.1380853  48.8700383  14.8812016  16.8420898  47.9131220
  20.0836199  20.0328409  52.5419081  19.6298527  19.1919319  52.5984271
  19.4530166  20.6689808  52.8793861  19.0269119  10.9620395  53.7719748
  18.2891876  10.4497782  54.1029991  19.2795893  10.5220777  52.9603025
  18.5269139  21.8704906  53.4768899  18.8192113  22.4309963  52.7581265
  19.0367759  22.1633467  54.2322058  13.4001826  14.0350440  54.8737709
  13.4550436  13.0824277  54.7980185  12.5893028  14.1909880  55.3579007
  14.5493020  17.9630564  46.1115992  14.1112450  17.2466422  45.6521629
  15.2903461  18.1906678  45.5501083  13.4902764  22.6485257  54.5662352
  13.4478943  22.8746103  53.6370884  14.4065463  22.4148632  54.7148153
  16.9368398  13.1169325  61.4642981  17.2917785  13.3440798  62.3237447
  17.5840529  13.4487701  60.8420237  22.6666135  16.2387761  52.1692310
  22.5284033  16.4289357  51.2413500  22.3102353  17.0007143  52.6260362
  22.6935514  18.3064288  57.1803582  23.1272021  18.2139577  58.0286636
  23.4067095  18.2821788  56.5423598  11.6068565  19.5248286  54.3624315
  12.4009163  19.0298606  54.1606890  10.8960257  18.9966149  53.9992020
  16.4263409  21.9066382  58.7136683  16.4800431  22.4757318  59.4814398
  15.5578190  22.0768267  58.3490720  23.5551064  18.3487988  59.7136467
  23.7486954  19.2533799  59.9595742  23.4551682  17.8895407  60.5475052
  18.6166172  18.4994731  65.2877348  18.4651679  18.2705283  64.3707432
  18.6070852  19.4565332  65.3008693  15.3851509  16.0726644  60.2723614
  16.3143569  16.2237803  60.0992582  14.9642539  16.1610665  59.4172261
  14.1839841  20.0977308  58.0422152  14.0450926  19.7296093  58.9148090
  13.3954437  20.6124948  57.8706110  14.7787993  25.1986405  49.3847689
  14.9539748  24.7274448  50.1993311  14.0920781  25.8252171  49.6128949
  15.7345056  19.4758911  55.4310990  15.3994888  19.4359681  56.3268640
  15.2349001  18.8103627  54.9581400   9.7089300  14.8826541  60.9563571
   9.5709098  14.1506780  61.5575110  10.6194223  14.7935441  60.6747759
  18.6704247  16.8214945  45.7048049  18.0533418  16.0961773  45.6081102
  18.2020736  17.5824305  45.3615124  12.3371600  14.5946500  60.4447251
  13.0471219  13.9539692  60.4033869  12.2940909  14.8459395  61.3673431
  20.3258379  21.5313854  63.3653830  20.2670925  20.8473074  62.6984413
  20.7277897  22.2732844  62.9134456   9.3449078  28.3475767  56.1587549
   9.5845676  28.9794292  56.8366567   8.5018274  27.9963807  56.4452908
  20.3275786  19.4953437  61.5967809  19.4402565  19.1579359  61.7194208
  20.8974337  18.7636469  61.8336575  13.8576940  24.1554890  58.5629053
  13.7847111  24.9609861  59.0748357  13.4154333  24.3546856  57.7377074
  13.6466719  23.3926660  52.0731874  12.8634241  23.9348340  52.1670099
  14.3459465  23.9100639  52.4726115  24.8093127  14.9061655  56.3584371
  24.7983003  15.7886370  55.9878304  23.9410506  14.5533206  56.1638908
  16.3175623  24.0541724  60.7187211  17.0303595  24.6889189  60.6463113
  15.8265652  24.1505590  59.9027213  18.0393150  17.9592977  52.2904503
  17.1049429  18.0794439  52.1209207  18.2169819  17.0565443  52.0264513
  21.4265702  13.8010296  52.8254537  21.8926154  14.6338287  52.7514840
  21.8773202  13.3355277  53.5299796  11.3687537  21.8036167  61.5392782
  12.0696996  22.4372650  61.6922176  10.8982652  22.1450899  60.7788421
  19.4941933  20.1454117  49.8240689  19.7701777  20.0310712  50.7334563
  18.6246431  19.7471602  49.7852862  19.1688823  14.3580775  59.3645333
  18.5160273  14.6056682  58.7097785  19.5469203  13.5444913  59.0307810
  16.1295997  24.3940468  53.4673503  16.3118391  23.5762124  53.9301255
  16.9528983  24.6108160  53.0298393  16.4638162  23.3208653  50.7288551
  16.9925929  22.8101108  50.1158713  16.7266382  23.0051183  51.5934084
  15.2176396  15.1000586  65.8511370  14.5417033  14.9994715  66.5213745
  16.0404030  14.9439800  66.3147367   6.9655255  21.3372522  58.4723885
   7.5508692  20.5916210  58.6051789   6.7680093  21.6476479  59.3560549
   9.8193910  24.3723770  53.4886327   9.1504285  24.8569897  53.0050367
   9.6806780  24.6192990  54.4029706  13.9599179  26.4067513  60.0868986
  14.5117487  26.5699135  60.8518071  14.3005372  26.9971951  59.4149010
  18.8110053  21.2328771  65.9417640  19.3549957  21.8458729  65.4472595
  18.2296898  21.7908349  66.4584653  17.0967566  24.3549489  57.0732668
  16.9718705  23.5539229  56.5643613  17.7546657  24.8495682  56.5846638
  19.1602474  22.1558509  58.7012218  18.2132810  22.0363860  58.6290545
  19.5085247  21.2681007  58.7838479  16.1648908  21.9511225  54.9016570
  16.0173870  21.0227933  55.0824140  16.9902401  21.9731316  54.4173645
  19.7683029  22.7739784  55.9881443  20.6929577  22.5682645  55.8505894
  19.5998333  22.5256185  56.8970784  19.5578346  23.2925451  51.3443534
  19.7315223  22.7271874  50.5917387  20.0507237  24.0926346  51.1623024
  25.4117737  16.0561874  52.9633834  25.8548883  15.3069199  52.5652957
  24.5344247  16.0472011  52.5807566  20.5453518  22.6092216  48.4440433
  21.2404423  23.2298908  48.6627747  20.8876668  21.7587567  48.7192810
  22.4444941  20.0591921  49.9727763  22.9696265  20.3979194  49.2477083
  22.3567294  19.1238937  49.7890898  14.1064990  23.9725995  62.1017640
  14.4152116  23.7275142  62.9740340  14.9040472  24.1772633  61.6136510
  14.1285602  26.1263905  54.3323016  13.6890592  25.6340283  55.0255873
  14.8793719  25.5836872  54.0915092   6.6077941  22.3175445  54.3347645
   7.4335961  22.0179217  53.9546288   6.2571993  21.5483068  54.7837433
  11.5759474  21.6701914  56.4045318  10.9539483  21.0072619  56.1047546
  12.2464341  21.6963045  55.7218966   4.8086546  20.2361772  55.2936578
   3.9718454  19.8083946  55.1120579   4.7810192  20.4294215  56.2307369
  22.1338847  20.6924825  65.2778961  21.3434391  20.6748964  64.7383461
  21.8972202  21.2313119  66.0327998  22.2536722  17.5417291  62.5911690
  22.3034727  17.3767299  63.5327213  22.1450646  16.6744550  62.2009571
  11.1372981  20.2205837  49.8803779  11.2861101  20.9041301  49.2270451
  11.9439425  20.2010927  50.3953234  19.5440485  13.5248219  63.9070997
  20.4450348  13.3854684  63.6154994  19.6188459  13.6902674  64.8469174
  23.7554919  19.9614233  62.8353711  23.4639728  20.3244213  63.6717172
  23.1427051  19.2481241  62.6567043  24.9550602  17.5267113  55.3556282
  25.7897493  17.9656917  55.5193842  25.0909730  17.0505766  54.5364527
  22.0042107  15.0846847  61.3033769  22.4796229  15.2774494  60.4952621
  21.0807673  15.1406033  61.0577153   8.8925614  16.2471015  50.8864848
   8.6471656  15.3433345  51.0845058   9.0621529  16.2488165  49.9444326
  14.6368387  22.7153967  47.3515526  14.0642354  23.3344155  46.8985998
  15.2101180  23.2653329  47.8855448  20.7043776  11.9612607  59.5362075
  21.6561199  12.0610705  59.5574299  20.5347227  11.1690876  60.0460159
  18.7258156   9.0468191  59.7221476  18.1308088   9.3273203  59.0267964
  18.4407853   9.5362092  60.4938217  17.8565646  22.9991118  48.4824108
  18.7896320  22.9336679  48.6856984  17.7688859  23.8347384  48.0238641
  20.4853663  22.3156988  45.4428056  20.4067295  21.9816851  46.3363814
  21.3063330  22.8078756  45.4419528  23.1831854  15.1818727  58.6504375
  23.1508174  14.2434728  58.8364058  23.7932478  15.2602764  57.9170199
  15.0215185  14.0514780  44.6931579  15.9674290  13.9220988  44.7619997
  14.6429430  13.3129442  45.1701007  23.3326343  11.9729771  58.6962658
  22.8165391  11.1888227  58.5092587  24.2166291  11.6448487  58.8609177
  29.0008404  16.2434734  57.7910411  29.7311793  15.9820022  58.3518115
  28.3915350  15.5063456  57.8312479  27.0823701  14.3842597  58.3884863
  26.3556865  14.2498562  57.7801354  26.6670988  14.6919425  59.1941581
  14.9053878  18.1032526  66.1532236  15.8256887  18.2811125  66.3472282
  14.8703461  17.1588572  66.0011935   7.9015950  16.0133561  58.7955017
   8.1201960  16.9450669  58.8143051   8.3141724  15.6541535  59.5809821
  20.1289523   7.7080218  51.9133666  19.5488192   8.3665022  51.5311718
  19.8625456   6.8857563  51.5021084  12.6375086  15.0163906  67.0022827
  12.1542167  15.8164266  67.2086716  12.7236025  15.0271850  66.0490271
   5.9061045  16.8492285  54.9244647   5.8831733  16.9479972  53.9726530
   6.2161682  17.6957436  55.2461813   8.5648423  18.9068440  59.0391261
   9.5191677  18.8752383  58.9721193   8.3660947  18.4459064  59.8541487
   9.1547805  17.4769556  61.6062059   9.9740694  17.9713635  61.6296896
   9.4284613  16.5601524  61.5779626  18.9114401   9.8680309  50.9690014
  18.0240256  10.1529959  50.7510209  19.3268390   9.7074072  50.1217291
  22.2628938   9.8926830  54.6844354  23.0389328  10.3823282  54.9568970
  21.5377072  10.3184884  55.1416223  24.7001496  10.6054449  55.7418294
  25.2945987  10.3650185  55.0311602  24.7728080   9.8861579  56.3691830
   6.9198652  24.4488060  56.0561459   6.7853120  23.6888461  55.4899457
   6.5030714  25.1728960  55.5890248  18.0557615  19.6324983  45.0638034
  18.7593465  19.8374986  45.6795690  17.3320264  20.2001745  45.3287118
  18.8855425  15.3834845  51.1840304  18.8290627  15.8403396  50.3447937
  19.4383768  14.6225529  51.0063147  22.6960231  11.1724576  52.0090424
  22.4397165  10.7721212  52.8398632  22.0713099  11.8868370  51.8840563
  27.0072569  13.9120650  54.5161715  26.4472127  13.9813839  55.2893277
  26.4016072  13.7361634  53.7961212  10.0767778  25.3457377  56.2679902
   9.9600162  26.2902809  56.1658592   9.2560224  25.0430938  56.6565701
  19.9644312  20.0707512  47.1136494  20.7989916  19.6388711  46.9313969
  19.8028655  19.8989526  48.0413389  19.6190204  16.5739626  48.4792834
  19.5639008  16.4083897  47.5381278  18.9936260  17.2815659  48.6355023
  16.9336112  18.8788538  67.8046396  17.8027271  19.0529190  67.4433031
  16.4542863  19.6982954  67.6822126  11.1022292  25.9985639  59.4835830
  12.0049539  26.0309249  59.8002325  10.8759662  25.0686090  59.4982166
  12.8575894  24.7516625  56.1445909  11.9071525  24.7518487  56.0310281
  13.1608380  24.0049360  55.6281943  28.5928587  30.5877164  57.2091671
  29.2306997  30.4683911  56.5055011  28.4749430  31.5358008  57.2679623
  25.4018294  30.5404592  57.1453196  25.0636805  30.4245656  56.2573731
  26.2708062  30.1395757  57.1254202  21.2605109  32.3940068  53.1350087
  20.6969974  32.3030005  52.3666374  21.1457504  31.5739973  53.6152579
  25.8838077  31.6939443  63.1039401  25.8726717  31.2992242  62.2319905
  26.0458716  30.9605516  63.6973173  18.8069541  33.8891260  55.9734307
  19.5990833  33.5482084  55.5580607  19.0466191  33.9986235  56.8936461
  26.8404668  36.0611036  48.4464552  26.1892648  36.6465116  48.0598565
  27.6349031  36.5917231  48.5059589  20.7660295  33.1500173  48.8451686
  21.5391171  32.6029160  48.7064562  21.1185694  34.0144422  49.0566147
  22.6045338  34.4776555  62.0518585  22.3135204  35.3822186  61.9365252
  23.2402322  34.5193083  62.7662655  23.5301545  31.8553404  58.6419945
  24.1265117  31.6309426  57.9276908  23.5876516  31.1138149  59.2445393
  23.1026573  29.3092839  46.4770136  23.3552094  28.7874360  45.7153599
  22.1651132  29.1458984  46.5796820  28.1469856  28.3128617  54.2844879
  28.9332945  27.8948041  53.9335296  28.4108560  29.2174710  54.4526528
  28.3179933  33.7501468  48.9833536  27.6825766  33.8236094  49.6954441
  27.9877340  34.3395067  48.3052615  33.5478283  28.2503851  55.1877858
  34.2803455  27.6803067  55.4215687  32.7917639  27.8625451  55.6284363
  22.8222862  31.2120945  48.6794511  22.7059120  30.5365848  49.3475595
  22.9325122  30.7253319  47.8626664  25.1654403  30.6731092  52.3841200
  24.8012610  30.1461713  53.0954122  26.0221519  30.2829561  52.2107686
  31.0703703  21.9625425  59.6472466  30.7387028  22.8320836  59.4233681
  30.4749317  21.6461709  60.3266497  24.8059890  25.7020992  47.3802549
  24.9734292  26.5701228  47.7473020  24.6157059  25.8648274  46.4563838
  27.5635223  34.1637971  59.0468379  27.2635946  35.0663010  58.9384186
  27.2186282  33.8970154  59.8989532  21.0147704  30.6151768  55.0805083
  20.0898201  30.4827982  55.2882775  21.2632118  31.3945987  55.5775026
  30.9632367  26.6820511  56.7265816  30.0549244  26.6135919  56.4324577
  30.9119962  27.1592456  57.5547642  24.7849111  28.1578649  48.3649215
  24.6648736  28.6035700  49.2034696  24.0901699  28.5063967  47.8062754
  18.3756515  30.2585041  55.9148872  18.5048897  30.5119520  56.8288284
  17.6953967  30.8512749  55.5953528  22.5456003  40.9282291  52.0139347
  22.4680032  41.8790116  52.0927827  21.9417646  40.5828164  52.6714273
  25.0373232  28.1010156  64.6700714  24.2606567  28.6604077  64.6603578
  25.6763796  28.5866939  65.1915584  32.8294013  24.8836949  58.5043690
  32.1868393  25.1769482  57.8583485  32.3248942  24.7689870  59.3096887
  30.4834177  28.6300122  49.1929549  31.3952033  28.8627509  49.0177247
  29.9743824  29.2137167  48.6304628  23.2919605  30.9095610  64.2318681
  24.0334289  31.4480654  63.9553504  22.5856590  31.5361899  64.3890232
  28.7674944  33.0524750  62.8290842  29.1758300  32.6107161  62.0845474
  28.0452206  32.4777378  63.0825035  25.1206014  27.9897357  60.2024399
  25.9667210  28.4136771  60.3459048  25.0604652  27.3330981  60.8962962
  29.0903759  33.6125941  56.5843131  28.4612621  33.7771655  55.8819199
  28.7029421  34.0267550  57.3554095  32.9692991  34.5480379  53.9387495
  32.2844029  34.9279280  53.3884528  33.0536840  35.1575705  54.6719442
  28.2705460  25.6501725  61.8605573  28.0266392  26.4043786  61.3239848
  28.5465390  26.0287073  62.6952820  30.2243923  32.1940338  60.5382838
  30.4360818  32.8372098  59.8617219  30.1773671  31.3602654  60.0704768
  27.8270151  24.8058158  57.4419410  26.9654631  25.1039412  57.7336148
  27.8532586  25.0228557  56.5100443  24.6431721  33.3500349  53.8493216
  25.1070066  33.6288052  53.0597839  24.3788519  32.4483794  53.6666307
  21.5355802  32.8971831  56.7872979  22.1057159  33.3259099  56.1490464
  22.1263914  32.6154415  57.4857165  23.5800607  29.4723501  50.6582781
  24.2824650  29.9244545  51.1256708  23.2481235  28.8307320  51.2862674
  22.0280968  28.0635258  65.0333991  21.3979629  28.7451539  65.2669387
  21.9217056  27.9518340  64.0887129  17.3225941  27.7307054  55.9599915
  16.5324995  27.9864583  55.4840025  17.8137188  28.5455392  56.0651955
  31.3389750  35.0712293  58.7105196  32.1607194  34.6692481  58.4287877
  31.3352153  34.9680527  59.6621311  19.2740686  28.0951633  52.9183391
  18.4771850  28.2070328  53.4366887  19.0466279  28.4338286  52.0524282
  25.1046354  34.6196337  60.8665906  25.1690786  35.0816744  61.7024078
  24.3957278  33.9893701  60.9948216  15.6063644  27.9837545  58.3914906
  15.8571682  28.8684554  58.6572481  16.1423192  27.8042146  57.6189997
  39.4295744  31.4151042  55.0590167  38.6759452  30.8458440  54.9034171
  39.5643285  31.3813706  56.0060802  24.8194372  36.2864444  50.7344886
  24.6840046  37.1315980  51.1629734  25.3604184  36.4883722  49.9710820
  21.3061711  22.3656024  67.3959242  20.9128657  21.8122222  68.0706886
  22.1227852  22.6766602  67.7865759  18.2723769  33.8039882  51.3072811
  18.7848290  34.5983132  51.4578376  18.9246482  33.1066173  51.2406413
  20.0818654  36.9205638  53.3895565  20.2585282  37.8423603  53.2016549
  20.8775487  36.6064058  53.8189944  24.2229672  23.7813903  64.9879498
  24.9639386  24.3821056  64.9083961  24.4547595  23.0391541  64.4297541
  19.3671010  28.9670270  63.2657728  19.2524525  28.0655527  63.5664827
  18.5115528  29.2133967  62.9142544  26.4462848  36.9088011  64.8645228
  26.0026702  36.1224389  64.5466133  27.1080062  37.0967161  64.1989119
  21.2049969  38.4383812  59.3905907  21.7557394  38.3100875  58.6182901
  20.3661445  38.7378701  59.0400800  28.5444086  37.1890810  62.8926630
  28.5262561  38.0099691  62.4006899  29.4664006  37.0644886  63.1176771
  25.0017140  34.7034940  63.7350138  25.5345477  33.9423228  63.5049446
  24.4731221  34.4108592  64.4774293  28.1686835  19.8095006  59.2643780
  27.8251105  20.6996648  59.1882890  28.5365798  19.6196664  58.4013365
  16.2372686  32.1328536  52.0832382  17.0747908  32.5425545  51.8666090
  16.4150953  31.1927979  52.0532576  28.1337118  29.8003617  47.7716215
  27.6183741  30.5708222  48.0104602  27.8614426  29.1268753  48.3949276
  25.7184229  24.6453318  52.8301453  24.8625825  24.2560168  52.6507092
  26.1311181  24.7245279  51.9701239  27.2483376  22.1799661  57.2293013
  26.7448171  22.1429796  56.4160818  27.5413982  23.0892404  57.2889670
  23.4926261  22.2638391  56.2359195  24.3579258  22.0681199  55.8765084
  23.5603770  22.0348743  57.1628552  33.1071392  32.5535972  49.7069388
  32.3300835  32.2147131  49.2624551  33.7862873  32.5588595  49.0324354
  27.9223421  27.6730709  49.5975996  27.6173557  27.9876858  50.4486139
  28.8753863  27.7512129  49.6403329  26.3669853  33.8320932  51.2468950
  25.8391214  33.0973692  50.9342188  25.8657356  34.6095609  51.0008918
  31.3462699  32.0269953  56.3635996  30.6886373  32.7169214  56.4516125
  32.1503098  32.4166385  56.7069983  21.0988581  24.4940599  53.6075562
  21.6732332  24.2715780  52.8748755  21.6859563  24.5629293  54.3604163
  30.1568158  30.3814326  54.4139938  30.6700039  31.0144317  54.9161648
  30.8069382  29.7815521  54.0483298  21.4258168  26.5245060  47.6271447
  20.5895480  26.8619746  47.9480722  21.2862937  26.3894040  46.6898584
  23.4011248  21.3681848  52.3350631  22.7475661  21.0530865  51.7107246
  23.3591722  20.7457588  53.0610454  24.5122453  31.6501143  44.2503923
  23.6049515  31.4190396  44.4495072  25.0093485  30.8538762  44.4377905
  27.4190532  40.3598650  47.1700609  26.7452231  40.6630347  47.7785567
  27.8056354  41.1627730  46.8206066  26.6348989  27.8563781  56.6598279
  25.7171550  28.0778728  56.5019967  27.0509132  27.9310092  55.8009986
  27.4184036  29.2555197  51.7900959  28.1655855  29.7676594  51.4808081
  27.6875626  28.9339250  52.6505353  25.6910687  31.7513738  48.7727913
  24.7821906  31.4672770  48.8700383  25.7205770  32.1712816  47.9131220
  30.9229954  35.3620327  52.5419081  30.4692281  34.5211237  52.5984271
  30.2923921  35.9981725  52.8793861  29.8662873  26.2912313  53.7719748
  29.1285630  25.7789699  54.1029991  30.1189647  25.8512695  52.9603025
  29.3662893  37.1996824  53.4768899  29.6585868  37.7601881  52.7581265
  29.8761514  37.4925385  54.2322058  29.9674501  19.0688565  54.3661518
  30.2733378  18.2085929  54.0787433  30.6927106  19.6606185  54.1660511
  16.2598857  29.4719252  52.7543115  16.0623257  28.8788612  52.0294182
  15.7045521  29.1671462  53.4719054  24.2395581  29.3642358  54.8737709
  24.2944190  28.4116195  54.7980185  23.4286783  29.5201797  55.3579007
  25.3886774  33.2922481  46.1115992  24.9506204  32.5758340  45.6521629
  26.1297215  33.5198596  45.5501083  22.1787940  27.9819418  52.6328087
  21.3655806  28.2813588  53.0393280  22.6746935  27.5875107  53.3502570
  24.3296518  37.9777175  54.5662352  24.2872697  38.2038021  53.6370884
  25.2459217  37.7440549  54.7148153  27.7762152  28.4461242  61.4642981
  28.1311540  28.6732716  62.3237447  28.4234283  28.7779619  60.8420237
  33.5059889  31.5679678  52.1692310  33.3677788  31.7581274  51.2413500
  33.1496108  32.3299061  52.6260362  21.6702015  25.5537773  58.2489322
  22.3101395  25.4126533  57.5512286  20.8379546  25.2672287  57.8727924
  33.5329269  33.6356205  57.1803582  33.9665775  33.5431494  58.0286636
  34.2460849  33.6113706  56.5423598  22.4462319  34.8540204  54.3624315
  23.2402918  34.3590524  54.1606890  21.7354012  34.3258067  53.9992020
  27.2657164  37.2358299  58.7136683  27.3194186  37.8049236  59.4814398
  26.3971945  37.4060184  58.3490720  18.7545083  28.9983286  50.4384068
  17.8242671  28.9367741  50.6554030  18.8502555  28.4759238  49.6420709
  18.6730632  25.5238098  53.0262309  18.9337449  26.4383432  52.9171470
  19.4947804  25.0562541  53.1758922  20.1455557  26.9375856  60.1961134
  20.8178610  26.7293218  59.5473783  19.3185344  26.7397942  59.7566366
  34.3944818  33.6779906  59.7136467  34.5880708  34.5825716  59.9595742
  34.2945436  33.2187325  60.5475052  26.0481129  23.5637796  62.2126795
  25.4009044  24.2627746  62.1191271  26.8182144  23.9973940  62.5803043
  29.4559927  33.8286649  65.2877348  29.3045433  33.5997200  64.3707432
  29.4464606  34.7857250  65.3008693  26.2245263  31.4018561  60.2723614
  27.1537323  31.5529721  60.0992582  25.8036293  31.4902582  59.4172261
  25.0233595  35.4269226  58.0422152  24.8844681  35.0588010  58.9148090
  24.2348191  35.9416865  57.8706110  25.6181747  40.5278322  49.3847689
  25.7933503  40.0566365  50.1993311  24.9314535  41.1544088  49.6128949
  26.5738810  34.8050829  55.4310990  26.2388643  34.7651598  56.3268640
  26.0742756  34.1395544  54.9581400  20.5483054  30.2118459  60.9563571
  20.4102852  29.4798697  61.5575110  21.4587978  30.1227359  60.6747759
  29.5098002  32.1506863  45.7048049  28.8927173  31.4253691  45.6081102
  29.0414490  32.9116223  45.3615124  23.1765355  29.9238418  60.4447251
  23.8864973  29.2831610  60.4033869  23.1334663  30.1751313  61.3673431
  31.1652134  36.8605771  63.3653830  31.1064680  36.1764991  62.6984413
  31.5671652  37.6024761  62.9134456  21.8894289  26.9103636  62.2642890
  21.3531646  26.4594374  62.9164486  21.3010997  27.0449545  61.5213354
  20.1842832  43.6767685  56.1587549  20.4239431  44.3086209  56.8366567
  19.3412029  43.3255725  56.4452908  21.2996548  26.3692287  44.8269354
  20.4226014  26.2481088  44.4631600  21.7754301  25.5778365  44.5748242
  31.1669541  34.8245355  61.5967809  30.2796320  34.4871277  61.7194208
  31.7368092  34.0928386  61.8336575  12.8198688  31.1569447  54.9210861
  13.5069728  30.8431177  54.3331876  12.6646817  32.0610812  54.6478112
  17.6233410  26.0459643  59.3495885  17.5391599  25.4385313  58.6146294
  16.8016117  26.5368662  59.3505381  24.6970694  39.4846807  58.5629053
  24.6240866  40.2901779  59.0748357  24.2548087  39.6838773  57.7377074
  24.4860474  38.7218578  52.0731874  23.7027996  39.2640258  52.1670099
  25.1853219  39.2392557  52.4726115  27.7957124  24.5313207  54.7166080
  28.2925824  23.7783169  54.3967150  27.0244105  24.5677524  54.1509289
  35.6486881  30.2353573  56.3584371  35.6376758  31.1178288  55.9878304
  34.7804261  29.8825123  56.1638908  27.1569378  39.3833642  60.7187211
  27.8697350  40.0181106  60.6463113  26.6659406  39.4797508  59.9027213
  28.8786905  33.2884894  52.2904503  27.9443183  33.4086357  52.1209207
  29.0563573  32.3857361  52.0264513  24.3792093  26.6730590  54.4437764
  24.0089880  26.1201630  55.1318670  24.8751185  26.0688723  53.8912764
  32.2659456  29.1302213  52.8254537  32.7319908  29.9630205  52.7514840
  32.7166957  28.6647195  53.5299796  22.2081291  37.1328085  61.5392782
  22.9090751  37.7664568  61.6922176  21.7376406  37.4742817  60.7788421
  30.3335687  35.4746035  49.8240689  30.6095531  35.3602629  50.7334563
  29.4640186  35.0763520  49.7852862  30.2376119  21.4982800  56.8645438
  29.3239199  21.7287027  57.0327645  30.6669220  21.5821245  57.7159471
  30.0082577  29.6872692  59.3645333  29.3554028  29.9348600  58.7097785
  30.3862957  28.8736831  59.0307810  26.9689751  39.7232386  53.4673503
  27.1512146  38.9054042  53.9301255  27.7922737  39.9400078  53.0298393
  27.3031917  38.6500571  50.7288551  27.8319683  38.1393025  50.1158713
  27.5660136  38.3343101  51.5934084  26.0570150  30.4292503  65.8511370
  25.3810787  30.3286633  66.5213745  26.8797784  30.2731717  66.3147367
  17.8049009  36.6664440  58.4723885  18.3902446  35.9208128  58.6051789
  17.6073848  36.9768397  59.3560549  20.6587665  39.7015687  53.4886327
  19.9898040  40.1861815  53.0050367  20.5200534  39.9484908  54.4029706
  12.3966664  29.2370040  57.1928328  12.4350764  28.7033631  57.9865446
  11.8906957  28.7105246  56.5739305  24.7992933  41.7359431  60.0868986
  25.3511241  41.8991052  60.8518071  25.1399127  42.3263869  59.4149010
  19.7757426  24.0834581  60.6890870  19.8398753  24.9449412  60.2768268
  19.7124547  23.4708582  59.9563229  19.2509699  26.1557713  64.3363905
  19.8781738  25.7734791  64.9501429  18.3937618  25.9371915  64.7019597
  29.6503808  36.5620688  65.9417640  30.1943711  37.1750647  65.4472595
  29.0690652  37.1200267  66.4584653  16.0275242  27.9634142  50.2682259
  16.3228683  27.0544821  50.2149313  15.1263277  27.9421882  49.9463262
  27.9361320  39.6841406  57.0732668  27.8112460  38.8831146  56.5643613
  28.5940412  40.1787600  56.5846638  19.5569489  26.0390139  56.2509808
  18.8356074  26.6526107  56.1117281  20.3462744  26.5747904  56.1726454
  29.9996229  37.4850427  58.7012218  29.0526564  37.3655778  58.6290545
  30.3479002  36.5972925  58.7838479  22.3595802  23.3744565  62.5250460
  22.8830204  23.6206862  63.2876769  22.1408135  24.2064600  62.1053597
  17.7563083  25.6448240  50.3921585  17.4275789  24.7645619  50.2096690
  18.1102454  25.5895909  51.2797974  27.0042662  37.2803143  54.9016570
  26.8567625  36.3519850  55.0824140  27.8296156  37.3023233  54.4173645
  20.8704906  25.9321210  50.7597062  21.2100979  26.4607131  50.0375671
  21.3177027  26.2701616  51.5355629  30.6076784  38.1031702  55.9881443
  31.5323331  37.8974563  55.8505894  30.4392087  37.8548103  56.8970784
  23.5648347  24.3158261  60.2100130  23.2245168  23.5166074  60.6120810
  22.8587354  24.6159971  59.6376963  24.2164819  21.4007573  58.6627453
  25.0390888  20.9268051  58.5406344  24.4602883  22.1798057  59.1626140
  22.8573054  24.4295831  48.9590355  23.5781416  24.8077084  48.4554072
  22.2338358  25.1484708  49.0625333  27.0004176  25.1340980  49.8948687
  27.2167791  26.0165618  49.5937515  26.5198244  24.7427194  49.1654329
  21.7403398  28.0926694  56.4719432  21.5947979  28.4066997  57.3643713
  21.2628601  28.7111594  55.9190331  23.5999781  25.0829242  56.5200321
  23.5861349  24.1870335  56.1832619  24.3172209  25.0899905  57.1538607
  25.4525911  25.5166582  58.5653449  25.1943689  26.4383652  58.5637779
  24.9210952  25.1197016  59.2553913  30.3972100  38.6217369  51.3443534
  30.5708978  38.0563791  50.5917387  30.8900991  39.4218264  51.1623024
  16.2149060  30.6332038  59.4107093  15.6702528  31.4091846  59.5427367
  17.0928410  30.9802843  59.2526215  23.0036677  23.9643622  51.7887892
  23.1252588  23.0360268  51.9878779  22.7138719  23.9782308  50.8766207
  25.8727867  21.6498532  54.9254611  25.8949564  21.7137865  53.9706591
  26.2895926  20.8103041  55.1195118  36.2511491  31.3853792  52.9633834
  36.6942637  30.6361117  52.5652957  35.3738002  31.3763928  52.5807566
  31.3847273  37.9384133  48.4440433  32.0798177  38.5590826  48.6627747
  31.7270423  37.0879485  48.7192810  17.0015082  29.7601934  62.3037250
  16.2596818  29.9084570  62.8901880  16.6807826  30.0210200  61.4403999
  33.2838696  35.3883839  49.9727763  33.8090020  35.7271112  49.2477083
  33.1961048  34.4530854  49.7890898  24.9458744  39.3017913  62.1017640
  25.2545871  39.0567059  62.9740340  25.7434227  39.5064551  61.6136510
  24.9679357  41.4555822  54.3323016  24.5284347  40.9632201  55.0255873
  25.7187474  40.9128790  54.0915092  17.4471696  37.6467363  54.3347645
  18.2729715  37.3471135  53.9546288  17.0965748  36.8774985  54.7837433
  22.4153229  36.9993831  56.4045318  21.7933238  36.3364536  56.1047546
  23.0858096  37.0254963  55.7218966  15.6480301  35.5653689  55.2936578
  14.8112209  35.1375864  55.1120579  15.6203946  35.7586133  56.2307369
  22.4877756  25.4775619  65.9977824  22.5365912  26.3537742  65.6155594
  23.0300270  24.9353012  65.4249467  32.9732602  36.0216743  65.2778961
  32.1828146  36.0040881  64.7383461  32.7365956  36.5605036  66.0327998
  33.0930477  32.8709209  62.5911690  33.1428482  32.7059216  63.5327213
  32.9844400  32.0036468  62.2009571  21.9766736  35.5497755  49.8803779
  22.1254856  36.2333219  49.2270451  22.7833179  35.5302845  50.3953234
  30.3834239  28.8540137  63.9070997  31.2844102  28.7146602  63.6154994
  30.4582214  29.0194592  64.8469174  24.7177045  26.2306992  62.7524183
  23.8480354  26.5240558  62.4806771  24.9536525  26.8147437  63.4731446
  34.5948674  35.2906150  62.8353711  34.3033482  35.6536131  63.6717172
  33.9820805  34.5773159  62.6567043  35.7944356  32.8559030  55.3556282
  36.6291247  33.2948834  55.5193842  35.9303485  32.3797683  54.5364527
  32.8435862  30.4138765  61.3033769  33.3189984  30.6066411  60.4952621
  31.9201427  30.4697951  61.0577153  19.7319369  31.5762932  50.8864848
  19.4865411  30.6725262  51.0845058  19.9015283  31.5780083  49.9444326
  27.4216078  22.4486609  60.2689603  27.9398022  23.1847636  59.9436092
  27.0671211  22.7550602  61.1036362  19.0015016  27.3091290  48.3851009
  18.3084261  27.3835645  47.7291045  18.7566768  26.5451633  48.9072526
  27.6728673  18.8686891  55.7890500  27.9530426  18.2010080  56.4150926
  28.4579280  19.0615987  55.2765164  25.4762141  38.0445885  47.3515526
  24.9036108  38.6636072  46.8985998  26.0494935  38.5945247  47.8855448
  31.5437531  27.2904525  59.5362075  32.4954954  27.3902623  59.5574299
  31.3740981  26.4982794  60.0460159  29.5651910  24.3760108  59.7221476
  28.9701843  24.6565121  59.0267964  29.2801607  24.8654009  60.4938217
  28.6959401  38.3283035  48.4824108  29.6290074  38.2628597  48.6856984
  28.6082614  39.1639302  48.0238641  31.3247418  37.6448906  45.4428056
  31.2461049  37.3108769  46.3363814  32.1457084  38.1370673  45.4419528
  34.0225609  30.5110645  58.6504375  33.9901929  29.5726646  58.8364058
  34.6326232  30.5894682  57.9170199  25.8608940  29.3806698  44.6931579
  26.8068044  29.2512906  44.7619997  25.4823185  28.6421360  45.1701007
  34.1720097  27.3021688  58.6962658  33.6559146  26.5180145  58.5092587
  35.0560046  26.9740405  58.8609177  31.8330824  21.0462704  54.6558470
  31.6355645  20.7377792  55.5401802  32.4430530  21.7724343  54.7856400
  39.8402159  31.5726652  57.7910411  40.5705547  31.3111940  58.3518115
  39.2309104  30.8355374  57.8312479  37.9217456  29.7134514  58.3884863
  37.1950619  29.5790479  57.7801354  37.5064743  30.0211343  59.1941581
  25.7447632  33.4324444  66.1532236  26.6650642  33.6103043  66.3472282
  25.7097215  32.4880489  66.0011935  24.0451857  27.3056674  44.6286464
  23.1383312  27.0089787  44.7049177  24.3227838  27.0086492  43.7620750
  14.9629797  28.6263038  55.0785510  14.6432582  27.7728346  54.7859884
  14.4163225  28.8411616  55.8343478  18.7409705  31.3425479  58.7955017
  18.9595714  32.2742586  58.8143051  19.1535479  30.9833453  59.5809821
  25.6613923  21.8493564  50.7830705  24.8514651  21.5040649  51.1585951
  26.3498339  21.5401108  51.3718317  27.5904471  20.9271611  52.4055002
  28.1435509  21.3467064  53.0645025  27.8274557  20.0007359  52.4477958
  23.6137570  26.9158684  68.1857766  23.5134297  27.8653041  68.1169857
  23.3959112  26.5876923  67.3133836  22.8150641  24.1643609  44.7698443
  23.6769805  24.4898508  45.0294260  23.0000986  23.3775105  44.2571509
  14.8318057  32.2465949  57.0478632  14.1381529  31.8319902  56.5348586
  15.5791048  32.2886486  56.4512051  30.9683278  23.0372136  51.9133666
  30.3881947  23.6956940  51.5311718  30.7019211  22.2149480  51.5021084
  29.4186844  22.4377194  54.1154986  29.9186623  22.5493728  53.3069305
  30.0622452  22.1338246  54.7555795  23.4768840  30.3455823  67.0022827
  22.9935922  31.1456183  67.2086716  23.5629779  30.3563768  66.0490271
  16.7454800  32.1784203  54.9244647  16.7225488  32.2771890  53.9726530
  17.0555436  33.0249354  55.2461813  19.4042178  34.2360358  59.0391261
  20.3585431  34.2044300  58.9721193  19.2054701  33.7750982  59.8541487
  19.9941560  32.8061474  61.6062059  20.8134449  33.3005553  61.6296896
  20.2678367  31.8893442  61.5779626  29.7508156  25.1972226  50.9690014
  28.8634011  25.4821877  50.7510209  30.1662145  25.0365990  50.1217291
  33.1022692  25.2218747  54.6844354  33.8783082  25.7115200  54.9568970
  32.3770826  25.6476801  55.1416223  35.5395251  25.9346366  55.7418294
  36.1339741  25.6942102  55.0311602  35.6121834  25.2153497  56.3691830
  17.7592406  39.7779977  56.0561459  17.6246874  39.0180378  55.4899457
  17.3424469  40.5020877  55.5890248  28.8951369  34.9616901  45.0638034
  29.5987219  35.1666903  45.6795690  28.1714018  35.5293663  45.3287118
  29.7249180  30.7126762  51.1840304  29.6684381  31.1695314  50.3447937
  30.2777522  29.9517447  51.0063147  33.5353986  26.5016494  52.0090424
  33.2790920  26.1013130  52.8398632  32.9106854  27.2160288  51.8840563
  37.8466323  29.2412567  54.5161715  37.2865881  29.3105757  55.2893277
  37.2409827  29.0653552  53.7961212  20.9161532  40.6749294  56.2679902
  20.7993916  41.6194727  56.1658592  20.0953979  40.3722856  56.6565701
  30.8038067  35.3999430  47.1136494  31.6383671  34.9680629  46.9313969
  30.6422410  35.2281444  48.0413389  30.4583959  31.9031543  48.4792834
  30.4032763  31.7375815  47.5381278  29.8330014  32.6107576  48.6355023
  15.2476474  27.1399608  62.3054256  15.8935338  26.6298562  62.7941481
  15.0393625  27.8768289  62.8797681  27.7729866  34.2080455  67.8046396
  28.6421026  34.3821108  67.4433031  27.2936618  35.0274872  67.6822126
  23.7680084  21.4039652  48.0578152  23.7558754  22.3481492  48.2146423
  24.6603506  21.2209798  47.7637613  21.9416046  41.3277556  59.4835830
  22.8443293  41.3601167  59.8002325  21.7153416  40.3978007  59.4982166
  23.6969648  40.0808543  56.1445909  22.7465279  40.0810404  56.0310281
  24.0002135  39.3341277  55.6281943  27.5832204  17.9982429  52.3124089
  26.8164600  17.4440916  52.4580771  27.9942909  18.0704298  53.1738240
  19.5873965  24.2867225  66.4029270  20.4505427  23.9304030  66.6132595
  19.0139376  23.9481120  67.0904674  39.4322342  45.9169081  57.2091671
  40.0700752  45.7975829  56.5055011  39.3143185  46.8649925  57.2679623
  36.2412048  45.8696509  57.1453196  35.9030560  45.7537574  56.2573731
  37.1101816  45.4687674  57.1254202  32.0998864  47.7231986  53.1350087
  31.5363729  47.6321923  52.3666374  31.9851259  46.9031890  53.6152579
  36.7231831  47.0231361  63.1039401  36.7120472  46.6284159  62.2319905
  36.8852471  46.2897434  63.6973173  29.6463296  49.2183177  55.9734307
  30.4384588  48.8774002  55.5580607  29.8859946  49.3278152  56.8936461
  37.6798423  51.3902953  48.4464552  37.0286402  51.9757034  48.0598565
  38.4742785  51.9209148  48.5059589  31.6054050  48.4792091  48.8451686
  32.3784926  47.9321078  48.7064562  31.9579449  49.3436340  49.0566147
  33.4439092  49.8068473  62.0518585  33.1528958  50.7114104  61.9365252
  34.0796077  49.8485000  62.7662655  34.3695299  47.1845321  58.6419945
  34.9658871  46.9601344  57.9276908  34.4270271  46.4430067  59.2445393
  33.9420328  44.6384757  46.4770136  34.1945848  44.1166278  45.7153599
  33.0044887  44.4750902  46.5796820  38.9863610  43.6420535  54.2844879
  39.7726700  43.2239958  53.9335296  39.2502315  44.5466627  54.4526528
  39.1573688  49.0793385  48.9833536  38.5219521  49.1528012  49.6954441
  38.8271094  49.6686984  48.3052615  44.3872037  43.5795768  55.1877858
  45.1197209  43.0094985  55.4215687  43.6311393  43.1917369  55.6284363
  33.6616616  46.5412863  48.6794511  33.5452874  45.8657766  49.3475595
  33.7718876  46.0545237  47.8626664  36.0048157  46.0023010  52.3841200
  35.6406364  45.4753631  53.0954122  36.8615273  45.6121479  52.2107686
  41.9097458  37.2917342  59.6472466  41.5780783  38.1612753  59.4233681
  41.3143071  36.9753626  60.3266497  35.6453644  41.0312909  47.3802549
  35.8128047  41.8993146  47.7473020  35.4550813  41.1940191  46.4563838
  38.4028977  49.4929888  59.0468379  38.1029700  50.3954927  58.9384186
  38.0580037  49.2262072  59.8989532  31.8541459  45.9443685  55.0805083
  30.9291955  45.8119899  55.2882775  32.1025872  46.7237904  55.5775026
  41.8026121  42.0112429  56.7265816  40.8942998  41.9427837  56.4324577
  41.7513717  42.4884374  57.5547642  35.6242865  43.4870567  48.3649215
  35.5042490  43.9327618  49.2034696  34.9295453  43.8355885  47.8062754
  29.2150270  45.5876959  55.9148872  29.3442651  45.8411438  56.8288284
  28.5347721  46.1804667  55.5953528  33.3849757  56.2574209  52.0139347
  33.3073787  57.2082034  52.0927827  32.7811401  55.9120081  52.6714273
  43.6687768  40.2128867  58.5043690  43.0262148  40.5061400  57.8583485
  43.1642696  40.0981787  59.3096887  41.3227931  43.9592040  49.1929549
  42.2345787  44.1919427  49.0177247  40.8137578  44.5429084  48.6304628
  35.9599769  43.3189275  60.2024399  36.8060964  43.7428688  60.3459048
  35.8998407  42.6622899  60.8962962  39.9297514  48.9417859  56.5843131
  39.3006376  49.1063573  55.8819199  39.5423176  49.3559468  57.3554095
  43.8086745  49.8772296  53.9387495  43.1237784  50.2571198  53.3884528
  43.8930595  50.4867623  54.6719442  39.1099214  40.9793643  61.8605573
  38.8660146  41.7335704  61.3239848  39.3859145  41.3578991  62.6952820
  41.0637677  47.5232255  60.5382838  41.2754572  48.1664015  59.8617219
  41.0167425  46.6894572  60.0704768  38.6663906  40.1350076  57.4419410
  37.8048385  40.4331330  57.7336148  38.6926341  40.3520475  56.5100443
  35.4825475  48.6792267  53.8493216  35.9463821  48.9579970  53.0597839
  35.2182274  47.7775711  53.6666307  32.3749556  48.2263748  56.7872979
  32.9450914  48.6551017  56.1490464  32.9657668  47.9446333  57.4857165
  34.4194361  44.8015419  50.6582781  35.1218405  45.2536463  51.1256708
  34.0874990  44.1599238  51.2862674  28.1619695  43.0598972  55.9599915
  27.3718749  43.3156500  55.4840025  28.6530943  43.8747310  56.0651955
  42.1783505  50.4004211  58.7105196  43.0000949  49.9984398  58.4287877
  42.1745908  50.2972445  59.6621311  30.1134441  43.4243551  52.9183391
  29.3165604  43.5362245  53.4366887  29.8860033  43.7630203  52.0524282
  35.9440108  49.9488254  60.8665906  36.0084541  50.4108661  61.7024078
  35.2351032  49.3185619  60.9948216  26.4457398  43.3129462  58.3914906
  26.6965437  44.1976472  58.6572481  26.9816947  43.1334064  57.6189997
  50.2689498  46.7442959  55.0590167  49.5153206  46.1750357  54.9034171
  50.4037039  46.7105624  56.0060802  35.6588126  51.6156362  50.7344886
  35.5233801  52.4607897  51.1629734  36.1997939  51.8175639  49.9710820
  32.1455466  37.6947942  67.3959242  31.7522411  37.1414140  68.0706886
  32.9621606  38.0058520  67.7865759  29.1117523  49.1331800  51.3072811
  29.6242044  49.9275050  51.4578376  29.7640236  48.4358090  51.2406413
  30.9212408  52.2497556  53.3895565  31.0979037  53.1715521  53.2016549
  31.7169242  51.9355975  53.8189944  35.0623427  39.1105821  64.9879498
  35.8033140  39.7112974  64.9083961  35.2941350  38.3683458  64.4297541
  30.2064765  44.2962188  63.2657728  30.0918280  43.3947445  63.5664827
  29.3509282  44.5425885  62.9142544  32.0443724  53.7675730  59.3905907
  32.5951149  53.6392793  58.6182901  31.2055200  54.0670619  59.0400800
  39.3837841  52.5182728  62.8926630  39.3656316  53.3391609  62.4006899
  40.3057761  52.3936803  63.1176771  39.0080590  35.1386924  59.2643780
  38.6644859  36.0288565  59.1882890  39.3759552  34.9488581  58.4013365
  27.0766440  47.4620454  52.0832382  27.9141662  47.8717462  51.8666090
  27.2544708  46.5219896  52.0532576  38.9730872  45.1295535  47.7716215
  38.4577496  45.9000139  48.0104602  38.7008181  44.4560671  48.3949276
  36.5577983  39.9745235  52.8301453  35.7019580  39.5852086  52.6507092
  36.9704935  40.0537196  51.9701239  38.0877130  37.5091579  57.2293013
  37.5841926  37.4721714  56.4160818  38.3807737  38.4184321  57.2889670
  34.3320016  37.5930308  56.2359195  35.1973013  37.3973117  55.8765084
  34.3997525  37.3640660  57.1628552  43.9465147  47.8827889  49.7069388
  43.1694589  47.5439049  49.2624551  44.6256627  47.8880512  49.0324354
  38.7617176  43.0022627  49.5975996  38.4567311  43.3168776  50.4486139
  39.7147618  43.0804047  49.6403329  37.2063607  49.1612850  51.2468950
  36.6784969  48.4265610  50.9342188  36.7051110  49.9387526  51.0008918
  42.1856453  47.3561871  56.3635996  41.5280128  48.0461132  56.4516125
  42.9896853  47.7458303  56.7069983  31.9382335  39.8232516  53.6075562
  32.5126087  39.6007698  52.8748755  32.5253317  39.8921211  54.3604163
  40.9961912  45.7106243  54.4139938  41.5093794  46.3436235  54.9161648
  41.6463136  45.1107439  54.0483298  32.2651922  41.8536977  47.6271447
  31.4289234  42.1911664  47.9480722  32.1256692  41.7185957  46.6898584
  34.2405003  36.6973765  52.3350631  33.5869415  36.3822782  51.7107246
  34.1985477  36.0749506  53.0610454  35.3516208  46.9793060  44.2503923
  34.4443269  46.7482314  44.4495072  35.8487240  46.1830680  44.4377905
  38.2584286  55.6890568  47.1700609  37.5845985  55.9922264  47.7785567
  38.6450108  56.4919648  46.8206066  37.4742743  43.1855699  56.6598279
  36.5565304  43.4070646  56.5019967  37.8902887  43.2602009  55.8009986
  38.2577791  44.5847115  51.7900959  39.0049610  45.0968512  51.4808081
  38.5269380  44.2631167  52.6505353  36.5304441  47.0805655  48.7727913
  35.6215660  46.7964688  48.8700383  36.5599525  47.5004734  47.9131220
  41.7623708  50.6912245  52.5419081  41.3086036  49.8503155  52.5984271
  41.1317675  51.3273643  52.8793861  40.7056628  41.6204231  53.7719748
  39.9679385  41.1081617  54.1029991  40.9583402  41.1804612  52.9603025
  40.2056648  52.5288741  53.4768899  40.4979622  53.0893799  52.7581265
  40.7155268  52.8217302  54.2322058  40.8068255  34.3980483  54.3661518
  41.1127132  33.5377846  54.0787433  41.5320860  34.9898103  54.1660511
  27.0992611  44.8011169  52.7543115  26.9017011  44.2080530  52.0294182
  26.5439275  44.4963380  53.4719054  35.0789335  44.6934276  54.8737709
  35.1337945  43.7408112  54.7980185  34.2680537  44.8493715  55.3579007
  36.2280529  48.6214399  46.1115992  35.7899959  47.9050258  45.6521629
  36.9690970  48.8490514  45.5501083  33.0181695  43.3111336  52.6328087
  32.2049561  43.6105506  53.0393280  33.5140689  42.9167024  53.3502570
  35.1690273  53.3069092  54.5662352  35.1266452  53.5329939  53.6370884
  36.0852972  53.0732467  54.7148153  38.6155907  43.7753160  61.4642981
  38.9705294  44.0024633  62.3237447  39.2628038  44.1071537  60.8420237
  44.3453644  46.8971596  52.1692310  44.2071542  47.0873192  51.2413500
  43.9889862  47.6590979  52.6260362  32.5095770  40.8829691  58.2489322
  33.1495149  40.7418450  57.5512286  31.6773300  40.5964204  57.8727924
  44.3723023  48.9648123  57.1803582  44.8059530  48.8723412  58.0286636
  45.0854604  48.9405623  56.5423598  33.2856074  50.1832122  54.3624315
  34.0796672  49.6882442  54.1606890  32.5747766  49.6549985  53.9992020
  38.1050918  52.5650217  58.7136683  38.1587940  53.1341153  59.4814398
  37.2365699  52.7352102  58.3490720  29.5938837  44.3275203  50.4384068
  28.6636425  44.2659659  50.6554030  29.6896309  43.8051156  49.6420709
  29.5124386  40.8530016  53.0262309  29.7731203  41.7675349  52.9171470
  30.3341558  40.3854459  53.1758922  30.9849311  42.2667773  60.1961134
  31.6572365  42.0585135  59.5473783  30.1579098  42.0689859  59.7566366
  45.2338573  49.0071824  59.7136467  45.4274463  49.9117634  59.9595742
  45.1339191  48.5479243  60.5475052  36.8874883  38.8929714  62.2126795
  36.2402799  39.5919664  62.1191271  37.6575899  39.3265858  62.5803043
  37.0639018  46.7310479  60.2723614  37.9931078  46.8821639  60.0992582
  36.6430048  46.8194500  59.4172261  35.8627350  50.7561144  58.0422152
  35.7238435  50.3879928  58.9148090  35.0741946  51.2708783  57.8706110
  36.4575502  55.8570240  49.3847689  36.6327257  55.3858283  50.1993311
  35.7708290  56.4836006  49.6128949  37.4132565  50.1342746  55.4310990
  37.0782397  50.0943516  56.3268640  36.9136510  49.4687462  54.9581400
  31.3876809  45.5410376  60.9563571  31.2496607  44.8090615  61.5575110
  32.2981732  45.4519276  60.6747759  40.3491756  47.4798781  45.7048049
  39.7320927  46.7545609  45.6081102  39.8808245  48.2408141  45.3615124
  34.0159109  45.2530336  60.4447251  34.7258728  44.6123528  60.4033869
  33.9728418  45.5043230  61.3673431  42.0045888  52.1897689  63.3653830
  41.9458434  51.5056909  62.6984413  42.4065406  52.9316679  62.9134456
  32.7288043  42.2395553  62.2642890  32.1925400  41.7886292  62.9164486
  32.1404752  42.3741462  61.5213354  31.0236587  59.0059603  56.1587549
  31.2633185  59.6378127  56.8366567  30.1805783  58.6547643  56.4452908
  32.1390302  41.6984205  44.8269354  31.2619769  41.5773006  44.4631600
  32.6148055  40.9070283  44.5748242  42.0063295  50.1537273  61.5967809
  41.1190074  49.8163195  61.7194208  42.5761846  49.4220304  61.8336575
  23.6592442  46.4861365  54.9210861  24.3463482  46.1723095  54.3331876
  23.5040571  47.3902729  54.6478112  28.4627165  41.3751561  59.3495885
  28.3785353  40.7677231  58.6146294  27.6409871  41.8660579  59.3505381
  35.5364449  54.8138725  58.5629053  35.4634620  55.6193697  59.0748357
  35.0941842  55.0130691  57.7377074  35.3254228  54.0510495  52.0731874
  34.5421750  54.5932175  52.1670099  36.0246974  54.5684475  52.4726115
  38.6350878  39.8605125  54.7166080  39.1319578  39.1075087  54.3967150
  37.8637860  39.8969441  54.1509289  46.4880636  45.5645490  56.3584371
  46.4770512  46.4470206  55.9878304  45.6198015  45.2117041  56.1638908
  37.9963132  54.7125559  60.7187211  38.7091104  55.3473024  60.6463113
  37.5053161  54.8089425  59.9027213  39.7180659  48.6176812  52.2904503
  38.7836938  48.7378274  52.1209207  39.8957328  47.7149279  52.0264513
  35.2185847  42.0022508  54.4437764  34.8483635  41.4493548  55.1318670
  35.7144940  41.3980641  53.8912764  43.1053211  44.4594131  52.8254537
  43.5713663  45.2922123  52.7514840  43.5560711  43.9939113  53.5299796
  33.0475046  52.4620003  61.5392782  33.7484505  53.0956486  61.6922176
  32.5770161  52.8034734  60.7788421  41.1729442  50.8037952  49.8240689
  41.4489286  50.6894547  50.7334563  40.3033940  50.4055437  49.7852862
  41.0769873  36.8274718  56.8645438  40.1632953  37.0578945  57.0327645
  41.5062975  36.9113162  57.7159471  40.8476332  45.0164610  59.3645333
  40.1947782  45.2640518  58.7097785  41.2256712  44.2028748  59.0307810
  37.8083506  55.0524303  53.4673503  37.9905900  54.2345959  53.9301255
  38.6316492  55.2691996  53.0298393  38.1425671  53.9792488  50.7288551
  38.6713438  53.4684943  50.1158713  38.4053891  53.6635019  51.5934084
  28.6442764  51.9956358  58.4723885  29.2296201  51.2500046  58.6051789
  28.4467602  52.3060314  59.3560549  31.4981419  55.0307605  53.4886327
  30.8291794  55.5153733  53.0050367  31.3594289  55.2776826  54.4029706
  23.2360419  44.5661958  57.1928328  23.2744518  44.0325549  57.9865446
  22.7300711  44.0397163  56.5739305  35.6386688  57.0651349  60.0868986
  36.1904996  57.2282970  60.8518071  35.9792881  57.6555786  59.4149010
  30.6151181  39.4126498  60.6890870  30.6792507  40.2741329  60.2768268
  30.5518301  38.8000500  59.9563229  30.0903453  41.4849631  64.3363905
  30.7175492  41.1026708  64.9501429  29.2331372  41.2663833  64.7019597
  26.8668996  43.2926060  50.2682259  27.1622437  42.3836738  50.2149313
  25.9657032  43.2713800  49.9463262  38.7755075  55.0133324  57.0732668
  38.6506214  54.2123064  56.5643613  39.4334166  55.5079518  56.5846638
  30.3963243  41.3682057  56.2509808  29.6749829  41.9818024  56.1117281
  31.1856499  41.9039821  56.1726454  40.8389983  52.8142344  58.7012218
  39.8920319  52.6947695  58.6290545  41.1872756  51.9264842  58.7838479
  33.1989557  38.7036483  62.5250460  33.7223959  38.9498780  63.2876769
  32.9801890  39.5356518  62.1053597  28.5956838  40.9740158  50.3921585
  28.2669544  40.0937537  50.2096690  28.9496208  40.9187826  51.2797974
  37.8436417  52.6095060  54.9016570  37.6961379  51.6811768  55.0824140
  38.6689910  52.6315151  54.4173645  31.7098661  41.2613128  50.7597062
  32.0494733  41.7899049  50.0375671  32.1570781  41.5993534  51.5355629
  41.4470538  53.4323619  55.9881443  42.3717086  53.2266481  55.8505894
  41.2785842  53.1840020  56.8970784  34.4042102  39.6450178  60.2100130
  34.0638922  38.8457991  60.6120810  33.6981108  39.9451889  59.6376963
  35.0558574  36.7299491  58.6627453  35.8784643  36.2559969  58.5406344
  35.2996637  37.5089974  59.1626140  33.6966808  39.7587749  48.9590355
  34.4175171  40.1369002  48.4554072  33.0732112  40.4776626  49.0625333
  37.8397931  40.4632898  49.8948687  38.0561545  41.3457536  49.5937515
  37.3591998  40.0719112  49.1654329  32.5797152  43.4218611  56.4719432
  32.4341733  43.7358914  57.3643713  32.1022356  44.0403512  55.9190331
  34.4393535  40.4121159  56.5200321  34.4255104  39.5162253  56.1832619
  35.1565963  40.4191823  57.1538607  36.2919666  40.8458500  58.5653449
  36.0337444  41.7675570  58.5637779  35.7604706  40.4488934  59.2553913
  41.2365855  53.9509287  51.3443534  41.4102732  53.3855709  50.5917387
  41.7294746  54.7510182  51.1623024  27.0542814  45.9623956  59.4107093
  26.5096283  46.7383764  59.5427367  27.9322164  46.3094760  59.2526215
  33.8430431  39.2935540  51.7887892  33.9646342  38.3652186  51.9878779
  33.5532474  39.3074226  50.8766207  36.7121622  36.9790450  54.9254611
  36.7343318  37.0429783  53.9706591  37.1289681  36.1394959  55.1195118
  47.0905246  46.7145710  52.9633834  47.5336392  45.9653035  52.5652957
  46.2131756  46.7055846  52.5807566  42.2241027  53.2676051  48.4440433
  42.9191932  53.8882744  48.6627747  42.5664177  52.4171402  48.7192810
  27.8408836  45.0893852  62.3037250  27.0990572  45.2376487  62.8901880
  27.5201581  45.3502118  61.4403999  44.1232450  50.7175757  49.9727763
  44.6483774  51.0563029  49.2477083  44.0354803  49.7822772  49.7890898
  35.7852499  54.6309830  62.1017640  36.0939625  54.3858977  62.9740340
  36.5827981  54.8356469  61.6136510  35.8073111  56.7847740  54.3323016
  35.3678101  56.2924119  55.0255873  36.5581228  56.2420708  54.0915092
  28.2865450  52.9759281  54.3347645  29.1123470  52.6763053  53.9546288
  27.9359502  52.2066903  54.7837433  33.2546983  52.3285749  56.4045318
  32.6326992  51.6656454  56.1047546  33.9251850  52.3546881  55.7218966
  26.4874055  50.8945607  55.2936578  25.6505963  50.4667782  55.1120579
  26.4597700  51.0878051  56.2307369  33.3271511  40.8067537  65.9977824
  33.3759666  41.6829660  65.6155594  33.8694025  40.2644930  65.4249467
  32.8160490  50.8789672  49.8803779  32.9648610  51.5625137  49.2270451
  33.6226934  50.8594762  50.3953234  35.5570799  41.5598909  62.7524183
  34.6874109  41.8532475  62.4806771  35.7930279  42.1439354  63.4731446
  46.6338111  48.1850948  55.3556282  47.4685002  48.6240752  55.5193842
  46.7697239  47.7089601  54.5364527  43.6829616  45.7430683  61.3033769
  44.1583738  45.9358329  60.4952621  42.7595182  45.7989869  61.0577153
  30.5713123  46.9054850  50.8864848  30.3259165  46.0017180  51.0845058
  30.7409038  46.9072000  49.9444326  38.2609833  37.7778526  60.2689603
  38.7791777  38.5139553  59.9436092  37.9064966  38.0842520  61.1036362
  29.8408771  42.6383207  48.3851009  29.1478016  42.7127562  47.7291045
  29.5960523  41.8743551  48.9072526  38.5122427  34.1978809  55.7890500
  38.7924181  33.5301998  56.4150926  39.2973034  34.3907904  55.2765164
  36.3155896  53.3737803  47.3515526  35.7429863  53.9927990  46.8985998
  36.8888689  53.9237164  47.8855448  42.3831285  42.6196443  59.5362075
  43.3348708  42.7194540  59.5574299  42.2134736  41.8274711  60.0460159
  40.4045665  39.7052026  59.7221476  39.8095597  39.9857039  59.0267964
  40.1195362  40.1945927  60.4938217  39.5353155  53.6574953  48.4824108
  40.4683829  53.5920515  48.6856984  39.4476368  54.4931220  48.0238641
  42.1641172  52.9740823  45.4428056  42.0854804  52.6400687  46.3363814
  42.9850839  53.4662591  45.4419528  44.8619363  45.8402563  58.6504375
  44.8295683  44.9018563  58.8364058  45.4719987  45.9186599  57.9170199
  36.7002694  44.7098615  44.6931579  37.6461799  44.5804824  44.7619997
  36.3216939  43.9713277  45.1701007  45.0113852  42.6313606  58.6962658
  44.4952900  41.8472063  58.5092587  45.8953800  42.3032323  58.8609177
  42.6724579  36.3754622  54.6558470  42.4749400  36.0669710  55.5401802
  43.2824284  37.1016260  54.7856400  50.6795913  46.9018569  57.7910411
  51.4099302  46.6403857  58.3518115  50.0702859  46.1647291  57.8312479
  48.7611210  45.0426432  58.3884863  48.0344374  44.9082397  57.7801354
  48.3458497  45.3503261  59.1941581  34.8845611  42.6348592  44.6286464
  33.9777067  42.3381705  44.7049177  35.1621592  42.3378410  43.7620750
  25.8023552  43.9554955  55.0785510  25.4826336  43.1020263  54.7859884
  25.2556980  44.1703533  55.8343478  29.5803459  46.6717396  58.7955017
  29.7989469  47.6034504  58.8143051  29.9929233  46.3125371  59.5809821
  36.5007677  37.1785482  50.7830705  35.6908405  36.8332567  51.1585951
  37.1892094  36.8693025  51.3718317  38.4298225  36.2563528  52.4055002
  38.9829264  36.6758982  53.0645025  38.6668312  35.3299277  52.4477958
  33.6544396  39.4935527  44.7698443  34.5163560  39.8190425  45.0294260
  33.8394740  38.7067023  44.2571509  25.6711812  47.5757867  57.0478632
  24.9775283  47.1611820  56.5348586  26.4184803  47.6178403  56.4512051
  41.8077032  38.3664054  51.9133666  41.2275701  39.0248858  51.5311718
  41.5412965  37.5441398  51.5021084  40.2580599  37.7669111  54.1154986
  40.7580377  37.8785646  53.3069305  40.9016207  37.4630164  54.7555795
  27.5848554  47.5076121  54.9244647  27.5619242  47.6063808  53.9726530
  27.8949191  48.3541271  55.2461813  30.2435932  49.5652276  59.0391261
  31.1979186  49.5336218  58.9721193  30.0448456  49.1042899  59.8541487
  30.8335314  48.1353392  61.6062059  31.6528203  48.6297470  61.6296896
  31.1072122  47.2185360  61.5779626  40.5901910  40.5264144  50.9690014
  39.7027765  40.8113795  50.7510209  41.0055899  40.3657907  50.1217291
  43.9416447  40.5510665  54.6844354  44.7176837  41.0407117  54.9568970
  43.2164581  40.9768719  55.1416223  46.3789005  41.2638284  55.7418294
  46.9733496  41.0234020  55.0311602  46.4515589  40.5445415  56.3691830
  28.5986161  55.1071895  56.0561459  28.4640629  54.3472296  55.4899457
  28.1818223  55.8312795  55.5890248  39.7345124  50.2908819  45.0638034
  40.4380974  50.4958821  45.6795690  39.0107773  50.8585580  45.3287118
  40.5642934  46.0418680  51.1840304  40.5078136  46.4987231  50.3447937
  41.1171277  45.2809364  51.0063147  44.3747740  41.8308412  52.0090424
  44.1184674  41.4305047  52.8398632  43.7500608  42.5452206  51.8840563
  48.6860078  44.5704485  54.5161715  48.1259636  44.6397674  55.2893277
  48.0803581  44.3945470  53.7961212  31.7555287  56.0041212  56.2679902
  31.6387671  56.9486645  56.1658592  30.9347733  55.7014774  56.6565701
  41.6431821  50.7291348  47.1136494  42.4777425  50.2972546  46.9313969
  41.4816164  50.5573361  48.0413389  41.2977713  47.2323461  48.4792834
  41.2426517  47.0667733  47.5381278  40.6723769  47.9399494  48.6355023
  26.0870228  42.4691525  62.3054256  26.7329092  41.9590479  62.7941481
  25.8787380  43.2060207  62.8797681  34.6073839  36.7331570  48.0578152
  34.5952509  37.6773410  48.2146423  35.4997261  36.5501716  47.7637613
  32.7809801  56.6569474  59.4835830  33.6837048  56.6893084  59.8002325
  32.5547171  55.7269925  59.4982166  34.5363403  55.4100461  56.1445909
  33.5859034  55.4102322  56.0310281  34.8395889  54.6633195  55.6281943
  38.4225958  33.3274347  52.3124089  37.6558354  32.7732833  52.4580771
  38.8336663  33.3996216  53.1738240  30.4267719  39.6159143  66.4029270
  31.2899181  39.2595947  66.6132595  29.8533130  39.2773037  67.0904674
  50.2716096  61.2460999  57.2091671  50.9094506  61.1267746  56.5055011
  50.1536939  62.1941843  57.2679623  47.0805803  61.1988427  57.1453196
  46.7424314  61.0829492  56.2573731  47.9495571  60.7979592  57.1254202
  42.9392618  63.0523903  53.1350087  42.3757483  62.9613840  52.3666374
  42.8245013  62.2323808  53.6152579  47.5625586  62.3523279  63.1039401
  47.5514226  61.9576077  62.2319905  47.7246225  61.6189351  63.6973173
  40.4857050  64.5475095  55.9734307  41.2778342  64.2065920  55.5580607
  40.7253700  64.6570070  56.8936461  48.5192177  66.7194871  48.4464552
  47.8680157  67.3048952  48.0598565  49.3136540  67.2501066  48.5059589
  42.4447804  63.8084008  48.8451686  43.2178680  63.2612995  48.7064562
  42.7973203  64.6728258  49.0566147  44.2832847  65.1360391  62.0518585
  43.9922713  66.0406021  61.9365252  44.9189831  65.1776918  62.7662655
  45.2089054  62.5137239  58.6419945  45.8052626  62.2893261  57.9276908
  45.2664025  61.7721985  59.2445393  44.7814082  59.9676674  46.4770136
  45.0339603  59.4458196  45.7153599  43.8438641  59.8042820  46.5796820
  49.8257365  58.9712453  54.2844879  50.6120454  58.5531876  53.9335296
  50.0896069  59.8758545  54.4526528  49.9967442  64.4085303  48.9833536
  49.3613275  64.4819930  49.6954441  49.6664849  64.9978902  48.3052615
  55.2265792  58.9087686  55.1877858  55.9590964  58.3386903  55.4215687
  54.4705148  58.5209286  55.6284363  44.5010371  61.8704780  48.6794511
  44.3846629  61.1949684  49.3475595  44.6112631  61.3837154  47.8626664
  46.8441912  61.3314927  52.3841200  46.4800119  60.8045548  53.0954122
  47.7009028  60.9413397  52.2107686  52.7491212  52.6209260  59.6472466
  52.4174537  53.4904671  59.4233681  52.1536826  52.3045544  60.3266497
  46.4847399  56.3604827  47.3802549  46.6521801  57.2285064  47.7473020
  46.2944568  56.5232109  46.4563838  49.2422732  64.8221806  59.0468379
  48.9423455  65.7246845  58.9384186  48.8973791  64.5553989  59.8989532
  42.6935213  61.2735603  55.0805083  41.7685710  61.1411817  55.2882775
  42.9419627  62.0529822  55.5775026  52.6419876  57.3404346  56.7265816
  51.7336753  57.2719755  56.4324577  52.5907471  57.8176291  57.5547642
  46.4636620  58.8162485  48.3649215  46.3436245  59.2619535  49.2034696
  45.7689208  59.1647802  47.8062754  40.0544024  60.9168876  55.9148872
  40.1836406  61.1703355  56.8288284  39.3741476  61.5096584  55.5953528
  44.2243512  71.5866126  52.0139347  44.1467541  72.5373951  52.0927827
  43.6205155  71.2411999  52.6714273  46.7160741  58.7593992  64.6700714
  45.9394075  59.3187912  64.6603578  47.3551304  59.2450775  65.1915584
  54.5081522  55.5420785  58.5043690  53.8655902  55.8353318  57.8583485
  54.0036451  55.4273705  59.3096887  52.1621686  59.2883958  49.1929549
  53.0739542  59.5211345  49.0177247  51.6531333  59.8721002  48.6304628
  50.4462453  63.7108586  62.8290842  50.8545809  63.2690996  62.0845474
  49.7239715  63.1361213  63.0825035  46.7993523  58.6481192  60.2024399
  47.6454719  59.0720606  60.3459048  46.7392161  57.9914817  60.8962962
  50.7691268  64.2709776  56.5843131  50.1400130  64.4355490  55.8819199
  50.3816930  64.6851386  57.3554095  54.6480500  65.2064214  53.9387495
  53.9631538  65.5863115  53.3884528  54.7324349  65.8159541  54.6719442
  51.9031432  62.8524173  60.5382838  52.1148327  63.4955933  59.8617219
  51.8561180  62.0186490  60.0704768  49.5057660  55.4641994  57.4419410
  48.6442140  55.7623247  57.7336148  49.5320095  55.6812393  56.5100443
  46.3219230  64.0084184  53.8493216  46.7857575  64.2871887  53.0597839
  46.0576028  63.1067629  53.6666307  43.2143311  63.5555666  56.7872979
  43.7844668  63.9842934  56.1490464  43.8051423  63.2738251  57.4857165
  45.2588116  60.1307337  50.6582781  45.9612159  60.5828380  51.1256708
  44.9268744  59.4891156  51.2862674  43.7068477  58.7219093  65.0333991
  43.0767138  59.4035374  65.2669387  43.6004565  58.6102175  64.0887129
  39.0013450  58.3890889  55.9599915  38.2112504  58.6448418  55.4840025
  39.4924697  59.2039227  56.0651955  53.0177259  65.7296129  58.7105196
  53.8394703  65.3276316  58.4287877  53.0139662  65.6264363  59.6621311
  40.9528195  58.7535469  52.9183391  40.1559359  58.8654163  53.4366887
  40.7253787  59.0922121  52.0524282  46.7833863  65.2780172  60.8665906
  46.8478295  65.7400579  61.7024078  46.0744787  64.6477537  60.9948216
  37.2851153  58.6421380  58.3914906  37.5359191  59.5268390  58.6572481
  37.8210701  58.4625981  57.6189997  46.4981881  66.9448279  50.7344886
  46.3627555  67.7899815  51.1629734  47.0391693  67.1467557  49.9710820
  39.9511278  64.4623717  51.3072811  40.4635799  65.2566968  51.4578376
  40.6033991  63.7650008  51.2406413  41.7606163  67.5789474  53.3895565
  41.9372791  68.5007438  53.2016549  42.5562996  67.2647893  53.8189944
  48.1250357  67.5671846  64.8645228  47.6814211  66.7808224  64.5466133
  48.7867571  67.7550996  64.1989119  42.8837478  69.0967647  59.3905907
  43.4344903  68.9684711  58.6182901  42.0448954  69.3962536  59.0400800
  50.2231595  67.8474646  62.8926630  50.2050070  68.6683527  62.4006899
  51.1451515  67.7228721  63.1176771  46.6804649  65.3618775  63.7350138
  47.2132986  64.6007063  63.5049446  46.1518730  65.0692427  64.4774293
  49.8474344  50.4678841  59.2643780  49.5038614  51.3580483  59.1882890
  50.2153307  50.2780499  58.4013365  37.9160195  62.7912372  52.0832382
  38.7535417  63.2009380  51.8666090  38.0938462  61.8511814  52.0532576
  49.8124627  60.4587452  47.7716215  49.2971250  61.2292057  48.0104602
  49.5401935  59.7852589  48.3949276  47.3971738  55.3037153  52.8301453
  46.5413334  54.9144004  52.6507092  47.8098690  55.3829114  51.9701239
  48.9270885  52.8383496  57.2293013  48.4235680  52.8013632  56.4160818
  49.2201491  53.7476239  57.2889670  45.1713770  52.9222226  56.2359195
  46.0366767  52.7265035  55.8765084  45.2391279  52.6932578  57.1628552
  54.7858901  63.2119807  49.7069388  54.0088344  62.8730966  49.2624551
  55.4650382  63.2172430  49.0324354  49.6010930  58.3314544  49.5975996
  49.2961066  58.6460694  50.4486139  50.5541372  58.4095964  49.6403329
  48.0457362  64.4904768  51.2468950  47.5178723  63.7557527  50.9342188
  47.5444865  65.2679444  51.0008918  53.0250208  62.6853788  56.3635996
  52.3673882  63.3753050  56.4516125  53.8290607  63.0750220  56.7069983
  42.7776089  55.1524434  53.6075562  43.3519841  54.9299616  52.8748755
  43.3647072  55.2213129  54.3604163  51.8355667  61.0398161  54.4139938
  52.3487548  61.6728153  54.9161648  52.4856891  60.4399356  54.0483298
  43.1045677  57.1828895  47.6271447  42.2682989  57.5203582  47.9480722
  42.9650446  57.0477875  46.6898584  45.0798757  52.0265683  52.3350631
  44.4263170  51.7114700  51.7107246  45.0379231  51.4041423  53.0610454
  46.1909962  62.3084978  44.2503923  45.2837024  62.0774231  44.4495072
  46.6880994  61.5122597  44.4377905  49.0978041  71.0182485  47.1700609
  48.4239740  71.3214182  47.7785567  49.4843863  71.8211566  46.8206066
  48.3136498  58.5147616  56.6598279  47.3959059  58.7362564  56.5019967
  48.7296641  58.5893927  55.8009986  49.0971545  59.9139032  51.7900959
  49.8443364  60.4260429  51.4808081  49.3663135  59.5923085  52.6505353
  47.3698195  62.4097573  48.7727913  46.4609415  62.1256606  48.8700383
  47.3993279  62.8296651  47.9131220  52.6017463  66.0204162  52.5419081
  52.1479790  65.1795072  52.5984271  51.9711430  66.6565561  52.8793861
  51.5450382  56.9496148  53.7719748  50.8073139  56.4373535  54.1029991
  51.7977156  56.5096530  52.9603025  51.0450402  67.8580659  53.4768899
  51.3373377  68.4185716  52.7581265  51.5549023  68.1509220  54.2322058
  51.6462010  49.7272400  54.3661518  51.9520887  48.8669764  54.0787433
  52.3714615  50.3190021  54.1660511  37.9386366  60.1303087  52.7543115
  37.7410766  59.5372448  52.0294182  37.3833030  59.8255297  53.4719054
  45.9183090  60.0226193  54.8737709  45.9731699  59.0700030  54.7980185
  45.1074292  60.1785633  55.3579007  47.0674283  63.9506317  46.1115992
  46.6293713  63.2342175  45.6521629  47.8084724  64.1782431  45.5501083
  43.8575449  58.6403253  52.6328087  43.0443315  58.9397424  53.0393280
  44.3534444  58.2458942  53.3502570  46.0084027  68.6361010  54.5662352
  45.9660206  68.8621856  53.6370884  46.9246726  68.4024385  54.7148153
  49.4549661  59.1045078  61.4642981  49.8099049  59.3316551  62.3237447
  50.1021792  59.4363455  60.8420237  55.1847398  62.2263514  52.1692310
  55.0465297  62.4165110  51.2413500  54.8283617  62.9882896  52.6260362
  43.3489524  56.2121609  58.2489322  43.9888904  56.0710368  57.5512286
  42.5167055  55.9256122  57.8727924  55.2116778  64.2940041  57.1803582
  55.6453284  64.2015330  58.0286636  55.9248358  64.2697541  56.5423598
  44.1249828  65.5124039  54.3624315  44.9190427  65.0174359  54.1606890
  43.4141521  64.9841902  53.9992020  48.9444673  67.8942135  58.7136683
  48.9981695  68.4633071  59.4814398  48.0759454  68.0644020  58.3490720
  40.4332592  59.6567121  50.4384068  39.5030180  59.5951576  50.6554030
  40.5290064  59.1343074  49.6420709  40.3518141  56.1821934  53.0262309
  40.6124958  57.0967267  52.9171470  41.1735313  55.7146376  53.1758922
  41.8243066  57.5959691  60.1961134  42.4966119  57.3877053  59.5473783
  40.9972852  57.3981777  59.7566366  56.0732327  64.3363741  59.7136467
  56.2668217  65.2409552  59.9595742  55.9732945  63.8771160  60.5475052
  51.1347436  64.4870484  65.2877348  50.9832942  64.2581036  64.3707432
  51.1252115  65.4441085  65.3008693  47.9032772  62.0602397  60.2723614
  48.8324832  62.2113556  60.0992582  47.4823802  62.1486418  59.4172261
  46.7021104  66.0853061  58.0422152  46.5632190  65.7171846  58.9148090
  45.9135700  66.6000701  57.8706110  47.2969256  71.1862158  49.3847689
  47.4721012  70.7150201  50.1993311  46.6102044  71.8127924  49.6128949
  48.2526319  65.4634664  55.4310990  47.9176152  65.4235434  56.3268640
  47.7530265  64.7979380  54.9581400  42.2270563  60.8702294  60.9563571
  42.0890361  60.1382533  61.5575110  43.1375487  60.7811194  60.6747759
  51.1885511  62.8090698  45.7048049  50.5714682  62.0837526  45.6081102
  50.7201999  63.5700058  45.3615124  44.8552864  60.5822253  60.4447251
  45.5652482  59.9415445  60.4033869  44.8122172  60.8335148  61.3673431
  52.8439643  67.5189607  63.3653830  52.7852189  66.8348827  62.6984413
  53.2459161  68.2608597  62.9134456  43.5681798  57.5687471  62.2642890
  43.0319155  57.1178210  62.9164486  42.9798506  57.7033380  61.5213354
  41.8630341  74.3351520  56.1587549  42.1026940  74.9670045  56.8366567
  41.0199538  73.9839560  56.4452908  42.9784057  57.0276123  44.8269354
  42.1013523  56.9064923  44.4631600  43.4541810  56.2362201  44.5748242
  52.8457050  65.4829191  61.5967809  51.9583829  65.1455112  61.7194208
  53.4155601  64.7512222  61.8336575  34.4986197  61.8153282  54.9210861
  35.1857237  61.5015012  54.3331876  34.3434326  62.7194647  54.6478112
  39.3020919  56.7043479  59.3495885  39.2179108  56.0969148  58.6146294
  38.4803626  57.1952497  59.3505381  46.3758203  70.1430643  58.5629053
  46.3028375  70.9485614  59.0748357  45.9335596  70.3422609  57.7377074
  46.1647983  69.3802413  52.0731874  45.3815505  69.9224093  52.1670099
  46.8640728  69.8976393  52.4726115  49.4744633  55.1897042  54.7166080
  49.9713333  54.4367005  54.3967150  48.7031614  55.2261359  54.1509289
  57.3274390  60.8937408  56.3584371  57.3164267  61.7762123  55.9878304
  56.4591770  60.5408959  56.1638908  48.8356887  70.0417477  60.7187211
  49.5484859  70.6764942  60.6463113  48.3446915  70.1381343  59.9027213
  50.5574414  63.9468730  52.2904503  49.6230692  64.0670192  52.1209207
  50.7351082  63.0441196  52.0264513  46.0579602  57.3314425  54.4437764
  45.6877389  56.7785466  55.1318670  46.5538694  56.7272559  53.8912764
  53.9446965  59.7886049  52.8254537  54.4107417  60.6214040  52.7514840
  54.3954466  59.3231030  53.5299796  43.8868800  67.7911920  61.5392782
  44.5878260  68.4248403  61.6922176  43.4163915  68.1326652  60.7788421
  52.0123196  66.1329870  49.8240689  52.2883040  66.0186465  50.7334563
  51.1427695  65.7347355  49.7852862  51.9163628  52.1566636  56.8645438
  51.0026708  52.3870863  57.0327645  52.3456729  52.2405080  57.7159471
  51.6870086  60.3456528  59.3645333  51.0341536  60.5932435  58.7097785
  52.0650466  59.5320666  59.0307810  48.6477260  70.3816221  53.4673503
  48.8299655  69.5637877  53.9301255  49.4710246  70.5983913  53.0298393
  48.9819426  69.3084406  50.7288551  49.5107192  68.7976861  50.1158713
  49.2447645  68.9926936  51.5934084  47.7357659  61.0876339  65.8511370
  47.0598296  60.9870468  66.5213745  48.5585293  60.9315553  66.3147367
  39.4836518  67.3248275  58.4723885  40.0689955  66.5791963  58.6051789
  39.2861357  67.6352232  59.3560549  42.3375174  70.3599523  53.4886327
  41.6685549  70.8445650  53.0050367  42.1988043  70.6068743  54.4029706
  34.0754173  59.8953876  57.1928328  34.1138273  59.3617466  57.9865446
  33.5694466  59.3689081  56.5739305  46.4780442  72.3943266  60.0868986
  47.0298750  72.5574888  60.8518071  46.8186636  72.9847704  59.4149010
  41.4544935  54.7418416  60.6890870  41.5186262  55.6033247  60.2768268
  41.3912056  54.1292418  59.9563229  51.3291316  67.2204524  65.9417640
  51.8731220  67.8334482  65.4472595  50.7478161  67.7784102  66.4584653
  37.7062751  58.6217978  50.2682259  38.0016192  57.7128656  50.2149313
  36.8050786  58.6005717  49.9463262  49.6148829  70.3425242  57.0732668
  49.4899969  69.5414982  56.5643613  50.2727921  70.8371435  56.5846638
  41.2356998  56.6973974  56.2509808  40.5143583  57.3109942  56.1117281
  42.0250253  57.2331739  56.1726454  51.6783738  68.1434262  58.7012218
  50.7314073  68.0239613  58.6290545  52.0266511  67.2556760  58.7838479
  44.0383311  54.0328401  62.5250460  44.5617713  54.2790697  63.2876769
  43.8195644  54.8648436  62.1053597  39.4350592  56.3032075  50.3921585
  39.1063298  55.4229454  50.2096690  39.7889963  56.2479744  51.2797974
  48.6830171  67.9386978  54.9016570  48.5355134  67.0103686  55.0824140
  49.5083665  67.9607069  54.4173645  42.5492415  56.5905045  50.7597062
  42.8888488  57.1190966  50.0375671  42.9964536  56.9285451  51.5355629
  52.2864293  68.7615537  55.9881443  53.2110840  68.5558398  55.8505894
  52.1179596  68.5131938  56.8970784  45.2435856  54.9742096  60.2100130
  44.9032677  54.1749909  60.6120810  44.5374863  55.2743807  59.6376963
  45.8952328  52.0591408  58.6627453  46.7178397  51.5851887  58.5406344
  46.1390392  52.8381892  59.1626140  44.5360563  55.0879667  48.9590355
  45.2568925  55.4660920  48.4554072  43.9125867  55.8068544  49.0625333
  48.6791685  55.7924816  49.8948687  48.8955300  56.6749454  49.5937515
  48.1985753  55.4011029  49.1654329  43.4190907  58.7510529  56.4719432
  43.2735488  59.0650832  57.3643713  42.9416110  59.3695429  55.9190331
  45.2787290  55.7413077  56.5200321  45.2648858  54.8454170  56.1832619
  45.9959718  55.7483741  57.1538607  47.1313420  56.1750417  58.5653449
  46.8731198  57.0967488  58.5637779  46.5998461  55.7780852  59.2553913
  52.0759609  69.2801204  51.3443534  52.2496487  68.7147627  50.5917387
  52.5688500  70.0802099  51.1623024  37.8936569  61.2915873  59.4107093
  37.3490037  62.0675681  59.5427367  38.7715919  61.6386678  59.2526215
  44.6824186  54.6227457  51.7887892  44.8040097  53.6944103  51.9878779
  44.3926228  54.6366143  50.8766207  47.5515376  52.3082368  54.9254611
  47.5737073  52.3721701  53.9706591  47.9683435  51.4686876  55.1195118
  57.9299000  62.0437627  52.9633834  58.3730146  61.2944952  52.5652957
  57.0525511  62.0347764  52.5807566  53.0634782  68.5967969  48.4440433
  53.7585686  69.2174661  48.6627747  53.4057932  67.7463320  48.7192810
  54.9626205  66.0467674  49.9727763  55.4877529  66.3854947  49.2477083
  54.8748557  65.1114690  49.7890898  46.6246253  69.9601748  62.1017640
  46.9333380  69.7150895  62.9740340  47.4221736  70.1648386  61.6136510
  46.6466866  72.1139658  54.3323016  46.2071856  71.6216036  55.0255873
  47.3974982  71.5712625  54.0915092  39.1259205  68.3051198  54.3347645
  39.9517224  68.0054970  53.9546288  38.7753257  67.5358821  54.7837433
  44.0940738  67.6577667  56.4045318  43.4720747  66.9948372  56.1047546
  44.7645605  67.6838799  55.7218966  37.3267810  66.2237525  55.2936578
  36.4899718  65.7959699  55.1120579  37.2991455  66.4169968  56.2307369
  54.7717986  63.5293044  62.5911690  54.8215991  63.3643052  63.5327213
  54.6631909  62.6620303  62.2009571  43.6554245  66.2081590  49.8803779
  43.8042365  66.8917054  49.2270451  44.4620688  66.1886680  50.3953234
  52.0621748  59.5123972  63.9070997  52.9631611  59.3730437  63.6154994
  52.1369723  59.6778427  64.8469174  46.3964554  56.8890827  62.7524183
  45.5267863  57.1824393  62.4806771  46.6324034  57.4731272  63.4731446
  56.2736183  65.9489986  62.8353711  55.9820991  66.3119966  63.6717172
  55.6608314  65.2356994  62.6567043  54.5223371  61.0722600  61.3033769
  54.9977493  61.2650247  60.4952621  53.5988936  61.1281786  61.0577153
  41.4106878  62.2346768  50.8864848  41.1652920  61.3309098  51.0845058
  41.5802792  62.2363918  49.9444326  40.6802525  57.9675125  48.3851009
  39.9871770  58.0419480  47.7291045  40.4354277  57.2035469  48.9072526
  49.3516182  49.5270727  55.7890500  49.6317935  48.8593916  56.4150926
  50.1366789  49.7199822  55.2765164  47.1549650  68.7029720  47.3515526
  46.5823617  69.3219908  46.8985998  47.7282444  69.2529082  47.8855448
  53.2225040  57.9488360  59.5362075  54.1742463  58.0486458  59.5574299
  53.0528490  57.1566629  60.0460159  50.3746910  68.9866871  48.4824108
  51.3077583  68.9212432  48.6856984  50.2870123  69.8223137  48.0238641
  55.7013118  61.1694480  58.6504375  55.6689438  60.2310481  58.8364058
  56.3113741  61.2478517  57.9170199  47.5396449  60.0390533  44.6931579
  48.4855553  59.9096741  44.7619997  47.1610694  59.3005195  45.1701007
  55.8507606  57.9605524  58.6962658  55.3346655  57.1763980  58.5092587
  56.7347555  57.6324240  58.8609177  53.5118333  51.7046539  54.6558470
  53.3143154  51.3961627  55.5401802  54.1218039  52.4308178  54.7856400
  45.7239366  57.9640510  44.6286464  44.8170821  57.6673622  44.7049177
  46.0015347  57.6670328  43.7620750  36.6417306  59.2846873  55.0785510
  36.3220090  58.4312181  54.7859884  36.0950734  59.4995451  55.8343478
  40.4197214  62.0009314  58.7955017  40.6383223  62.9326422  58.8143051
  40.8322988  61.6417288  59.5809821  47.3401431  52.5077399  50.7830705
  46.5302160  52.1624484  51.1585951  48.0285848  52.1984943  51.3718317
  49.2691980  51.5855446  52.4055002  49.8223018  52.0050899  53.0645025
  49.5062066  50.6591194  52.4477958  44.4938150  54.8227445  44.7698443
  45.3557314  55.1482343  45.0294260  44.6788495  54.0358941  44.2571509
  36.5105566  62.9049784  57.0478632  35.8169038  62.4903737  56.5348586
  37.2578557  62.9470321  56.4512051  52.6470787  53.6955971  51.9133666
  52.0669456  54.3540775  51.5311718  52.3806720  52.8733316  51.5021084
  51.0974353  53.0961029  54.1154986  51.5974132  53.2077563  53.3069305
  51.7409961  52.7922082  54.7555795  38.4242309  62.8368038  54.9244647
  38.4012997  62.9355726  53.9726530  38.7342945  63.6833189  55.2461813
  41.0829687  64.8944193  59.0391261  42.0372940  64.8628136  58.9721193
  40.8842210  64.4334817  59.8541487  41.6729069  63.4645309  61.6062059
  42.4921958  63.9589388  61.6296896  41.9465876  62.5477277  61.5779626
  51.4295665  55.8556062  50.9690014  50.5421520  56.1405712  50.7510209
  51.8449654  55.6949825  50.1217291  54.7810201  55.8802583  54.6844354
  55.5570591  56.3699035  54.9568970  54.0558335  56.3060637  55.1416223
  57.2182760  56.5930202  55.7418294  57.8127250  56.3525938  55.0311602
  57.2909343  55.8737332  56.3691830  39.4379915  70.4363813  56.0561459
  39.3034383  69.6764214  55.4899457  39.0211978  71.1604713  55.5890248
  50.5738878  65.6200736  45.0638034  51.2774728  65.8250739  45.6795690
  49.8501527  66.1877498  45.3287118  51.4036689  61.3710598  51.1840304
  51.3471890  61.8279149  50.3447937  51.9565031  60.6101282  51.0063147
  55.2141495  57.1600329  52.0090424  54.9578429  56.7596965  52.8398632
  54.5894363  57.8744123  51.8840563  59.5253832  59.8996403  54.5161715
  58.9653390  59.9689592  55.2893277  58.9197336  59.7237387  53.7961212
  42.5949041  71.3333130  56.2679902  42.4781425  72.2778562  56.1658592
  41.7741487  71.0306691  56.6565701  52.4825576  66.0583265  47.1136494
  53.3171180  65.6264464  46.9313969  52.3209919  65.8865279  48.0413389
  52.1371468  62.5615379  48.4792834  52.0820272  62.3959650  47.5381278
  51.5117523  63.2691412  48.6355023  45.4467593  52.0623488  48.0578152
  45.4346263  53.0065328  48.2146423  46.3391015  51.8793633  47.7637613
  43.6203555  71.9861392  59.4835830  44.5230802  72.0185002  59.8002325
  43.3940925  71.0561843  59.4982166  45.3757157  70.7392378  56.1445909
  44.4252788  70.7394240  56.0310281  45.6789644  69.9925113  55.6281943
  49.2619713  48.6566264  52.3124089  48.4952109  48.1024751  52.4580771
  49.6730418  48.7288133  53.1738240  51.3250805  79.8767013  55.9734307
  52.1172097  79.5357837  55.5580607  51.5647455  79.9861988  56.8936461
  51.7921950  74.0827386  52.9183391  50.9953113  74.1946081  53.4366887
  51.5647542  74.4214039  52.0524282  48.1244907  73.9713298  58.3914906
  48.3752946  74.8560307  58.6572481  48.6604456  73.7917899  57.6189997
  50.7905032  79.7915635  51.3072811  51.3029553  80.5858885  51.4578376
  51.4427745  79.0941926  51.2406413  51.8852274  74.9546023  63.2657728
  51.7705789  74.0531280  63.5664827  51.0296791  75.2009720  62.9142544
  48.7553949  78.1204289  52.0832382  49.5929171  78.5301298  51.8666090
  48.9332217  77.1803732  52.0532576  56.0107525  68.2514144  56.2359195
  56.8760522  68.0556952  55.8765084  56.0785034  68.0224496  57.1628552
  53.6169844  70.4816352  53.6075562  54.1913596  70.2591533  52.8748755
  54.2040826  70.5505046  54.3604163  48.7780120  75.4595005  52.7543115
  48.5804520  74.8664365  52.0294182  48.2226784  75.1547215  53.4719054
  54.1883279  71.5413526  58.2489322  54.8282658  71.4002286  57.5512286
  53.3560809  71.2548040  57.8727924  51.2726346  74.9859039  50.4384068
  50.3423934  74.9243494  50.6554030  51.3683818  74.4634991  49.6420709
  51.1911895  71.5113851  53.0262309  51.4518712  72.4259185  52.9171470
  52.0129067  71.0438294  53.1758922  52.6636820  72.9251609  60.1961134
  53.3359874  72.7168971  59.5473783  51.8366607  72.7273695  59.7566366
  45.3379951  77.1445200  54.9210861  46.0250991  76.8306930  54.3331876
  45.1828080  78.0486565  54.6478112  50.1414674  72.0335396  59.3495885
  50.0572862  71.4261066  58.6146294  49.3197380  72.5244415  59.3505381
  44.9147928  75.2245793  57.1928328  44.9532027  74.6909384  57.9865446
  44.4088220  74.6980999  56.5739305  52.2938690  70.0710334  60.6890870
  52.3580016  70.9325165  60.2768268  52.2305810  69.4584335  59.9563229
  48.5456505  73.9509895  50.2682259  48.8409946  73.0420574  50.2149313
  47.6444541  73.9297635  49.9463262  50.2744347  71.6323993  50.3921585
  49.9457053  70.7521372  50.2096690  50.6283717  71.5771662  51.2797974
  49.5196345  75.7477687  62.3037250  48.7778081  75.8960323  62.8901880
  49.1989090  76.0085953  61.4403999  52.2500632  77.5638685  50.8864848
  52.0046674  76.6601015  51.0845058  52.4196547  77.5655836  49.9444326
  47.4811061  74.6138791  55.0785510  47.1613845  73.7604099  54.7859884
  46.9344489  74.8287369  55.8343478  47.3499321  78.2341702  57.0478632
  46.6562792  77.8195655  56.5348586  48.0972312  78.2762239  56.4512051
  49.2636063  78.1659956  54.9244647  49.2406751  78.2647643  53.9726530
  49.5736700  79.0125107  55.2461813  47.7657737  73.1275361  62.3054256
  48.4116601  72.6174315  62.7941481  47.5574889  73.8644042  62.8797681
  82.7897360 107.2336752  57.2091671  83.4275770 107.1143499  56.5055011
  82.6718203 108.1817596  57.2679623  75.4573882 109.0399656  53.1350087
  74.8938747 108.9489593  52.3666374  75.3426277 108.2199561  53.6152579
  73.0038314 110.5350848  55.9734307  73.7959606 110.1941673  55.5580607
  73.2434964 110.6445823  56.8936461  81.0373441 112.7070624  48.4464552
  80.3861420 113.2924705  48.0598565  81.8317803 113.2376819  48.5059589
  74.9629068 109.7959761  48.8451686  75.7359944 109.2488748  48.7064562
  75.3154467 110.6604011  49.0566147  77.2995346 105.9552427  46.4770136
  77.5520866 105.4333949  45.7153599  76.3619905 105.7918573  46.5796820
  82.5148706 110.3961056  48.9833536  81.8794539 110.4695683  49.6954441
  82.1846112 110.9854655  48.3052615  87.7447055 104.8963439  55.1877858
  88.4772227 104.3262656  55.4215687  86.9886411 104.5085039  55.6284363
  77.0191634 107.8580533  48.6794511  76.9027892 107.1825437  49.3475595
  77.1293894 107.3712907  47.8626664  79.3623175 107.3190680  52.3841200
  78.9981382 106.7921301  53.0954122  80.2190291 106.9289150  52.2107686
  81.7603995 110.8097559  59.0468379  81.4604718 111.7122598  58.9384186
  81.4155055 110.5429742  59.8989532  78.9817883 104.8038238  48.3649215
  78.8617508 105.2495288  49.2034696  78.2870471 105.1523555  47.8062754
  76.7424775 117.5741879  52.0139347  76.6648805 118.5249705  52.0927827
  76.1386419 117.2287752  52.6714273  84.6802949 105.2759711  49.1929549
  85.5920805 105.5087098  49.0177247  84.1712596 105.8596755  48.6304628
  79.3174787 104.6356945  60.2024399  80.1635982 105.0596359  60.3459048
  79.2573425 103.9790570  60.8962962  83.2872531 110.2585529  56.5843131
  82.6581394 110.4231243  55.8819199  82.8998194 110.6727139  57.3554095
  87.1661763 111.1939967  53.9387495  86.4812802 111.5738869  53.3884528
  87.2505613 111.8035294  54.6719442  78.8400493 109.9959937  53.8493216
  79.3038839 110.2747640  53.0597839  78.5757291 109.0943382  53.6666307
  77.7769379 106.1183090  50.6582781  78.4793423 106.5704133  51.1256708
  77.4450008 105.4766909  51.2862674  85.5358523 111.7171882  58.7105196
  86.3575967 111.3152069  58.4287877  85.5320926 111.6140116  59.6621311
  79.3015126 111.2655925  60.8665906  79.3659559 111.7276332  61.7024078
  78.5926050 110.6353290  60.9948216  93.6264516 108.0610630  55.0590167
  92.8728224 107.4918028  54.9034171  93.7612057 108.0273295  56.0060802
  79.0163144 112.9324032  50.7344886  78.8808819 113.7775568  51.1629734
  79.5572957 113.1343310  49.9710820  72.4692541 110.4499470  51.3072811
  72.9817062 111.2442721  51.4578376  73.1215254 109.7525761  51.2406413
  74.2787426 113.5665227  53.3895565  74.4554054 114.4883191  53.2016549
  75.0744260 113.2523646  53.8189944  75.4018742 115.0843400  59.3905907
  75.9526167 114.9560464  58.6182901  74.5630217 115.3838290  59.0400800
  82.3305890 106.4463205  47.7716215  81.8152514 107.2167810  48.0104602
  82.0583199 105.7728342  48.3949276  87.3040164 109.1995560  49.7069388
  86.5269607 108.8606720  49.2624551  87.9831645 109.2048183  49.0324354
  82.1192193 104.3190297  49.5975996  81.8142329 104.6336447  50.4486139
  83.0722636 104.3971717  49.6403329  80.5638625 110.4780521  51.2468950
  80.0359987 109.7433280  50.9342188  80.0626128 111.2555197  51.0008918
  85.5431471 108.6729541  56.3635996  84.8855146 109.3628803  56.4516125
  86.3471871 109.0625973  56.7069983  84.3536930 107.0273914  54.4139938
  84.8668812 107.6603906  54.9161648  85.0038154 106.4275109  54.0483298
  75.6226940 103.1704648  47.6271447  74.7864252 103.5079335  47.9480722
  75.4831710 103.0353628  46.6898584  78.7091226 108.2960731  44.2503923
  77.8018287 108.0649985  44.4495072  79.2062258 107.4998350  44.4377905
  81.6159304 117.0058238  47.1700609  80.9421003 117.3089935  47.7785567
  82.0025126 117.8087319  46.8206066  81.6152809 105.9014785  51.7900959
  82.3624628 106.4136182  51.4808081  81.8844398 105.5798838  52.6505353
  79.8879459 108.3973326  48.7727913  78.9790678 108.1132359  48.8700383
  79.9174543 108.8172404  47.9131220  85.1198726 112.0079915  52.5419081
  84.6661053 111.1670825  52.5984271  84.4892693 112.6441314  52.8793861
  83.5631666 113.8456412  53.4768899  83.8554640 114.4061469  52.7581265
  84.0730286 114.1384973  54.2322058  79.5855547 109.9382070  46.1115992
  79.1474977 109.2217929  45.6521629  80.3265988 110.1658184  45.5501083
  78.5265291 114.6236763  54.5662352  78.4841470 114.8497610  53.6370884
  79.4427990 114.3900138  54.7148153  87.7028662 108.2139267  52.1692310
  87.5646560 108.4040863  51.2413500  87.3464880 108.9758649  52.6260362
  87.7298041 110.2815794  57.1803582  88.1634548 110.1891083  58.0286636
  88.4429622 110.2573294  56.5423598  76.6431092 111.4999792  54.3624315
  77.4371690 111.0050112  54.1606890  75.9322784 110.9717655  53.9992020
  81.4625936 113.8817888  58.7136683  81.5162958 114.4508824  59.4814398
  80.5940717 114.0519773  58.3490720  80.4214036 108.0478150  60.2723614
  81.3506096 108.1989309  60.0992582  80.0005066 108.1362171  59.4172261
  79.2202368 112.0728814  58.0422152  79.0813453 111.7047599  58.9148090
  78.4316964 112.5876454  57.8706110  79.8150520 117.1737911  49.3847689
  79.9902275 116.7025954  50.1993311  79.1283308 117.8003677  49.6128949
  80.7707583 111.4510417  55.4310990  80.4357415 111.4111187  56.3268640
  80.2711528 110.7855133  54.9581400  83.7066774 108.7966451  45.7048049
  83.0895945 108.0713279  45.6081102  83.2383263 109.5575812  45.3615124
  74.3811605 120.3227273  56.1587549  74.6208203 120.9545798  56.8366567
  73.5380801 119.9715313  56.4452908  78.8939467 116.1306396  58.5629053
  78.8209638 116.9361367  59.0748357  78.4516860 116.3298362  57.7377074
  78.6829246 115.3678166  52.0731874  77.8996768 115.9099846  52.1670099
  79.3821991 115.8852146  52.4726115  89.8455654 106.8813161  56.3584371
  89.8345530 107.7637876  55.9878304  88.9773033 106.5284712  56.1638908
  81.3538150 116.0293230  60.7187211  82.0666122 116.6640695  60.6463113
  80.8628179 116.1257096  59.9027213  83.0755677 109.9344483  52.2904503
  82.1411956 110.0545945  52.1209207  83.2532346 109.0316949  52.0264513
  86.4628228 105.7761802  52.8254537  86.9288681 106.6089793  52.7514840
  86.9135729 105.3106783  53.5299796  84.5304460 112.1205623  49.8240689
  84.8064303 112.0062218  50.7334563  83.6608958 111.7223108  49.7852862
  81.1658524 116.3691974  53.4673503  81.3480918 115.5513630  53.9301255
  81.9891510 116.5859666  53.0298393  81.5000689 115.2960159  50.7288551
  82.0288456 114.7852614  50.1158713  81.7628909 114.9802689  51.5934084
  72.0017782 113.3124028  58.4723885  72.5871219 112.5667716  58.6051789
  71.8042620 113.6227985  59.3560549  74.8556437 116.3475276  53.4886327
  74.1866812 116.8321403  53.0050367  74.7169307 116.5944496  54.4029706
  78.9961706 118.3819019  60.0868986  79.5480014 118.5450641  60.8518071
  79.3367899 118.9723457  59.4149010  82.1330093 116.3300995  57.0732668
  82.0081232 115.5290735  56.5643613  82.7909184 116.8247188  56.5846638
  84.1965001 114.1310015  58.7012218  83.2495337 114.0115366  58.6290545
  84.5447774 113.2432513  58.7838479  81.2011435 113.9262731  54.9016570
  81.0536397 112.9979439  55.0824140  82.0264928 113.9482822  54.4173645
  84.8045556 114.7491290  55.9881443  85.7292104 114.5434151  55.8505894
  84.6360860 114.5007691  56.8970784  84.5940873 115.2676957  51.3443534
  84.7677750 114.7023380  50.5917387  85.0869764 116.0677852  51.1623024
  90.4480264 108.0313380  52.9633834  90.8911410 107.2820705  52.5652957
  89.5706774 108.0223517  52.5807566  85.5816045 114.5843722  48.4440433
  86.2766950 115.2050414  48.6627747  85.9239195 113.7339073  48.7192810
  87.4807468 112.0343427  49.9727763  88.0058792 112.3730700  49.2477083
  87.3929821 111.0990443  49.7890898  79.1427517 115.9477501  62.1017640
  79.4514643 115.7026648  62.9740340  79.9402999 116.1524139  61.6136510
  79.1648129 118.1015411  54.3323016  78.7253119 117.6091789  55.0255873
  79.9156246 117.5588378  54.0915092  71.6440468 114.2926951  54.3347645
  72.4698488 113.9930723  53.9546288  71.2934520 113.5234574  54.7837433
  76.6122001 113.6453420  56.4045318  75.9902010 112.9824125  56.1047546
  77.2826868 113.6714552  55.7218966  69.8449073 112.2113278  55.2936578
  69.0080981 111.7835452  55.1120579  69.8172718 112.4045721  56.2307369
  76.1735508 112.1957343  49.8803779  76.3223628 112.8792807  49.2270451
  76.9801952 112.1762433  50.3953234  89.9913129 109.5018619  55.3556282
  90.8260020 109.9408423  55.5193842  90.1272257 109.0257272  54.5364527
  73.9288141 108.2222521  50.8864848  73.6834183 107.3184851  51.0845058
  74.0984056 108.2239671  49.9444326  73.1983789 103.9550878  48.3851009
  72.5053034 104.0295233  47.7291045  72.9535540 103.1911222  48.9072526
  79.6730914 114.6905473  47.3515526  79.1004881 115.3095661  46.8985998
  80.2463707 115.2404835  47.8855448  82.8928173 114.9742624  48.4824108
  83.8258847 114.9088185  48.6856984  82.8051386 115.8098890  48.0238641
  85.5216190 114.2908494  45.4428056  85.4429822 113.9568358  46.3363814
  86.3425857 114.7830262  45.4419528  80.0577712 106.0266286  44.6931579
  81.0036817 105.8972494  44.7619997  79.6791957 105.2880948  45.1701007
  94.0370931 108.2186240  57.7910411  94.7674320 107.9571528  58.3518115
  93.4277877 107.4814962  57.8312479  78.2420629 103.9516263  44.6286464
  77.3352085 103.6549375  44.7049177  78.5196610 103.6546081  43.7620750
  73.6010950 110.8819946  59.0391261  74.5554204 110.8503889  58.9721193
  73.4023474 110.4210570  59.8541487  71.9561179 116.4239566  56.0561459
  71.8215647 115.6639967  55.4899457  71.5393241 117.1480466  55.5890248
  83.0920142 111.6076489  45.0638034  83.7955992 111.8126492  45.6795690
  82.3682791 112.1753251  45.3287118  83.9217952 107.3586351  51.1840304
  83.8653154 107.8154902  50.3447937  84.4746295 106.5977035  51.0063147
  87.7322758 103.1476082  52.0090424  87.4759692 102.7472718  52.8398632
  87.1075626 103.8619876  51.8840563  92.0435096 105.8872156  54.5161715
  91.4834654 105.9565345  55.2893277  91.4378599 105.7113140  53.7961212
  75.1130305 117.3208883  56.2679902  74.9962689 118.2654315  56.1658592
  74.2922751 117.0182444  56.6565701  85.0006839 112.0459019  47.1136494
  85.8352443 111.6140217  46.9313969  84.8391182 111.8741032  48.0413389
  84.6552731 108.5491132  48.4792834  84.6001535 108.3835403  47.5381278
  84.0298787 109.2567165  48.6355023  76.1384819 117.9737145  59.4835830
  77.0412066 118.0060755  59.8002325  75.9122189 117.0437596  59.4982166
  77.8938421 116.7268131  56.1445909  76.9434052 116.7269993  56.0310281
  78.1970907 115.9800866  55.6281943  93.6291114 122.5628670  57.2091671
  94.2669524 122.4435417  56.5055011  93.5111957 123.5109514  57.2679623
  90.4380821 122.5156098  57.1453196  90.0999332 122.3997162  56.2573731
  91.3070589 122.1147263  57.1254202  86.2967636 124.3691574  53.1350087
  85.7332501 124.2781511  52.3666374  86.1820031 123.5491479  53.6152579
  90.9200604 123.6690949  63.1039401  90.9089244 123.2743748  62.2319905
  91.0821243 122.9357022  63.6973173  83.8432068 125.8642766  55.9734307
  84.6353360 125.5233590  55.5580607  84.0828718 125.9737741  56.8936461
  91.8767195 128.0362542  48.4464552  91.2255175 128.6216622  48.0598565
  92.6711558 128.5668737  48.5059589  85.8022822 125.1251679  48.8451686
  86.5753698 124.5780666  48.7064562  86.1548221 125.9895928  49.0566147
  87.6407865 126.4528061  62.0518585  87.3497731 127.3573692  61.9365252
  88.2764849 126.4944589  62.7662655  88.5664072 123.8304910  58.6419945
  89.1627644 123.6060932  57.9276908  88.6239043 123.0889655  59.2445393
  88.1389100 121.2844345  46.4770136  88.3914621 120.7625866  45.7153599
  87.2013659 121.1210491  46.5796820  93.1832383 120.2880123  54.2844879
  93.9695472 119.8699547  53.9335296  93.4471087 121.1926216  54.4526528
  93.3542460 125.7252974  48.9833536  92.7188293 125.7987600  49.6954441
  93.0239867 126.3146573  48.3052615  98.5840810 120.2255357  55.1877858
  99.3165982 119.6554573  55.4215687  97.8280166 119.8376957  55.6284363
  87.8585389 123.1872451  48.6794511  87.7421647 122.5117354  49.3475595
  87.9687649 122.7004825  47.8626664  90.2016930 122.6482598  52.3841200
  89.8375137 122.1213219  53.0954122  91.0584046 122.2581067  52.2107686
  89.8422417 117.6772498  47.3802549  90.0096819 118.5452734  47.7473020
  89.6519586 117.8399780  46.4563838  92.5997750 126.1389477  59.0468379
  92.2998473 127.0414516  58.9384186  92.2548809 125.8721660  59.8989532
  86.0510231 122.5903274  55.0805083  85.1260728 122.4579488  55.2882775
  86.2994644 123.3697493  55.5775026  95.9994894 118.6572017  56.7265816
  95.0911771 118.5887425  56.4324577  95.9482489 119.1343962  57.5547642
  89.8211638 120.1330155  48.3649215  89.7011263 120.5787206  49.2034696
  89.1264226 120.4815473  47.8062754  83.4119042 122.2336547  55.9148872
  83.5411424 122.4871026  56.8288284  82.7316494 122.8264255  55.5953528
  87.5818530 132.9033797  52.0139347  87.5042559 133.8541622  52.0927827
  86.9780173 132.5579670  52.6714273  90.0735759 120.0761663  64.6700714
  89.2969093 120.6355583  64.6603578  90.7126322 120.5618446  65.1915584
  97.8656540 116.8588455  58.5043690  97.2230920 117.1520989  57.8583485
  97.3611469 116.7441376  59.3096887  95.5196704 120.6051629  49.1929549
  96.4314560 120.8379015  49.0177247  95.0106351 121.1888673  48.6304628
  88.3282132 122.8847116  64.2318681  89.0696816 123.4232160  63.9553504
  87.6219117 123.5113405  64.3890232  93.8037471 125.0276256  62.8290842
  94.2120827 124.5858667  62.0845474  93.0814733 124.4528884  63.0825035
  90.1568541 119.9648863  60.2024399  91.0029737 120.3888277  60.3459048
  90.0967179 119.3082487  60.8962962  94.1266286 125.5877447  56.5843131
  93.4975148 125.7523161  55.8819199  93.7391948 126.0019057  57.3554095
  98.0055518 126.5231885  53.9387495  97.3206556 126.9030786  53.3884528
  98.0899367 127.1327212  54.6719442  93.3067987 117.6253231  61.8605573
  93.0628919 118.3795292  61.3239848  93.5827917 118.0038579  62.6952820
  95.2606449 124.1691844  60.5382838  95.4723345 124.8123604  59.8617219
  95.2136198 123.3354160  60.0704768  92.8632678 116.7809665  57.4419410
  92.0017157 117.0790918  57.7336148  92.8895113 116.9980063  56.5100443
  89.6794248 125.3251855  53.8493216  90.1432593 125.6039558  53.0597839
  89.4151046 124.4235300  53.6666307  86.5718329 124.8723337  56.7872979
  87.1419686 125.3010605  56.1490464  87.1626441 124.5905921  57.4857165
  88.6163134 121.4475007  50.6582781  89.3187177 121.8996051  51.1256708
  88.2843762 120.8058826  51.2862674  87.0643495 120.0386764  65.0333991
  86.4342156 120.7203045  65.2669387  86.9579583 119.9269846  64.0887129
  82.3588468 119.7058560  55.9599915  81.5687522 119.9616089  55.4840025
  82.8499715 120.5206898  56.0651955  96.3752277 127.0463799  58.7105196
  97.1969721 126.6443987  58.4287877  96.3714680 126.9432033  59.6621311
  84.3103213 120.0703139  52.9183391  83.5134377 120.1821834  53.4366887
  84.0828805 120.4089792  52.0524282  90.1408881 126.5947843  60.8665906
  90.2053313 127.0568250  61.7024078  89.4319805 125.9645208  60.9948216
  80.6426171 119.9589051  58.3914906  80.8934209 120.8436060  58.6572481
  81.1785719 119.7793652  57.6189997 104.4658270 123.3902548  55.0590167
 103.7121979 122.8209946  54.9034171 104.6005812 123.3565212  56.0060802
  89.8556899 128.2615950  50.7344886  89.7202573 129.1067486  51.1629734
  90.3966711 128.4635228  49.9710820  83.3086296 125.7791388  51.3072811
  83.8210816 126.5734638  51.4578376  83.9609009 125.0817679  51.2406413
  85.1181181 128.8957144  53.3895565  85.2947809 129.8175109  53.2016549
  85.9138014 128.5815564  53.8189944  84.4033537 120.9421776  63.2657728
  84.2887052 120.0407034  63.5664827  83.5478055 121.1885473  62.9142544
  91.4825375 128.8839517  64.8645228  91.0389229 128.0975895  64.5466133
  92.1442588 129.0718667  64.1989119  86.2412496 130.4135318  59.3905907
  86.7919921 130.2852382  58.6182901  85.4023972 130.7130207  59.0400800
  93.5806613 129.1642317  62.8926630  93.5625088 129.9851198  62.4006899
  94.5026533 129.0396392  63.1176771  90.0379667 126.6786446  63.7350138
  90.5708004 125.9174734  63.5049446  89.5093748 126.3860098  64.4774293
  81.2735213 124.1080042  52.0832382  82.1110435 124.5177051  51.8666090
  81.4513480 123.1679485  52.0532576  93.1699645 121.7755123  47.7716215
  92.6546268 122.5459728  48.0104602  92.8976953 121.1020259  48.3949276
  90.7546756 116.6204824  52.8301453  89.8988352 116.2311674  52.6507092
  91.1673708 116.6996785  51.9701239  92.2845902 114.1551167  57.2293013
  91.7810698 114.1181302  56.4160818  92.5776509 115.0643910  57.2889670
  88.5288788 114.2389897  56.2359195  89.3941785 114.0432706  55.8765084
  88.5966297 114.0100249  57.1628552  98.1433919 124.5287478  49.7069388
  97.3663362 124.1898637  49.2624551  98.8225400 124.5340101  49.0324354
  92.9585948 119.6482215  49.5975996  92.6536084 119.9628364  50.4486139
  93.9116390 119.7263635  49.6403329  91.4032380 125.8072438  51.2468950
  90.8753741 125.0725198  50.9342188  90.9019883 126.5847115  51.0008918
  96.3825226 124.0021459  56.3635996  95.7248900 124.6920720  56.4516125
  97.1865625 124.3917891  56.7069983  86.1351107 116.4692105  53.6075562
  86.7094859 116.2467286  52.8748755  86.7222090 116.5380799  54.3604163
  95.1930685 122.3565832  54.4139938  95.7062566 122.9895823  54.9161648
  95.8431909 121.7567027  54.0483298  86.4620695 118.4996566  47.6271447
  85.6258007 118.8371252  47.9480722  86.3225464 118.3645546  46.6898584
  88.4373775 113.3433354  52.3350631  87.7838187 113.0282371  51.7107246
  88.3954249 112.7209094  53.0610454  89.5484980 123.6252649  44.2503923
  88.6412042 123.3941902  44.4495072  90.0456012 122.8290268  44.4377905
  92.4553059 132.3350156  47.1700609  91.7814758 132.6381853  47.7785567
  92.8418881 133.1379236  46.8206066  91.6711516 119.8315287  56.6598279
  90.7534077 120.0530234  56.5019967  92.0871659 119.9061598  55.8009986
  92.4546563 121.2306703  51.7900959  93.2018382 121.7428100  51.4808081
  92.7238153 120.9090756  52.6505353  90.7273213 123.7265244  48.7727913
  89.8184433 123.4424276  48.8700383  90.7568297 124.1464322  47.9131220
  95.9592481 127.3371833  52.5419081  95.5054808 126.4962743  52.5984271
  95.3286448 127.9733231  52.8793861  94.9025400 118.2663819  53.7719748
  94.1648157 117.7541205  54.1029991  95.1552174 117.8264201  52.9603025
  94.4025420 129.1748330  53.4768899  94.6948394 129.7353387  52.7581265
  94.9124041 129.4676891  54.2322058  95.0037028 111.0440071  54.3661518
  95.3095905 110.1837435  54.0787433  95.7289633 111.6357691  54.1660511
  81.2961384 121.4470758  52.7543115  81.0985784 120.8540118  52.0294182
  80.7408048 121.1422968  53.4719054  89.2758107 121.3393864  54.8737709
  89.3306717 120.3867701  54.7980185  88.4649310 121.4953303  55.3579007
  90.4249301 125.2673987  46.1115992  89.9868731 124.5509846  45.6521629
  91.1659742 125.4950102  45.5501083  87.2150467 119.9570924  52.6328087
  86.4018333 120.2565095  53.0393280  87.7109462 119.5626613  53.3502570
  89.3659045 129.9528681  54.5662352  89.3235224 130.1789527  53.6370884
  90.2821744 129.7192055  54.7148153  92.8124679 120.4212748  61.4642981
  93.1674067 120.6484222  62.3237447  93.4596810 120.7531125  60.8420237
  98.5422416 123.5431184  52.1692310  98.4040315 123.7332780  51.2413500
  98.1858635 124.3050567  52.6260362  86.7064542 117.5289279  58.2489322
  87.3463921 117.3878039  57.5512286  85.8742073 117.2423793  57.8727924
  98.5691796 125.6107711  57.1803582  99.0028302 125.5183000  58.0286636
  99.2823376 125.5865212  56.5423598  87.4824846 126.8291710  54.3624315
  88.2765445 126.3342030  54.1606890  86.7716538 126.3009573  53.9992020
  92.3019691 129.2109805  58.7136683  92.3556713 129.7800742  59.4814398
  91.4334472 129.3811690  58.3490720  83.7907610 120.9734792  50.4384068
  82.8605198 120.9119247  50.6554030  83.8865082 120.4510744  49.6420709
  83.7093159 117.4989604  53.0262309  83.9699976 118.4134938  52.9171470
  84.5310331 117.0314047  53.1758922  85.1818084 118.9127362  60.1961134
  85.8541137 118.7044724  59.5473783  84.3547870 118.7149448  59.7566366
  99.4307345 125.6531412  59.7136467  99.6243235 126.5577222  59.9595742
  99.3307963 125.1938831  60.5475052  94.4922454 125.8038155  65.2877348
  94.3407960 125.5748706  64.3707432  94.4827133 126.7608756  65.3008693
  91.2607790 123.3770067  60.2723614  92.1899850 123.5281227  60.0992582
  90.8398820 123.4654088  59.4172261  90.0596122 127.4020732  58.0422152
  89.9207208 127.0339516  58.9148090  89.2710718 127.9168371  57.8706110
  90.6544274 132.5029828  49.3847689  90.8296030 132.0317872  50.1993311
  89.9677062 133.1295595  49.6128949  91.6101337 126.7802335  55.4310990
  91.2751170 126.7403105  56.3268640  91.1105283 126.1147050  54.9581400
  85.5845581 122.1869965  60.9563571  85.4465379 121.4550203  61.5575110
  86.4950505 122.0978865  60.6747759  94.5460529 124.1258369  45.7048049
  93.9289700 123.4005197  45.6081102  94.0777017 124.8867729  45.3615124
  88.2127882 121.8989924  60.4447251  88.9227500 121.2583116  60.4033869
  88.1697190 122.1502819  61.3673431  96.2014661 128.8357277  63.3653830
  96.1427207 128.1516497  62.6984413  96.6034179 129.5776267  62.9134456
  86.9256816 118.8855142  62.2642890  86.3894173 118.4345880  62.9164486
  86.3373524 119.0201051  61.5213354  85.2205359 135.6519191  56.1587549
  85.4601958 136.2837715  56.8366567  84.3774556 135.3007231  56.4452908
  86.3359075 118.3443793  44.8269354  85.4588541 118.2232594  44.4631600
  86.8116828 117.5529872  44.5748242  96.2032068 126.7996861  61.5967809
  95.3158847 126.4622783  61.7194208  96.7730619 126.0679892  61.8336575
  77.8561215 123.1320953  54.9210861  78.5432255 122.8182683  54.3331876
  77.7009344 124.0362318  54.6478112  82.6595937 118.0211150  59.3495885
  82.5754126 117.4136819  58.6146294  81.8378643 118.5120168  59.3505381
  89.7333221 131.4598314  58.5629053  89.6603393 132.2653285  59.0748357
  89.2910614 131.6590279  57.7377074  89.5223001 130.6970084  52.0731874
  88.7390523 131.2391764  52.1670099  90.2215746 131.2144063  52.4726115
  92.8319651 116.5064713  54.7166080  93.3288350 115.7534675  54.3967150
  92.0606632 116.5429030  54.1509289 100.6849408 122.2105079  56.3584371
 100.6739285 123.0929794  55.9878304  99.8166788 121.8576629  56.1638908
  92.1931905 131.3585148  60.7187211  92.9059877 131.9932612  60.6463113
  91.7021933 131.4549014  59.9027213  93.9149432 125.2636400  52.2904503
  92.9805710 125.3837863  52.1209207  94.0926100 124.3608867  52.0264513
  89.4154620 118.6482096  54.4437764  89.0452407 118.0953136  55.1318670
  89.9113712 118.0440230  53.8912764  97.3021983 121.1053720  52.8254537
  97.7682435 121.9381711  52.7514840  97.7529483 120.6398701  53.5299796
  87.2443818 129.1079591  61.5392782  87.9453278 129.7416074  61.6922176
  86.7738933 129.4494323  60.7788421  95.3698214 127.4497541  49.8240689
  95.6458058 127.3354135  50.7334563  94.5002713 127.0515026  49.7852862
  95.2738646 113.4734307  56.8645438  94.3601726 113.7038533  57.0327645
  95.7031747 113.5572751  57.7159471  95.0445104 121.6624199  59.3645333
  94.3916554 121.9100106  58.7097785  95.4225484 120.8488337  59.0307810
  92.0052278 131.6983892  53.4673503  92.1874673 130.8805548  53.9301255
  92.8285264 131.9151584  53.0298393  92.3394444 130.6252077  50.7288551
  92.8682210 130.1144531  50.1158713  92.6022663 130.3094607  51.5934084
  91.0932677 122.4044010  65.8511370  90.4173314 122.3038139  66.5213745
  91.9160311 122.2483223  66.3147367  82.8411536 128.6415946  58.4723885
  83.4264973 127.8959634  58.6051789  82.6436375 128.9519903  59.3560549
  85.6950192 131.6767193  53.4886327  85.0260567 132.1613321  53.0050367
  85.5563061 131.9236414  54.4029706  77.4329191 121.2121546  57.1928328
  77.4713291 120.6785137  57.9865446  76.9269484 120.6856752  56.5739305
  89.8355460 133.7110937  60.0868986  90.3873768 133.8742559  60.8518071
  90.1761654 134.3015375  59.4149010  84.8119953 116.0586087  60.6890870
  84.8761280 116.9200918  60.2768268  84.7487074 115.4460088  59.9563229
  94.6866334 128.5372195  65.9417640  95.2306238 129.1502153  65.4472595
  94.1053179 129.0951773  66.4584653  81.0637769 119.9385648  50.2682259
  81.3591210 119.0296327  50.2149313  80.1625804 119.9173388  49.9463262
  92.9723847 131.6592913  57.0732668  92.8474987 130.8582652  56.5643613
  93.6302939 132.1539106  56.5846638  84.5932016 118.0141645  56.2509808
  83.8718601 118.6277613  56.1117281  85.3825271 118.5499410  56.1726454
  95.0358756 129.4601933  58.7012218  94.0889091 129.3407284  58.6290545
  95.3841529 128.5724431  58.7838479  82.7925610 117.6199746  50.3921585
  82.4638316 116.7397125  50.2096690  83.1464981 117.5647415  51.2797974
  92.0405189 129.2554649  54.9016570  91.8930152 128.3271356  55.0824140
  92.8658683 129.2774740  54.4173645  85.9067433 117.9072716  50.7597062
  86.2463506 118.4358637  50.0375671  86.3539554 118.2453122  51.5355629
  95.6439311 130.0783208  55.9881443  96.5685858 129.8726069  55.8505894
  95.4754614 129.8299609  56.8970784  88.6010874 116.2909767  60.2100130
  88.2607695 115.4917580  60.6120810  87.8949880 116.5911477  59.6376963
  89.2527346 113.3759079  58.6627453  90.0753415 112.9019557  58.5406344
  89.4965410 114.1549563  59.1626140  87.8935581 116.4047338  48.9590355
  88.6143943 116.7828590  48.4554072  87.2700885 117.1236214  49.0625333
  92.0366703 117.1092486  49.8948687  92.2530318 117.9917124  49.5937515
  91.5560771 116.7178700  49.1654329  86.7765925 120.0678200  56.4719432
  86.6310505 120.3818503  57.3643713  86.2991128 120.6863100  55.9190331
  88.6362308 117.0580748  56.5200321  88.6223876 116.1621841  56.1832619
  89.3534736 117.0651411  57.1538607  90.4888438 117.4918088  58.5653449
  90.2306216 118.4135159  58.5637779  89.9573479 117.0948522  59.2553913
  95.4334627 130.5968875  51.3443534  95.6071505 130.0315298  50.5917387
  95.9263518 131.3969770  51.1623024  81.2511587 122.6083544  59.4107093
  80.7065055 123.3843352  59.5427367  82.1290937 122.9554349  59.2526215
  88.0399204 115.9395128  51.7887892  88.1615115 115.0111774  51.9878779
  87.7501246 115.9533814  50.8766207  90.9090394 113.6250038  54.9254611
  90.9312091 113.6889372  53.9706591  91.3258453 112.7854547  55.1195118
 101.2874018 123.3605298  52.9633834 101.7305164 122.6112623  52.5652957
 100.4100529 123.3515434  52.5807566  96.4209800 129.9135639  48.4440433
  97.1160704 130.5342332  48.6627747  96.7632950 129.0630991  48.7192810
  82.0377609 121.7353440  62.3037250  81.2959345 121.8836076  62.8901880
  81.7170353 121.9961706  61.4403999  98.3201223 127.3635345  49.9727763
  98.8452547 127.7022618  49.2477083  98.2323575 126.4282360  49.7890898
  89.9821271 131.2769419  62.1017640  90.2908398 131.0318565  62.9740340
  90.7796753 131.4816057  61.6136510  90.0041883 133.4307328  54.3323016
  89.5646874 132.9383707  55.0255873  90.7550000 132.8880296  54.0915092
  82.4834222 129.6218869  54.3347645  83.3092242 129.3222641  53.9546288
  82.1328274 128.8526492  54.7837433  87.4515756 128.9745337  56.4045318
  86.8295765 128.3116042  56.1047546  88.1220623 129.0006469  55.7218966
  80.6842828 127.5405196  55.2936578  79.8474736 127.1127370  55.1120579
  80.6566473 127.7337639  56.2307369  98.0095129 127.9968249  65.2778961
  97.2190673 127.9792387  64.7383461  97.7728483 128.5356542  66.0327998
  98.1293004 124.8460715  62.5911690  98.1791009 124.6810722  63.5327213
  98.0206927 123.9787974  62.2009571  87.0129263 127.5249261  49.8803779
  87.1617383 128.2084725  49.2270451  87.8195706 127.5054351  50.3953234
  89.7539572 118.2058498  62.7524183  88.8842881 118.4992064  62.4806771
  89.9899052 118.7898943  63.4731446  99.6311201 127.2657656  62.8353711
  99.3396009 127.6287637  63.6717172  99.0183332 126.5524665  62.6567043
 100.8306883 124.8310536  55.3556282 101.6653774 125.2700340  55.5193842
 100.9666012 124.3549189  54.5364527  97.8798389 122.3890271  61.3033769
  98.3552511 122.5817917  60.4952621  96.9563954 122.4449457  61.0577153
  84.7681896 123.5514438  50.8864848  84.5227937 122.6476768  51.0845058
  84.9377810 123.5531589  49.9444326  84.0377543 119.2842796  48.3851009
  83.3446788 119.3587151  47.7291045  83.7929295 118.5203140  48.9072526
  92.7091200 110.8438397  55.7890500  92.9892953 110.1761586  56.4150926
  93.4941807 111.0367493  55.2765164  90.5124668 130.0197391  47.3515526
  89.9398635 130.6387578  46.8985998  91.0857462 130.5696753  47.8855448
  96.5800058 119.2656031  59.5362075  97.5317481 119.3654129  59.5574299
  96.4103508 118.4734300  60.0460159  93.7321928 130.3034541  48.4824108
  94.6652601 130.2380103  48.6856984  93.6445141 131.1390808  48.0238641
  96.3609945 129.6200412  45.4428056  96.2823576 129.2860275  46.3363814
  97.1819611 130.1122179  45.4419528  99.0588136 122.4862151  58.6504375
  99.0264456 121.5478152  58.8364058  99.6688759 122.5646188  57.9170199
  90.8971467 121.3558204  44.6931579  91.8430571 121.2264412  44.7619997
  90.5185712 120.6172866  45.1701007  96.8693351 113.0214210  54.6558470
  96.6718172 112.7129298  55.5401802  97.4793057 113.7475849  54.7856400
 104.8764686 123.5478158  57.7910411 105.6068074 123.2863446  58.3518115
 104.2671631 122.8106880  57.8312479 102.9579983 121.6886020  58.3884863
 102.2313146 121.5541985  57.7801354 102.5427270 121.9962849  59.1941581
  90.7810159 125.4075950  66.1532236  91.7013169 125.5854549  66.3472282
  90.7459742 124.4631995  66.0011935  89.0814384 119.2808180  44.6286464
  88.1745839 118.9841293  44.7049177  89.3590365 118.9837998  43.7620750
  79.9992324 120.6014544  55.0785510  79.6795108 119.7479852  54.7859884
  79.4525752 120.8163122  55.8343478  83.7772232 123.3176985  58.7955017
  83.9958241 124.2494092  58.8143051  84.1898005 122.9584959  59.5809821
  90.6976449 113.8245070  50.7830705  89.8877178 113.4792155  51.1585951
  91.3860866 113.5152614  51.3718317  92.6266998 112.9023117  52.4055002
  93.1798036 113.3218570  53.0645025  92.8637084 111.9758865  52.4477958
  87.8513168 116.1395115  44.7698443  88.7132332 116.4650014  45.0294260
  88.0363513 115.3526611  44.2571509  79.8680584 124.2217455  57.0478632
  79.1744056 123.8071408  56.5348586  80.6153575 124.2637992  56.4512051
  96.0045805 115.0123642  51.9133666  95.4244474 115.6708446  51.5311718
  95.7381738 114.1900987  51.5021084  94.4549371 114.4128700  54.1154986
  94.9549150 114.5245234  53.3069305  95.0984979 114.1089752  54.7555795
  81.7817327 124.1535709  54.9244647  81.7588015 124.2523396  53.9726530
  82.0917963 125.0000860  55.2461813  84.4404705 126.2111864  59.0391261
  85.3947958 126.1795806  58.9721193  84.2417228 125.7502488  59.8541487
  85.0304087 124.7812980  61.6062059  85.8496976 125.2757059  61.6296896
  85.3040894 123.8644948  61.5779626  94.7870683 117.1723732  50.9690014
  93.8996538 117.4573383  50.7510209  95.2024672 117.0117496  50.1217291
  98.1385219 117.1970253  54.6844354  98.9145609 117.6866706  54.9568970
  97.4133353 117.6228307  55.1416223 100.5757778 117.9097873  55.7418294
 101.1702268 117.6693608  55.0311602 100.6484361 117.1905003  56.3691830
  82.7954933 131.7531483  56.0561459  82.6609401 130.9931884  55.4899457
  82.3786996 132.4772383  55.5890248  93.9313896 126.9368407  45.0638034
  94.6349746 127.1418409  45.6795690  93.2076545 127.5045169  45.3287118
  94.7611707 122.6878268  51.1840304  94.7046908 123.1446820  50.3447937
  95.3140049 121.9268953  51.0063147  98.5716513 118.4768000  52.0090424
  98.3153447 118.0764636  52.8398632  97.9469381 119.1911794  51.8840563
 102.8828850 121.2164073  54.5161715 102.3228408 121.2857263  55.2893277
 102.2772354 121.0405058  53.7961212  85.9524059 132.6500800  56.2679902
  85.8356443 133.5946233  56.1658592  85.1316505 132.3474362  56.6565701
  95.8400594 127.3750936  47.1136494  96.6746198 126.9432135  46.9313969
  95.6784937 127.2032950  48.0413389  95.4946486 123.8783049  48.4792834
  95.4395290 123.7127321  47.5381278  94.8692541 124.5859082  48.6355023
  92.8092393 126.1831961  67.8046396  93.6783553 126.3572614  67.4433031
  92.3299145 127.0026378  67.6822126  88.8042611 113.3791159  48.0578152
  88.7921281 114.3232998  48.2146423  89.6966033 113.1961304  47.7637613
  86.9778573 133.3029062  59.4835830  87.8805820 133.3352673  59.8002325
  86.7515943 132.3729513  59.4982166  88.7332175 132.0560049  56.1445909
  87.7827806 132.0561911  56.0310281  89.0364661 131.3092783  55.6281943
  92.6194731 109.9733935  52.3124089  91.8527127 109.4192422  52.4580771
  93.0305436 110.0455804  53.1738240 104.4684869 137.8920587  57.2091671
 105.1063279 137.7727335  56.5055011 104.3505712 138.8401431  57.2679623
 101.2774575 137.8448015  57.1453196 100.9393087 137.7289080  56.2573731
 102.1464343 137.4439180  57.1254202  97.1361391 139.6983492  53.1350087
  96.5726256 139.6073429  52.3666374  97.0213786 138.8783396  53.6152579
 101.7594358 138.9982867  63.1039401 101.7482999 138.6035665  62.2319905
 101.9214998 138.2648940  63.6973173  94.6825823 141.1934683  55.9734307
  95.4747115 140.8525508  55.5580607  94.9222473 141.3029658  56.8936461
  96.6416577 140.4543597  48.8451686  97.4147453 139.9072584  48.7064562
  96.9941976 141.3187846  49.0566147  98.4801619 141.7819979  62.0518585
  98.1891485 142.6865610  61.9365252  99.1158604 141.8236507  62.7662655
  99.4057826 139.1596827  58.6419945 100.0021398 138.9352850  57.9276908
  99.4632798 138.4181573  59.2445393  98.9782854 136.6136263  46.4770136
  99.2308375 136.0917784  45.7153599  98.0407414 136.4502408  46.5796820
 104.0226137 135.6172041  54.2844879 104.8089227 135.1991464  53.9335296
 104.2864842 136.5218133  54.4526528 109.4234564 135.5547274  55.1877858
 110.1559736 134.9846491  55.4215687 108.6673920 135.1668875  55.6284363
  98.6979143 138.5164369  48.6794511  98.5815401 137.8409272  49.3475595
  98.8081403 138.0296743  47.8626664 101.0410684 137.9774516  52.3841200
 100.6768891 137.4505137  53.0954122 101.8977800 137.5872985  52.2107686
 106.9459985 129.2668848  59.6472466 106.6143310 130.1364259  59.4233681
 106.3505598 128.9505132  60.3266497 100.6816171 133.0064416  47.3802549
 100.8490573 133.8744652  47.7473020 100.4913340 133.1691697  46.4563838
  96.8903986 137.9195191  55.0805083  95.9654482 137.7871405  55.2882775
  97.1388399 138.6989411  55.5775026 106.8388648 133.9863935  56.7265816
 105.9305525 133.9179343  56.4324577 106.7876244 134.4635880  57.5547642
 100.6605392 135.4622073  48.3649215 100.5405017 135.9079124  49.2034696
  99.9657980 135.8107391  47.8062754  94.2512797 137.5628465  55.9148872
  94.3805178 137.8162944  56.8288284  93.5710248 138.1556173  55.5953528
 100.9129514 135.4053580  64.6700714 100.1362848 135.9647500  64.6603578
 101.5520077 135.8910363  65.1915584 108.7050294 132.1880373  58.5043690
 108.0624675 132.4812906  57.8583485 108.2005223 132.0733293  59.3096887
 106.3590458 135.9343546  49.1929549 107.2708314 136.1670933  49.0177247
 105.8500105 136.5180590  48.6304628  99.1675886 138.2139034  64.2318681
  99.9090571 138.7524078  63.9553504  98.4612872 138.8405322  64.3890232
 104.6431226 140.3568174  62.8290842 105.0514582 139.9150585  62.0845474
 103.9208487 139.7820802  63.0825035 100.9962296 135.2940781  60.2024399
 101.8423491 135.7180194  60.3459048 100.9360934 134.6374405  60.8962962
 104.1461741 132.9545149  61.8605573 103.9022673 133.7087210  61.3239848
 104.4221672 133.3330497  62.6952820 103.7026433 132.1101582  57.4419410
 102.8410912 132.4082836  57.7336148 103.7288868 132.3271981  56.5100443
 100.5188002 140.6543773  53.8493216 100.9826348 140.9331476  53.0597839
 100.2544800 139.7527217  53.6666307  97.4112083 140.2015254  56.7872979
  97.9813440 140.6302523  56.1490464  98.0020195 139.9197839  57.4857165
  99.4556888 136.7766925  50.6582781 100.1580932 137.2287969  51.1256708
  99.1237517 136.1350744  51.2862674  97.9037250 135.3678682  65.0333991
  97.2735911 136.0494963  65.2669387  97.7973338 135.2561763  64.0887129
  93.1982222 135.0350478  55.9599915  92.4081276 135.2908006  55.4840025
  93.6893470 135.8498816  56.0651955  95.1496968 135.3995057  52.9183391
  94.3528131 135.5113751  53.4366887  94.9222560 135.7381709  52.0524282
 100.9802635 141.9239760  60.8665906 101.0447068 142.3860167  61.7024078
 100.2713559 141.2937125  60.9948216  91.4819925 135.2880968  58.3914906
  91.7327964 136.1727978  58.6572481  92.0179474 135.1085570  57.6189997
  97.1817993 129.6699448  67.3959242  96.7884938 129.1165646  68.0706886
  97.9984133 129.9810026  67.7865759  94.1480050 141.1083306  51.3072811
  94.6604571 141.9026556  51.4578376  94.8002763 140.4109596  51.2406413
  95.9574935 144.2249062  53.3895565  96.1341563 145.1467027  53.2016549
  96.7531769 143.9107481  53.8189944 100.0985954 131.0857327  64.9879498
 100.8395667 131.6864480  64.9083961 100.3303876 130.3434964  64.4297541
  95.2427292 136.2713694  63.2657728  95.1280807 135.3698951  63.5664827
  94.3871809 136.5177391  62.9142544  97.0806251 145.7427236  59.3905907
  97.6313676 145.6144299  58.6182901  96.2417726 146.0422125  59.0400800
 100.8773422 142.0078364  63.7350138 101.4101758 141.2466652  63.5049446
 100.3487503 141.7152015  64.4774293 104.0443117 127.1138430  59.2643780
 103.7007386 128.0040071  59.1882890 104.4122079 126.9240087  58.4013365
  92.1128967 139.4371960  52.0832382  92.9504189 139.8468968  51.8666090
  92.2907235 138.4971402  52.0532576 104.0093399 137.1047041  47.7716215
 103.4940023 137.8751645  48.0104602 103.7370708 136.4312177  48.3949276
 101.5940510 131.9496742  52.8301453 100.7382107 131.5603592  52.6507092
 102.0067462 132.0288702  51.9701239 103.1239657 129.4843085  57.2293013
 102.6204453 129.4473220  56.4160818 103.4170264 130.3935828  57.2889670
  99.3682543 129.5681815  56.2359195 100.2335540 129.3724623  55.8765084
  99.4360052 129.3392166  57.1628552 103.7979702 134.9774133  49.5975996
 103.4929838 135.2920282  50.4486139 104.7510145 135.0555553  49.6403329
 102.2426134 141.1364356  51.2468950 101.7147496 140.4017116  50.9342188
 101.7413637 141.9139032  51.0008918  96.9744862 131.7984022  53.6075562
  97.5488614 131.5759204  52.8748755  97.5615844 131.8672717  54.3604163
 106.0324439 137.6857749  54.4139938 106.5456321 138.3187741  54.9161648
 106.6825663 137.0858945  54.0483298  97.3014449 133.8288483  47.6271447
  96.4651761 134.1663170  47.9480722  97.1619219 133.6937463  46.6898584
  99.2767530 128.6725271  52.3350631  98.6231942 128.3574289  51.7107246
  99.2348004 128.0501012  53.0610454 100.3878735 138.9544566  44.2503923
  99.4805796 138.7233820  44.4495072 100.8849766 138.1582186  44.4377905
 102.5105270 135.1607205  56.6598279 101.5927831 135.3822152  56.5019967
 102.9265414 135.2353515  55.8009986 103.2940318 136.5598621  51.7900959
 104.0412137 137.0720018  51.4808081 103.5631907 136.2382673  52.6505353
 101.5666968 139.0557161  48.7727913 100.6578187 138.7716194  48.8700383
 101.5962052 139.4756240  47.9131220 105.7419155 133.5955737  53.7719748
 105.0041912 133.0833123  54.1029991 105.9945928 133.1556118  52.9603025
 105.8430782 126.3731989  54.3661518 106.1489659 125.5129352  54.0787433
 106.5683387 126.9649609  54.1660511  92.1355138 136.7762675  52.7543115
  91.9379538 136.1832036  52.0294182  91.5801802 136.4714886  53.4719054
 100.1151862 136.6685782  54.8737709 100.1700472 135.7159618  54.7980185
  99.3043064 136.8245221  55.3579007 101.2643056 140.5965905  46.1115992
 100.8262486 139.8801764  45.6521629 102.0053497 140.8242020  45.5501083
  98.0544222 135.2862842  52.6328087  97.2412087 135.5857012  53.0393280
  98.5503216 134.8918530  53.3502570 103.6518434 135.7504666  61.4642981
 104.0067821 135.9776139  62.3237447 104.2990565 136.0823043  60.8420237
  97.5458297 132.8581197  58.2489322  98.1857676 132.7169956  57.5512286
  96.7135827 132.5715711  57.8727924  98.3218601 142.1583628  54.3624315
  99.1159199 141.6633948  54.1606890  97.6110293 141.6301491  53.9992020
  94.6301364 136.3026709  50.4384068  93.6998952 136.2411165  50.6554030
  94.7258836 135.7802662  49.6420709  94.5486913 132.8281522  53.0262309
  94.8093730 133.7426855  52.9171470  95.3704085 132.3605965  53.1758922
  96.0211838 134.2419279  60.1961134  96.6934892 134.0336641  59.5473783
  95.1941625 134.0441365  59.7566366 101.9237410 130.8681220  62.2126795
 101.2765325 131.5671170  62.1191271 102.6938426 131.3017364  62.5803043
 102.1001545 138.7061985  60.2723614 103.0293605 138.8573145  60.0992582
 101.6792575 138.7946006  59.4172261 100.8989877 142.7312650  58.0422152
 100.7600962 142.3631434  58.9148090 100.1104473 143.2460289  57.8706110
 102.4495092 142.1094252  55.4310990 102.1144924 142.0695022  56.3268640
 101.9499037 141.4438968  54.9581400  96.4239336 137.5161882  60.9563571
  96.2859134 136.7842121  61.5575110  97.3344259 137.4270782  60.6747759
 105.3854283 139.4550287  45.7048049 104.7683454 138.7297115  45.6081102
 104.9170772 140.2159647  45.3615124  99.0521636 137.2281842  60.4447251
  99.7621255 136.5875034  60.4033869  99.0090944 137.4794736  61.3673431
  97.7650570 134.2147059  62.2642890  97.2287927 133.7637798  62.9164486
  97.1767279 134.3492968  61.5213354  97.1752829 133.6735711  44.8269354
  96.2982296 133.5524512  44.4631600  97.6510582 132.8821789  44.5748242
  88.6954969 138.4612871  54.9210861  89.3826009 138.1474601  54.3331876
  88.5403098 139.3654235  54.6478112  93.4989692 133.3503067  59.3495885
  93.4147880 132.7428737  58.6146294  92.6772398 133.8412086  59.3505381
 103.6713405 131.8356631  54.7166080 104.1682105 131.0826593  54.3967150
 102.9000387 131.8720947  54.1509289 104.7543186 140.5928318  52.2904503
 103.8199465 140.7129780  52.1209207 104.9319855 139.6900785  52.0264513
 100.2548374 133.9774014  54.4437764  99.8846162 133.4245054  55.1318670
 100.7507467 133.3732147  53.8912764 108.1415737 136.4345637  52.8254537
 108.6076190 137.2673629  52.7514840 108.5923238 135.9690619  53.5299796
 106.1132400 128.8026224  56.8645438 105.1995480 129.0330451  57.0327645
 106.5425502 128.8864668  57.7159471 105.8838859 136.9916116  59.3645333
 105.2310309 137.2392024  58.7097785 106.2619239 136.1780254  59.0307810
 101.9326432 137.7335927  65.8511370 101.2567069 137.6330057  66.5213745
 102.7554066 137.5775141  66.3147367  93.6805291 143.9707864  58.4723885
  94.2658728 143.2251552  58.6051789  93.4830129 144.2811820  59.3560549
  88.2722946 136.5413464  57.1928328  88.3107045 136.0077055  57.9865446
  87.7663238 136.0148670  56.5739305  95.6513708 131.3878004  60.6890870
  95.7155034 132.2492835  60.2768268  95.5880828 130.7752006  59.9563229
  95.1265980 133.4601137  64.3363905  95.7538019 133.0778214  64.9501429
  94.2693899 133.2415339  64.7019597  91.9031523 135.2677566  50.2682259
  92.1984964 134.3588245  50.2149313  91.0019559 135.2465306  49.9463262
  95.4325770 133.3433563  56.2509808  94.7112356 133.9569530  56.1117281
  96.2219026 133.8791328  56.1726454  98.2352084 130.6787989  62.5250460
  98.7586485 130.9250286  63.2876769  98.0164417 131.5108024  62.1053597
  93.6319365 132.9491664  50.3921585  93.3032071 132.0689043  50.2096690
  93.9858735 132.8939332  51.2797974  96.7461188 133.2364634  50.7597062
  97.0857260 133.7650555  50.0375671  97.1933308 133.5745040  51.5355629
  99.4404629 131.6201684  60.2100130  99.1001449 130.8209497  60.6120810
  98.7343635 131.9203395  59.6376963 100.0921100 128.7050997  58.6627453
 100.9147170 128.2311475  58.5406344 100.3359164 129.4841481  59.1626140
  98.7329335 131.7339255  48.9590355  99.4537697 132.1120508  48.4554072
  98.1094639 132.4528132  49.0625333 102.8760458 132.4384404  49.8948687
 103.0924072 133.3209042  49.5937515 102.3954525 132.0470618  49.1654329
  97.6159679 135.3970117  56.4719432  97.4704260 135.7110420  57.3643713
  97.1384883 136.0155018  55.9190331  99.4756062 132.3872665  56.5200321
  99.4617631 131.4913759  56.1832619 100.1928490 132.3943329  57.1538607
 101.3282193 132.8210006  58.5653449 101.0699971 133.7427076  58.5637779
 100.7967233 132.4240440  59.2553913  92.0905341 137.9375462  59.4107093
  91.5458809 138.7135270  59.5427367  92.9684691 138.2846266  59.2526215
  98.8792958 131.2687046  51.7887892  99.0008869 130.3403692  51.9878779
  98.5895000 131.2825732  50.8766207 101.7484148 128.9541956  54.9254611
 101.7705845 129.0181289  53.9706591 102.1652207 128.1146465  55.1195118
  92.8771363 137.0645358  62.3037250  92.1353099 137.2127993  62.8901880
  92.5564108 137.3253624  61.4403999  93.3227977 144.9510787  54.3347645
  94.1485997 144.6514559  53.9546288  92.9722029 144.1818409  54.7837433
  98.2909510 144.3037255  56.4045318  97.6689519 143.6407960  56.1047546
  98.9614377 144.3298387  55.7218966  91.5236582 142.8697113  55.2936578
  90.6868490 142.4419288  55.1120579  91.4960227 143.0629557  56.2307369
  98.3634038 132.7819043  65.9977824  98.4122193 133.6581166  65.6155594
  98.9056552 132.2396436  65.4249467  97.8523017 142.8541178  49.8803779
  98.0011137 143.5376643  49.2270451  98.6589460 142.8346268  50.3953234
 106.2590521 136.1583561  63.9070997 107.1600383 136.0190026  63.6154994
 106.3338495 136.3238016  64.8469174 100.5933326 133.5350415  62.7524183
  99.7236635 133.8283981  62.4806771 100.8292806 134.1190860  63.4731446
  95.6075650 138.8806356  50.8864848  95.3621692 137.9768686  51.0845058
  95.7771565 138.8823506  49.9444326 103.2972360 129.7530032  60.2689603
 103.8154304 130.4891059  59.9436092 102.9427493 130.0594026  61.1036362
  94.8771298 134.6134714  48.3851009  94.1840542 134.6879069  47.7291045
  94.6323049 133.8495057  48.9072526 103.5484954 126.1730315  55.7890500
 103.8286708 125.5053504  56.4150926 104.3335561 126.3659410  55.2765164
 107.4193812 134.5947949  59.5362075 108.3711235 134.6946047  59.5574299
 107.2497263 133.8026217  60.0460159 105.4408192 131.6803532  59.7221476
 104.8458124 131.9608545  59.0267964 105.1557889 132.1697433  60.4938217
 101.7365221 136.6850122  44.6931579 102.6824326 136.5556330  44.7619997
 101.3579466 135.9464783  45.1701007 110.0476379 134.6065112  58.6962658
 109.5315427 133.8223569  58.5092587 110.9316327 134.2783829  58.8609177
 107.7087106 128.3506128  54.6558470 107.5111927 128.0421216  55.5401802
 108.3186811 129.0767766  54.7856400 101.6203914 140.7367868  66.1532236
 102.5406923 140.9146467  66.3472282 101.5853497 139.7923913  66.0011935
  99.9208138 134.6100098  44.6286464  99.0139594 134.3133211  44.7049177
 100.1984119 134.3129916  43.7620750  90.8386079 135.9306461  55.0785510
  90.5188863 135.0771770  54.7859884  90.2919507 136.1455039  55.8343478
  94.6165986 138.6468902  58.7955017  94.8351996 139.5786010  58.8143051
  95.0291760 138.2876877  59.5809821 101.5370204 129.1536988  50.7830705
 100.7270932 128.8084073  51.1585951 102.2254621 128.8444531  51.3718317
 103.4660752 128.2315034  52.4055002 104.0191791 128.6510488  53.0645025
 103.7030839 127.3050783  52.4477958  99.4893851 134.2202108  68.1857766
  99.3890578 135.1696465  68.1169857  99.2715394 133.8920347  67.3133836
  98.6906923 131.4687033  44.7698443  99.5526087 131.7941931  45.0294260
  98.8757267 130.6818529  44.2571509  90.7074339 139.5509373  57.0478632
  90.0137810 139.1363326  56.5348586  91.4547330 139.5929909  56.4512051
 106.8439559 130.3415560  51.9133666 106.2638228 131.0000364  51.5311718
 106.5775492 129.5192904  51.5021084 105.2943126 129.7420617  54.1154986
 105.7942904 129.8537152  53.3069305 105.9378734 129.4381670  54.7555795
  99.3525122 137.6499247  67.0022827  98.8692203 138.4499607  67.2086716
  99.4386061 137.6607192  66.0490271  92.6211081 139.4827627  54.9244647
  92.5981769 139.5815314  53.9726530  92.9311718 140.3292777  55.2461813
  95.2798459 141.5403782  59.0391261  96.2341713 141.5087724  58.9721193
  95.0810983 141.0794405  59.8541487  95.8697841 140.1104898  61.6062059
  96.6890730 140.6048976  61.6296896  96.1434649 139.1936866  61.5779626
 105.6264437 132.5015650  50.9690014 104.7390292 132.7865301  50.7510209
 106.0418426 132.3409413  50.1217291 108.9778973 132.5262171  54.6844354
 109.7539364 133.0158623  54.9568970 108.2527108 132.9520225  55.1416223
 111.4151532 133.2389790  55.7418294 112.0096023 132.9985526  55.0311602
 111.4878116 132.5196921  56.3691830  93.6348688 147.0823401  56.0561459
  93.5003156 146.3223802  55.4899457  93.2180750 147.8064301  55.5890248
 105.6005461 138.0170186  51.1840304 105.5440662 138.4738737  50.3447937
 106.1533804 137.2560871  51.0063147 109.4110267 133.8059918  52.0090424
 109.1547201 133.4056553  52.8398632 108.7863135 134.5203712  51.8840563
 106.3340240 139.2074967  48.4792834 106.2789044 139.0419239  47.5381278
 105.7086296 139.9151000  48.6355023  91.1232755 134.4443032  62.3054256
  91.7691619 133.9341986  62.7941481  90.9149906 135.1811713  62.8797681
  99.6436366 128.7083076  48.0578152  99.6315036 129.6524916  48.2146423
 100.5359788 128.5253222  47.7637613 103.4588485 125.3025853  52.3124089
 102.6920881 124.7484340  52.4580771 103.8699190 125.3747722  53.1738240
  95.4630246 131.5910649  66.4029270  96.3261708 131.2347453  66.6132595
  94.8895657 131.2524543  67.0904674  28.5928589   7.5939286  43.9336978
  29.2306999   7.4746034  43.2300318  28.4749432   8.5420130  43.9924930
  25.4018295   7.5466714  43.8698502  25.0636806   7.4307779  42.9819037
  26.2708063   7.1457879  43.8499509  25.8838078   8.7001566  49.8284708
  25.8726719   8.3054364  48.9565212  26.0458717   7.9667639  50.4218479
  18.8069543  10.8953382  42.6979614  19.5990834  10.5544207  42.2825913
  19.0466193  11.0048357  43.6181767  26.8404669  13.0673158  35.1709858
  26.1892649  13.6527239  34.7843872  27.6349032  13.5979353  35.2304896
  22.6045339  11.4838678  48.7763892  22.3135205  12.3884309  48.6610558
  23.2402323  11.5255205  49.4907961  23.5301546   8.8615526  45.3665252
  24.1265118   8.6371549  44.6522215  23.5876517   8.1200272  45.9690699
  28.1469857   5.3190740  41.0090186  28.9332946   4.9010163  40.6580603
  28.4108561   6.2236832  41.1771834  33.5478284   5.2565973  41.9123164
  34.2803456   4.6865190  42.1460994  32.7917640   4.8687574  42.3529670
  25.1654404   7.6793215  39.1086507  24.8012611   7.1523836  39.8199428
  26.0221520   7.2891684  38.9352992  27.5635224  11.1700093  45.7713686
  27.2635947  12.0725132  45.6629493  27.2186284  10.9032277  46.6234839
  21.0147706   7.6213890  41.8050390  20.0898202   7.4890104  42.0128082
  21.2632119   8.4008109  42.3020332  30.9632368   3.6882634  43.4511123
  30.0549245   3.6198042  43.1569884  30.9119964   4.1654578  44.2792948
  22.5456004  17.9344414  38.7384653  22.4680034  18.8852239  38.8173134
  21.9417648  17.5890286  39.3959580  25.0373234   5.1072279  51.3946020
  24.2606568   5.6666199  51.3848885  25.6763797   5.5929062  51.9160890
  32.8294014   1.8899072  45.2288997  32.1868395   2.1831605  44.5828791
  32.3248943   1.7751992  46.0342194  23.2919606   7.9157732  50.9563987
  24.0334290   8.4542776  50.6798811  22.5856591   8.5424021  51.1135539
  28.7674946  10.0586873  49.5536149  29.1758302   9.6169283  48.8090781
  28.0452207   9.4839500  49.8070342  25.1206016   4.9959480  46.9269706
  25.9667211   5.4198893  47.0704355  25.0604653   4.3393104  47.6208269
  29.0903760  10.6188064  43.3088438  28.4612623  10.7833778  42.6064505
  28.7029422  11.0329673  44.0799402  32.9692992  11.5542501  40.6632801
  32.2844030  11.9341403  40.1129835  33.0536842  12.1637828  41.3964749
  28.2705461   2.6563848  48.5850879  28.0266393   3.4105909  48.0485155
  28.5465392   3.0349196  49.4198126  30.2243924   9.2002460  47.2628145
  30.4360819   9.8434220  46.5862526  30.1773672   8.3664777  46.7950075
  27.8270153   1.8120281  44.1664717  26.9654632   2.1101535  44.4581455
  27.8532587   2.0290680  43.2345750  24.6431722  10.3562472  40.5738523
  25.1070068  10.6350175  39.7843145  24.3788520   9.4545916  40.3911613
  21.5355803   9.9033953  43.5118286  22.1057160  10.3321222  42.8735770
  22.1263915   9.6216538  44.2102472  31.3389752  12.0774416  45.4350502
  32.1607195  11.6754603  45.1533184  31.3352155  11.9742650  46.3866618
  25.1046355  11.6258459  47.5911213  25.1690788  12.0878866  48.4269385
  24.3957279  10.9955824  47.7193523  39.4295745   8.4213164  41.7835474
  38.6759453   7.8520562  41.6279478  39.5643286   8.3875829  42.7306108
  24.8194373  13.2926567  37.4590193  24.6840048  14.1378102  37.8875041
  25.3604185  13.4945844  36.6956127  20.0818655  13.9267761  40.1140871
  20.2585283  14.8485726  39.9261855  20.8775488  13.6126180  40.5435251
  26.4462849  13.9150133  51.5890535  26.0026703  13.1286512  51.2711440
  27.1080063  14.1029284  50.9234426  21.2049970  15.4445935  46.1151214
  21.7557396  15.3162998  45.3428208  20.3661446  15.7440824  45.7646106
  28.5444087  14.1952933  49.6171936  28.5262563  15.0161814  49.1252206
  29.4664007  14.0707008  49.8422078  25.0017141  11.7097063  50.4595445
  25.5345478  10.9485351  50.2294753  24.4731223  11.4170714  51.2019599
  33.1071393   9.5598094  36.4314695  32.3300836   9.2209254  35.9869857
  33.7862874   9.5650717  35.7569660  26.3669854  10.8383055  37.9714257
  25.8391216  10.1035815  37.6587494  25.8657357  11.6157731  37.7254225
  31.3462700   9.0332076  43.0881303  30.6886375   9.7231337  43.1761432
  32.1503099   9.4228507  43.4315289  30.1568159   7.3876448  41.1385245
  30.6700041   8.0206440  41.6406955  30.8069383   6.7877644  40.7728605
  27.4190533  17.3660772  33.8945916  26.7452232  17.6692469  34.5030874
  27.8056355  18.1689853  33.5451373  26.6348990   4.8625904  43.3843585
  25.7171551   5.0840851  43.2265273  27.0509133   4.9372214  42.5255293
  27.4184038   6.2617319  38.5146266  28.1655857   6.7738717  38.2053388
  27.6875627   5.9401372  39.3750659  30.9229955  12.3682450  39.2664387
  30.4692282  11.5273360  39.3229578  30.2923922  13.0043848  39.6039168
  29.8662875   3.2974436  40.4965055  29.1285632   2.7851822  40.8275297
  30.1189648   2.8574817  39.6848332  29.3662894  14.2058946  40.2014206
  29.6585869  14.7664003  39.4826571  29.8761515  14.4987507  40.9567365
  24.2395582   6.3704481  41.5983015  24.2944192   5.4178317  41.5225492
  23.4286784   6.5263920  42.0824314  24.3296520  14.9839297  41.2907659
  24.2872698  15.2100144  40.3616191  25.2459218  14.7502672  41.4393460
  27.7762153   5.4523365  48.1888288  28.1311541   5.6794838  49.0482754
  28.4234285   5.7841742  47.5665543  33.5059890   8.5741801  38.8937617
  33.3677789   8.7643397  37.9658806  33.1496109   9.3361184  39.3505668
  33.5329270  10.6418328  43.9048889  33.9665777  10.5493617  44.7531943
  34.2460851  10.6175828  43.2668905  22.4462320  11.8602326  41.0869622
  23.2402919  11.3652647  40.8852196  21.7354013  11.3320190  40.7237327
  27.2657165  14.2420422  45.4381989  27.3194187  14.8111358  46.2059705
  26.3971946  14.4122307  45.0736026  34.3944820  10.6842029  46.4381774
  34.5880710  11.5887839  46.6841049  34.2945438  10.2249448  47.2720359
  29.4559928  10.8348771  52.0122655  29.3045435  10.6059323  51.0952738
  29.4464608  11.7919373  52.0254000  26.2245265   8.4080684  46.9968921
  27.1537325   8.5591844  46.8237888  25.8036295   8.4964705  46.1417568
  25.0233596  12.4331348  44.7667459  24.8844682  12.0650133  45.6393397
  24.2348193  12.9478988  44.5951416  25.6181748  17.5340445  36.1092995
  25.7933504  17.0628488  36.9238618  24.9314536  18.1606211  36.3374256
  26.5738812  11.8112951  42.1556296  26.2388644  11.7713721  43.0513946
  26.0742757  11.1457667  41.6826707  20.5483056   7.2180581  47.6808878
  20.4102853   6.4860820  48.2820417  21.4587979   7.1289481  47.3993065
  23.1765356   6.9300540  47.1692557  23.8864975   6.2893733  47.1279176
  23.1334664   7.1813435  48.0918738  31.1652135  13.8667894  50.0899136
  31.1064681  13.1827114  49.4229719  31.5671653  14.6086884  49.6379762
  20.1842834  20.6829808  42.8832855  20.4239432  21.3148332  43.5611874
  19.3412030  20.3317848  43.1698215  31.1669542  11.8307478  48.3213116
  30.2796321  11.4933400  48.4439515  31.7368093  11.0990509  48.5581881
  24.6970696  16.4908930  45.2874359  24.6240867  17.2963902  45.7993664
  24.2548089  16.6900896  44.4622381  24.4860475  15.7280700  38.7977181
  23.7027997  16.2702380  38.8915405  25.1853220  16.2454680  39.1971422
  35.6486883   7.2415695  43.0829678  35.6376759   8.1240411  42.7123611
  34.7804262   6.8887246  42.8884215  27.1569379  16.3895764  47.4432518
  27.8697351  17.0243229  47.3708419  26.6659408  16.4859630  46.6272520
  28.8786906  10.2947017  39.0149810  27.9443185  10.4148479  38.8454514
  29.0563574   9.3919484  38.7509819  32.2659457   6.1364336  39.5499844
  32.7319909   6.9692328  39.4760146  32.7166958   5.6709318  40.2545102
  22.2081293  14.1390208  48.2638089  22.9090752  14.7726691  48.4167483
  21.7376408  14.4804939  47.5033728  30.3335688  12.4808157  36.5485996
  30.6095532  12.3664752  37.4579870  29.4640187  12.0825642  36.5098169
  30.0082579   6.6934815  46.0890639  29.3554029   6.9410722  45.4343092
  30.3862958   5.8798953  45.7553116  26.9689752  16.7294508  40.1918809
  27.1512147  15.9116164  40.6546562  27.7922738  16.9462200  39.7543699
  27.3031918  15.6562693  37.4533858  27.8319684  15.1455148  36.8404020
  27.5660137  15.3405224  38.3179391  26.0570152   7.4354626  52.5756676
  25.3810789   7.3348755  53.2459051  26.8797785   7.2793840  53.0392673
  17.8049011  13.6726563  45.1969191  18.3902447  12.9270251  45.3297096
  17.6073849  13.9830519  46.0805855  20.6587666  16.7077810  40.2131634
  19.9898041  17.1923938  39.7295674  20.5200536  16.9547030  41.1275012
  24.7992934  18.7421554  46.8114292  25.3511242  18.9053175  47.5763377
  25.1399128  19.3325991  46.1394317  29.6503809  13.5682811  52.6662947
  30.1943713  14.1812769  52.1717901  29.0690654  14.1262389  53.1829960
  27.9361322  16.6903529  43.7977974  27.8112461  15.8893269  43.2888920
  28.5940413  17.1849722  43.3091944  29.9996230  14.4912549  45.4257524
  29.0526566  14.3717900  45.3535851  30.3479003  13.6035047  45.5083786
  27.0042663  14.2865265  41.6261877  26.8567626  13.3581973  41.8069447
  27.8296157  14.3085356  41.1418952  30.6076785  15.1093824  42.7126749
  31.5323333  14.9036685  42.5751201  30.4392089  14.8610225  43.6216091
  30.3972101  15.6279492  38.0688841  30.5708979  15.0625914  37.3162693
  30.8900993  16.4280386  37.8868331  36.2511493   8.3915915  39.6879141
  36.6942639   7.6423240  39.2898264  35.3738003   8.3826051  39.3052873
  31.3847274  14.9446256  35.1685739  32.0798179  15.5652949  35.3873054
  31.7270424  14.0941607  35.4438117  33.2838697  12.3945961  36.6973070
  33.8090021  12.7333234  35.9722390  33.1961050  11.4592977  36.5136205
  24.9458746  16.3080035  48.8262947  25.2545872  16.0629182  49.6985646
  25.7434228  16.5126674  48.3381817  24.9679358  18.4617945  41.0568323
  24.5284348  17.9694323  41.7501180  25.7187475  17.9190912  40.8160398
  17.4471697  14.6529486  41.0592951  18.2729717  14.3533258  40.6791595
  17.0965749  13.8837108  41.5082740  22.4153230  14.0055954  43.1290625
  21.7933239  13.3426659  42.8292853  23.0858097  14.0317086  42.4464273
  15.6480302  12.5715812  42.0181885  14.8112210  12.1437986  41.8365886
  15.6203947  12.7648255  42.9552676  32.9732603  13.0278865  52.0024268
  32.1828147  13.0103004  51.4628767  32.7365958  13.5667159  52.7573304
  33.0930478   9.8771332  49.3156996  33.1428483   9.7121339  50.2572519
  32.9844402   9.0098591  48.9254877  30.3834241   5.8602260  50.6316303
  31.2844103   5.7208724  50.3400301  30.4582215   6.0256714  51.5714481
  34.5948675  12.2968273  49.5599018  34.3033483  12.6598254  50.3962479
  33.9820806  11.5835281  49.3812350  35.7944357   9.8621153  42.0801588
  36.6291249  10.3010957  42.2439149  35.9303486   9.3859806  41.2609834
  32.8435863   7.4200888  48.0279076  33.3189985   7.6128534  47.2197927
  31.9201429   7.4760073  47.7822460  31.5437532   4.2966648  46.2607382
  32.4954955   4.3964745  46.2819606  31.3740983   3.5044916  46.7705466
  29.5651912   1.3822231  46.4466783  28.9701844   1.6627244  45.7513271
  29.2801608   1.8716132  47.2183524  28.6959402  15.3345158  35.2069415
  29.6290075  15.2690719  35.4102291  28.6082615  16.1701425  34.7483948
  31.3247419  14.6511028  32.1673363  31.2461050  14.3170892  33.0609121
  32.1457086  15.1432796  32.1664835  34.0225610   7.5172767  45.3749681
  33.9901930   6.5788768  45.5609365  34.6326234   7.5956804  44.6415506
  34.1720099   4.3083811  45.4207964  33.6559147   3.5242267  45.2337893
  35.0560047   3.9802527  45.5854484  39.8402160   8.5788774  44.5155718
  40.5705548   8.3174062  45.0763421  39.2309105   7.8417496  44.5557786
  37.9217457   6.7196637  45.1130169  37.1950621   6.5852602  44.5046661
  37.5064744   7.0273465  45.9186887  25.7447633  10.4386567  52.8777542
  26.6650643  10.6165166  53.0717589  25.7097216   9.4942612  52.7257242
  18.7409706   8.3487601  45.5200323  18.9595716   9.2804709  45.5388357
  19.1535480   7.9895576  46.3055127  23.4768841   7.3517946  53.7268134
  22.9935923   8.1518306  53.9332023  23.5629780   7.3625891  52.7735578
  19.4042179  11.2422480  45.7636568  20.3585432  11.2106423  45.6966499
  19.2054702  10.7813104  46.5786794  19.9941561   9.8123597  48.3307365
  20.8134450  10.3067675  48.3542203  20.2678369   8.8955565  48.3024933
  33.1022693   2.2280870  41.4089660  33.8783083   2.7177322  41.6814277
  32.3770827   2.6538924  41.8661530  35.5395252   2.9408489  42.4663601
  36.1339743   2.7004225  41.7556909  35.6121836   2.2215620  43.0937137
  17.7592408  16.7842100  42.7806766  17.6246876  16.0242501  42.2144764
  17.3424470  17.5083000  42.3135555  29.7249181   7.7188885  37.9085611
  29.6684382   8.1757436  37.0693244  30.2777523   6.9579569  37.7308454
  33.5353987   3.5078617  38.7335731  33.2790921   3.1075252  39.5643938
  32.9106855   4.2222411  38.6085870  37.8466325   6.2474690  41.2407022
  37.2865883   6.3167879  42.0138584  37.2409828   6.0715675  40.5206518
  20.9161533  17.6811417  42.9925208  20.7993918  18.6256849  42.8903899
  20.0953980  17.3784979  43.3811007  30.8038068  12.4061553  33.8381801
  31.6383672  11.9742751  33.6559276  30.6422411  12.2343566  34.7658695
  27.7729867  11.2142578  54.5291703  28.6421027  11.3883230  54.1678338
  27.2936619  12.0336995  54.4067432  21.9416048  18.3339679  46.2081137
  22.8443294  18.3663289  46.5247632  21.7153418  17.4040130  46.2227473
  23.6969650  17.0870665  42.8691215  22.7465281  17.0872527  42.7555588
  24.0002136  16.3403400  42.3527250  39.4322343  22.9231204  43.9336978
  40.0700753  22.8037951  43.2300318  39.3143186  23.8712048  43.9924930
  36.2412049  22.8758632  43.8698502  35.9030561  22.7599697  42.9819037
  37.1101818  22.4749797  43.8499509  32.0998865  24.7294108  39.8595393
  31.5363730  24.6384045  39.0911681  31.9851260  23.9094013  40.3397886
  36.7231832  24.0293484  49.8284708  36.7120473  23.6346282  48.9565212
  36.8852472  23.2959556  50.4218479  29.6463297  26.2245300  42.6979614
  30.4384589  25.8836125  42.2825913  29.8859947  26.3340275  43.6181767
  37.6798424  28.3965076  35.1709858  37.0286404  28.9819156  34.7843872
  38.4742787  28.9271271  35.2304896  31.6054051  25.4854213  35.5696993
  32.3784927  24.9383200  35.4309868  31.9579450  26.3498463  35.7811454
  33.4439094  26.8130595  48.7763892  33.1528960  27.7176226  48.6610558
  34.0796078  26.8547123  49.4907961  34.3695300  24.1907444  45.3665252
  34.9658873  23.9663466  44.6522215  34.4270272  23.4492189  45.9690699
  33.9420329  21.6446879  33.2015443  34.1945849  21.1228401  32.4398906
  33.0044888  21.4813025  33.3042126  38.9863612  20.6482658  41.0090186
  39.7726701  20.2302081  40.6580603  39.2502316  21.5528750  41.1771834
  39.1573689  26.0855508  35.7078843  38.5219522  26.1590135  36.4199747
  38.8271095  26.6749107  35.0297922  44.3872039  20.5857891  41.9123164
  45.1197211  20.0157108  42.1460994  43.6311394  20.1979491  42.3529670
  33.6616618  23.5474985  35.4039818  33.5452876  22.8719889  36.0720902
  33.7718877  23.0607359  34.5871971  36.0048158  23.0085132  39.1086507
  35.6406366  22.4815753  39.8199428  36.8615274  22.6183601  38.9352992
  41.9097459  14.2979465  46.3717773  41.5780784  15.1674876  46.1478988
  41.3143072  13.9815749  47.0511803  35.6453645  18.0375032  34.1047855
  35.8128048  18.9055268  34.4718326  35.4550815  18.2002314  33.1809145
  38.4028979  26.4992011  45.7713686  38.1029702  27.4017050  45.6629493
  38.0580038  26.2324194  46.6234839  31.8541460  22.9505808  41.8050390
  30.9291957  22.8182022  42.0128082  32.1025873  23.7300027  42.3020332
  41.8026122  19.0174551  43.4511123  40.8943000  18.9489960  43.1569884
  41.7513718  19.4946496  44.2792948  35.6242866  20.4932690  35.0894522
  35.5042492  20.9389740  35.9280002  34.9295455  20.8418007  34.5308060
  29.2150271  22.5939081  42.6394179  29.3442652  22.8473560  43.5533591
  28.5347722  23.1866789  42.3198834  33.3849758  33.2636331  38.7384653
  33.3073788  34.2144156  38.8173134  32.7811402  32.9182204  39.3959580
  35.8766988  20.4364197  51.3946020  35.1000322  20.9958117  51.3848885
  36.5157551  20.9220980  51.9160890  43.6687769  17.2190990  45.2288997
  43.0262149  17.5123523  44.5828791  43.1642697  17.1043910  46.0342194
  41.3227932  20.9654163  35.9174856  42.2345789  21.1981550  35.7422554
  40.8137580  21.5491207  35.3549935  34.1313361  23.2449650  50.9563987
  34.8728045  23.7834694  50.6798811  33.4250346  23.8715939  51.1135539
  39.6068700  25.3878791  49.5536149  40.0152056  24.9461201  48.8090781
  38.8845962  24.8131418  49.8070342  35.9599770  20.3251397  46.9269706
  36.8060965  20.7490811  47.0704355  35.8998408  19.6685022  47.6208269
  39.9297515  25.9479981  43.3088438  39.3006377  26.1125695  42.6064505
  39.5423177  26.3621591  44.0799402  43.8086747  26.8834419  40.6632801
  43.1237785  27.2633320  40.1129835  43.8930596  27.4929746  41.3964749
  39.1099216  17.9855766  48.5850879  38.8660147  18.7397826  48.0485155
  39.3859146  18.3641113  49.4198126  41.0637678  24.5294378  47.2628145
  41.2754574  25.1726138  46.5862526  41.0167427  23.6956695  46.7950075
  38.6663907  17.1412199  44.1664717  37.8048386  17.4393452  44.4581455
  38.6926342  17.3582598  43.2345750  35.4825477  25.6854389  40.5738523
  35.9463822  25.9642092  39.7843145  35.2182275  24.7837834  40.3911613
  32.3749558  25.2325871  43.5118286  32.9450915  25.6613139  42.8735770
  32.9657670  24.9508456  44.2102472  34.4194363  21.8077542  37.3828088
  35.1218406  22.2598585  37.8502014  34.0874991  21.1661361  38.0107981
  32.8674724  20.3989298  51.7579297  32.2373385  21.0805579  51.9914694
  32.7610812  20.2872380  50.8132435  28.1619697  20.0661094  42.6845221
  27.3718751  20.3218623  42.2085332  28.6530944  20.8809432  42.7897262
  42.1783506  27.4066334  45.4350502  43.0000950  27.0046521  45.1533184
  42.1745909  27.3034568  46.3866618  30.1134442  20.4305674  39.6428698
  29.3165605  20.5424368  40.1612194  29.8860034  20.7692326  38.7769589
  35.9440110  26.9550377  47.5911213  36.0084542  27.4170784  48.4269385
  35.2351034  26.3247742  47.7193523  26.4457400  20.3191585  45.1160212
  26.6965438  21.2038595  45.3817788  26.9816948  20.1396186  44.3435304
  50.2689499  23.7505082  41.7835474  49.5153208  23.1812480  41.6279478
  50.4037040  23.7167746  42.7306108  35.6588127  28.6218484  37.4590193
  35.5233802  29.4670020  37.8875041  36.1997940  28.8237762  36.6956127
  32.1455467  14.7010064  54.1204548  31.7522413  14.1476263  54.7952193
  32.9621607  15.0120643  54.5111066  29.1117525  26.1393922  38.0318118
  29.6242045  26.9337173  38.1823683  29.7640238  25.4420213  37.9651720
  30.9212409  29.2559679  40.1140871  31.0979038  30.1777643  39.9261855
  31.7169243  28.9418098  40.5435251  35.0623428  16.1167943  51.7124805
  35.8033141  16.7175096  51.6329267  35.2941351  15.3745581  51.1542847
  30.2064766  21.3024310  49.9903035  30.0918281  20.4009568  50.2910133
  29.3509284  21.5488007  49.6387851  37.2856604  29.2442051  51.5890535
  36.8420458  28.4578429  51.2711440  37.9473817  29.4321201  50.9234426
  32.0443725  30.7737852  46.1151214  32.5951150  30.6454916  45.3428208
  31.2055201  31.0732741  45.7646106  39.3837842  29.5244851  49.6171936
  39.3656317  30.3453732  49.1252206  40.3057762  29.3998926  49.8422078
  35.8410896  27.0388980  50.4595445  36.3739233  26.2777268  50.2294753
  35.3124977  26.7462632  51.2019599  39.0080591  12.1449046  45.9889087
  38.6644860  13.0350688  45.9128197  39.3759554  11.9550704  45.1258672
  27.0766442  24.4682577  38.8077689  27.9141664  24.8779585  38.5911396
  27.2544709  23.5282019  38.7777883  38.9730874  22.1357657  34.4961522
  38.4577497  22.9062262  34.7349909  38.7008182  21.4622793  35.1194583
  36.5577985  16.9807358  39.5546760  35.7019581  16.5914208  39.3752399
  36.9704936  17.0599319  38.6946546  38.0877131  14.5153701  43.9538320
  37.5841927  14.4783836  43.1406125  38.3807738  15.4246444  44.0134976
  34.3320017  14.5992431  42.9604501  35.1973014  14.4035240  42.6010391
  34.3997526  14.3702783  43.8873858  43.9465148  24.8890012  36.4314695
  43.1694591  24.5501171  35.9869857  44.6256629  24.8942635  35.7569660
  38.7617177  20.0084749  36.3221303  38.4567312  20.3230899  37.1731446
  39.7147619  20.0866169  36.3648636  37.2063609  26.1674973  37.9714257
  36.6784970  25.4327732  37.6587494  36.7051111  26.9449649  37.7254225
  42.1856455  24.3623993  43.0881303  41.5280129  25.0523255  43.1761432
  42.9896854  24.7520425  43.4315289  31.9382336  16.8294639  40.3320868
  32.5126088  16.6069820  39.5994061  32.5253319  16.8983333  41.0849470
  40.9961913  22.7168366  41.1385245  41.5093795  23.3498358  41.6406955
  41.6463137  22.1169561  40.7728605  32.2651923  18.8599100  34.3516754
  31.4289236  19.1973787  34.6726028  32.1256693  18.7248080  33.4143891
  34.2405004  13.7035888  39.0595938  33.5869416  13.3884905  38.4352553
  34.1985478  13.0811628  39.7855761  35.3516209  23.9855183  30.9749230
  34.4443271  23.7544436  31.1740379  35.8487241  23.1892802  31.1623211
  38.2584288  32.6952690  33.8945916  37.5845986  32.9984387  34.5030874
  38.6450110  33.4981770  33.5451373  37.4742744  20.1917821  43.3843585
  36.5565306  20.4132768  43.2265273  37.8902888  20.2664132  42.5255293
  38.2577792  21.5909237  38.5146266  39.0049611  22.1030634  38.2053388
  38.5269382  21.2693290  39.3750659  36.5304442  24.0867778  35.4973220
  35.6215662  23.8026811  35.5945690  36.5599526  24.5066856  34.6376527
  41.7623710  27.6974367  39.2664387  41.3086037  26.8565277  39.3229578
  41.1317676  28.3335766  39.6039168  40.7056629  18.6266353  40.4965055
  39.9679386  18.1143740  40.8275297  40.9583403  18.1866735  39.6848332
  40.2056649  29.5350864  40.2014206  40.4979623  30.0955921  39.4826571
  40.7155269  29.8279425  40.9567365  40.8068257  11.4042605  41.0906824
  41.1127133  10.5439969  40.8032739  41.5320861  11.9960226  40.8905818
  27.0992613  21.8073292  39.4788422  26.9017012  21.2142653  38.7539489
  26.5439277  21.5025502  40.1964361  35.0789336  21.6996398  41.5983015
  35.1337946  20.7470235  41.5225492  34.2680538  21.8555838  42.0824314
  36.2280530  25.6276521  32.8361298  35.7899960  24.9112380  32.3766936
  36.9690971  25.8552636  32.2746390  33.0181696  20.3173458  39.3573394
  32.2049562  20.6167629  39.7638586  33.5140690  19.9229147  40.0747876
  35.1690274  30.3131215  41.2907659  35.1266453  30.5392061  40.3616191
  36.0852973  30.0794590  41.4393460  38.6155908  20.7815283  48.1888288
  38.9705296  21.0086756  49.0482754  39.2628039  21.1133659  47.5665543
  44.3453645  23.9033719  38.8937617  44.2071543  24.0935315  37.9658806
  43.9889864  24.6653101  39.3505668  32.5095771  17.8891814  44.9734629
  33.1495150  17.7480573  44.2757592  31.6773302  17.6026327  44.5973231
  44.3723024  25.9710246  43.9048889  44.8059531  25.8785535  44.7531943
  45.0854605  25.9467746  43.2668905  33.2856075  27.1894244  41.0869622
  34.0796673  26.6944564  40.8852196  32.5747767  26.6612107  40.7237327
  38.1050919  29.5712340  45.4381989  38.1587942  30.1403276  46.2059705
  37.2365701  29.7414225  45.0736026  29.5938838  21.3337326  37.1629374
  28.6636426  21.2721781  37.3799336  29.6896310  20.8113279  36.3666015
  29.5124387  17.8592139  39.7507616  29.7731205  18.7737472  39.6416776
  30.3341560  17.3916581  39.9004229  30.9849313  19.2729896  46.9206440
  31.6572366  19.0647258  46.2719089  30.1579099  19.0751982  46.4811673
  45.2338574  26.0133946  46.4381774  45.4274464  26.9179757  46.6841049
  45.1339192  25.5541365  47.2720359  36.8874885  15.8991837  48.9372101
  36.2402800  16.5981786  48.8436578  37.6575900  16.3327981  49.3048349
  40.2953683  26.1640689  52.0122655  40.1439189  25.9351241  51.0952738
  40.2858362  27.1211290  52.0254000  37.0639019  23.7372602  46.9968921
  37.9931079  23.8883761  46.8237888  36.6430049  23.8256622  46.1417568
  35.8627351  27.7623266  44.7667459  35.7238437  27.3942050  45.6393397
  35.0741947  28.2770906  44.5951416  36.4575503  32.8632363  36.1092995
  36.6327259  32.3920406  36.9238618  35.7708291  33.4898129  36.3374256
  37.4132566  27.1404869  42.1556296  37.0782399  27.1005639  43.0513946
  36.9136512  26.4749585  41.6826707  31.3876810  22.5472499  47.6808878
  31.2496608  21.8152738  48.2820417  32.2981733  22.4581399  47.3993065
  40.3491758  24.4860903  32.4293356  39.7320928  23.7607731  32.3326409
  39.8808246  25.2470263  32.0860430  34.0159111  22.2592458  47.1692557
  34.7258729  21.6185650  47.1279176  33.9728419  22.5105353  48.0918738
  42.0045889  29.1959811  50.0899136  41.9458435  28.5119032  49.4229719
  42.4065408  29.9378801  49.6379762  32.7288045  19.2457676  48.9888197
  32.1925402  18.7948414  49.6409793  32.1404753  19.3803585  48.2458661
  31.0236588  36.0121725  42.8832855  31.2633186  36.6440249  43.5611874
  30.1805785  35.6609765  43.1698215  32.1390304  18.7046327  31.5514660
  31.2619770  18.5835128  31.1876907  32.6148057  17.9132406  31.2993549
  42.0063297  27.1599395  48.3213116  41.1190075  26.8225317  48.4439515
  42.5761848  26.4282427  48.5581881  23.6592444  23.4923487  41.6456167
  24.3463484  23.1785217  41.0577183  23.5040572  24.3964852  41.3723419
  28.4627166  18.3813684  46.0741191  28.3785355  17.7739353  45.3391601
  27.6409872  18.8722702  46.0750688  35.5364450  31.8200848  45.2874359
  35.4634621  32.6255819  45.7993664  35.0941843  32.0192814  44.4622381
  35.3254230  31.0572618  38.7977181  34.5421752  31.5994298  38.8915405
  36.0246975  31.5746597  39.1971422  38.6350880  16.8667247  41.4411386
  39.1319579  16.1137210  41.1212456  37.8637861  16.9031564  40.8754596
  46.4880637  22.5707613  43.0829678  46.4770513  23.4532328  42.7123611
  45.6198017  22.2179164  42.8884215  37.9963134  31.7187682  47.4432518
  38.7091106  32.3535147  47.3708419  37.5053162  31.8151548  46.6272520
  39.7180660  25.6238934  39.0149810  38.7836939  25.7440397  38.8454514
  39.8957329  24.7211401  38.7509819  35.2185848  19.0084630  41.1683071
  34.8483636  18.4555671  41.8563976  35.7144941  18.4042764  40.6158071
  43.1053212  21.4656254  39.5499844  43.5713664  22.2984245  39.4760146
  43.5560712  21.0001235  40.2545102  33.0475047  29.4682125  48.2638089
  33.7484507  30.1018608  48.4167483  32.5770162  29.8096857  47.5033728
  41.1729443  27.8100075  36.5485996  41.4489287  27.6956670  37.4579870
  40.3033942  27.4117560  36.5098169  41.0769875  13.8336841  43.5890745
  40.1632954  14.0641068  43.7572952  41.5062976  13.9175285  44.4404777
  40.8476333  22.0226733  46.0890639  40.1947783  22.2702640  45.4343092
  41.2256713  21.2090871  45.7553116  37.8083507  32.0586426  40.1918809
  37.9905901  31.2408082  40.6546562  38.6316493  32.2754118  39.7543699
  38.1425672  30.9854611  37.4533858  38.6713439  30.4747066  36.8404020
  38.4053892  30.6697141  38.3179391  36.8963906  22.7646544  52.5756676
  36.2204543  22.6640673  53.2459051  37.7191540  22.6085758  53.0392673
  28.6442765  29.0018480  45.1969191  29.2296202  28.2562168  45.3297096
  28.4467604  29.3122437  46.0805855  31.4981420  32.0369728  40.2131634
  30.8291796  32.5215855  39.7295674  31.3594290  32.2838948  41.1275012
  23.2360420  21.5724081  43.9173635  23.2744519  21.0387671  44.7110753
  22.7300713  21.0459286  43.2984612  35.6386689  34.0713471  46.8114292
  36.1904997  34.2345093  47.5763377  35.9792882  34.6617909  46.1394317
  30.6151182  16.4188621  47.4136177  30.6792509  17.2803452  47.0013575
  30.5518302  15.8062623  46.6808535  30.0903455  18.4911754  51.0609211
  30.7175493  18.1088831  51.6746736  29.2331374  18.2725956  51.4264904
  40.4897563  28.8974729  52.6662947  41.0337467  29.5104687  52.1717901
  39.9084408  29.4554307  53.1829960  26.8668997  20.2988183  36.9927566
  27.1622439  19.3898861  36.9394620  25.9657033  20.2775922  36.6708568
  38.7755076  32.0195447  43.7977974  38.6506216  31.2185187  43.2888920
  39.4334167  32.5141640  43.3091944  30.3963244  18.3744179  42.9755115
  29.6749830  18.9880147  42.8362588  31.1856500  18.9101944  42.8971761
  40.8389985  29.8204467  45.4257524  39.8920320  29.7009818  45.3535851
  41.1872758  28.9326965  45.5083786  33.1989558  15.7098606  49.2495766
  33.7223960  15.9560902  50.0122076  32.9801891  16.5418641  48.8298904
  28.5956839  17.9802280  37.1166891  28.2669545  17.0999659  36.9341997
  28.9496210  17.9249949  38.0043280  37.8436418  29.6157183  41.6261877
  37.6961380  28.6873890  41.8069447  38.6689911  29.6377274  41.1418952
  31.7098662  18.2675250  37.4842369  32.0494735  18.7961171  36.7620977
  32.1570783  18.6055656  38.2600935  41.4470540  30.4385742  42.7126749
  42.3717087  30.2328603  42.5751201  41.2785843  30.1902143  43.6216091
  34.4042103  16.6512301  46.9345437  34.0638923  15.8520114  47.3366117
  33.6981109  16.9514012  46.3622270  35.0558575  13.7361613  45.3872760
  35.8784644  13.2622091  45.2651650  35.2996638  14.5152097  45.8871446
  33.6966809  16.7649872  35.6835662  34.4175172  17.1431125  35.1799378
  33.0732113  17.4838749  35.7870640  37.8397932  17.4695021  36.6193994
  38.0561547  18.3519659  36.3182822  37.3591999  17.0781234  35.8899636
  32.5797154  20.4280734  43.1964739  32.4341734  20.7421037  44.0889020
  32.1022357  21.0465634  42.6435637  34.4393536  17.4183282  43.2445628
  34.4255105  16.5224375  42.9077926  35.1565965  17.4253946  43.8783914
  36.2919667  17.8520622  45.2898756  36.0337445  18.7737693  45.2883086
  35.7604708  17.4551057  45.9799220  41.2365856  30.9571409  38.0688841
  41.4102733  30.3917832  37.3162693  41.7294747  31.7572304  37.8868331
  27.0542816  22.9686078  46.1352400  26.5096284  23.7445886  46.2672674
  27.9322166  23.3156883  45.9771521  33.8430432  16.2997662  38.5133198
  33.9646344  15.3714308  38.7124086  33.5532475  16.3136348  37.6011514
  36.7121623  13.9852573  41.6499918  36.7343320  14.0491906  40.6951898
  37.1289682  13.1457081  41.8440424  47.0905247  23.7207832  39.6879141
  47.5336393  22.9715157  39.2898264  46.2131757  23.7117969  39.3052873
  42.2241028  30.2738174  35.1685739  42.9191933  30.8944866  35.3873054
  42.5664179  29.4233525  35.4438117  27.8408838  22.0955975  49.0282557
  27.0990574  22.2438610  49.6147187  27.5201582  22.3564240  48.1649306
  44.1232452  27.7237879  36.6973070  44.6483776  28.0625152  35.9722390
  44.0354804  26.7884894  36.5136205  35.7852500  31.6371953  48.8262947
  36.0939627  31.3921100  49.6985646  36.5827982  31.8418591  48.3381817
  35.8073112  33.7909862  41.0568323  35.3678103  33.2986241  41.7501180
  36.5581229  33.2482830  40.8160398  28.2865451  29.9821403  41.0592951
  29.1123471  29.6825175  40.6791595  27.9359503  29.2129026  41.5082740
  33.2546984  29.3347872  43.1290625  32.6326994  28.6718577  42.8292853
  33.9251851  29.3609003  42.4464273  26.4874056  27.9007730  42.0181885
  25.6505965  27.4729904  41.8365886  26.4597702  28.0940173  42.9552676
  33.3271512  17.8129660  52.7223131  33.3759667  18.6891782  52.3400900
  33.8694026  17.2707053  52.1494774  43.8126358  28.3570783  52.0024268
  43.0221901  28.3394922  51.4628767  43.5759712  28.8959077  52.7573304
  43.9324233  25.2063249  49.3156996  43.9822238  25.0413257  50.2572519
  43.8238156  24.3390508  48.9254877  32.8160491  27.8851795  36.6049085
  32.9648612  28.5687259  35.9515758  33.6226935  27.8656885  37.1198541
  41.2227995  21.1894177  50.6316303  42.1237858  21.0500642  50.3400301
  41.2975970  21.3548632  51.5714481  35.5570800  18.5661032  49.4769489
  34.6874110  18.8594598  49.2052078  35.7930281  19.1501477  50.1976753
  45.4342429  27.6260191  49.5599018  45.1427238  27.9890171  50.3962479
  44.8214561  26.9127199  49.3812350  46.6338112  25.1913070  42.0801588
  47.4685003  25.6302875  42.2439149  46.7697241  24.7151724  41.2609834
  43.6829618  22.7492805  48.0279076  44.1583739  22.9420452  47.2197927
  42.7595183  22.8051991  47.7822460  30.5713124  23.9116973  37.6110154
  30.3259166  23.0079303  37.8090364  30.7409039  23.9134123  36.6689632
  38.2609834  14.7840649  46.9934910  38.7791778  15.5201676  46.6681398
  37.9064967  15.0904642  47.8281669  29.8408772  19.6445330  35.1096316
  29.1478017  19.7189685  34.4536352  29.5960524  18.8805674  35.6317833
  38.5122428  11.2040931  42.5135806  38.7924182  10.5364120  43.1396233
  39.2973035  11.3970027  42.0010470  36.3155897  30.3799925  34.0760833
  35.7429864  30.9990112  33.6231305  36.8888691  30.9299287  34.6100755
  42.3831287  19.6258565  46.2607382  43.3348710  19.7256663  46.2819606
  42.2134737  18.8336834  46.7705466  40.4045666  16.7114149  46.4466783
  39.8095598  16.9919161  45.7513271  40.1195363  17.2008050  47.2183524
  39.5353157  30.6637075  35.2069415  40.4683830  30.5982637  35.4102291
  39.4476369  31.4993342  34.7483948  42.1641173  29.9802946  32.1673363
  42.0854805  29.6462809  33.0609121  42.9850840  30.4724714  32.1664835
  44.8619365  22.8464685  45.3749681  44.8295685  21.9080686  45.5609365
  45.4719988  22.9248722  44.6415506  36.7002695  21.7160738  31.4176885
  37.6461800  21.5866946  31.4865303  36.3216940  20.9775400  31.8946313
  45.0113853  19.6375729  45.4207964  44.4952902  18.8534185  45.2337893
  45.8953802  19.3094445  45.5854484  42.6724580  13.3816744  41.3803777
  42.4749401  13.0731832  42.2647109  43.2824286  14.1078383  41.5101707
  50.6795914  23.9080692  44.5155718  51.4099303  23.6465980  45.0763421
  50.0702860  23.1709414  44.5557786  48.7611211  22.0488555  45.1130169
  48.0344375  21.9144519  44.5046661  48.3458498  22.3565383  45.9186887
  36.5841388  25.7678484  52.8777542  37.5044397  25.9457083  53.0717589
  36.5490971  24.8234530  52.7257242  34.8845613  19.6410714  31.3531770
  33.9777068  19.3443827  31.4294484  35.1621594  19.3440533  30.4866057
  25.8023553  20.9617078  41.8030817  25.4826337  20.1082386  41.5105191
  25.2556981  21.1765656  42.5588784  29.5803460  23.6779519  45.5200323
  29.7989470  24.6096627  45.5388357  29.9929234  23.3187493  46.3055127
  36.5007678  14.1847604  37.5076012  35.6908407  13.8394689  37.8831258
  37.1892095  13.8755148  38.0963623  38.4298227  13.2625651  39.1300308
  38.9829265  13.6821104  39.7890332  38.6668313  12.3361399  39.1723264
  34.4531326  19.2512725  54.9103072  34.3528053  20.2007082  54.8415163
  34.2352868  18.9230964  54.0379142  33.6544397  16.4997650  31.4943750
  34.5163561  16.8252548  31.7539567  33.8394741  15.7129146  30.9816815
  25.6711813  24.5819989  43.7723938  24.9775284  24.1673942  43.2593893
  26.4184804  24.6240526  43.1757357  41.8077034  15.3726176  38.6378973
  41.2275703  16.0310980  38.2557025  41.5412966  14.5503521  38.2266390
  40.2580600  14.7731234  40.8400293  40.7580378  14.8847768  40.0314612
  40.9016208  14.4692287  41.4801101  34.3162596  22.6809863  53.7268134
  33.8329678  23.4810224  53.9332023  34.4023535  22.6917808  52.7735578
  27.5848555  24.5138243  41.6489953  27.5619244  24.6125930  40.6971836
  27.8949192  25.3603394  41.9707119  30.2435933  26.5714398  45.7636568
  31.1979187  26.5398341  45.6966499  30.0448457  26.1105022  46.5786794
  30.8335315  25.1415514  48.3307365  31.6528204  25.6359593  48.3542203
  31.1072123  24.2247482  48.3024933  40.5901912  17.5326267  37.6935321
  39.7027767  17.8175917  37.4755516  41.0055901  17.3720030  36.8462598
  43.9416448  17.5572788  41.4089660  44.7176838  18.0469240  41.6814277
  43.2164582  17.9830842  41.8661530  46.3789006  18.2700407  42.4663601
  46.9733497  18.0296143  41.7556909  46.4515590  17.5507537  43.0937137
  28.5986162  32.1134018  42.7806766  28.4640630  31.3534419  42.2144764
  28.1818224  32.8374918  42.3135555  39.7345125  27.2970941  31.7883341
  40.4380975  27.5020944  32.4040997  39.0107774  27.8647703  32.0532424
  40.5642935  23.0480802  37.9085611  40.5078137  23.5049354  37.0693244
  41.1171278  22.2871487  37.7308454  44.3747741  18.8370534  38.7335731
  44.1184676  18.4367170  39.5643938  43.7500609  19.5514328  38.6085870
  48.6860079  21.5766608  41.2407022  48.1259637  21.6459797  42.0138584
  48.0803583  21.4007592  40.5206518  31.7555288  33.0103335  42.9925208
  31.6387672  33.9548767  42.8903899  30.9347734  32.7076896  43.3811007
  41.6431823  27.7353470  33.8381801  42.4777426  27.3034669  33.6559276
  41.4816165  27.5635484  34.7658695  41.2977715  24.2385584  35.2038140
  41.2426519  24.0729855  34.2626584  40.6723770  24.9461617  35.3600330
  26.0870230  19.4753648  49.0299562  26.7329093  18.9652602  49.5186788
  25.8787381  20.2122330  49.6042988  38.6123622  26.5434496  54.5291703
  39.4814782  26.7175148  54.1678338  38.1330373  27.3628912  54.4067432
  34.6073840  13.7393693  34.7823459  34.5952510  14.6835533  34.9391730
  35.4997262  13.5563838  34.4882920  32.7809802  33.6631597  46.2081137
  33.6837049  33.6955207  46.5247632  32.5547172  32.7332048  46.2227473
  34.5363404  32.4162583  42.8691215  33.5859035  32.4164445  42.7555588
  34.8395890  31.6695318  42.3527250  38.4225960  10.3336469  39.0369395
  37.6558355   9.7794956  39.1826078  38.8336665  10.4058338  39.8983547
  30.4267721  16.6221265  53.1274577  31.2899182  16.2658070  53.3377901
  29.8533131  16.2835160  53.8149981  50.2716098  38.2523122  43.9336978
  50.9094508  38.1329869  43.2300318  50.1536941  39.2003965  43.9924930
  47.0805804  38.2050550  43.8698502  46.7424315  38.0891614  42.9819037
  47.9495572  37.8041715  43.8499509  42.9392620  40.0586026  39.8595393
  42.3757485  39.9675963  39.0911681  42.8245015  39.2385930  40.3397886
  47.5625587  39.3585401  49.8284708  47.5514228  38.9638200  48.9565212
  47.7246226  38.6251474  50.4218479  40.4857052  41.5537218  42.6979614
  41.2778343  41.2128042  42.2825913  40.7253702  41.6632193  43.6181767
  48.5192178  43.7256994  35.1709858  47.8680158  44.3111074  34.7843872
  49.3136541  44.2563189  35.2304896  42.4447805  40.8146131  35.5696993
  43.2178681  40.2675118  35.4309868  42.7973204  41.6790380  35.7811454
  44.2832848  42.1422513  48.7763892  43.9922714  43.0468144  48.6610558
  44.9189832  42.1839041  49.4907961  45.2089055  39.5199362  45.3665252
  45.8052627  39.2955384  44.6522215  45.2664026  38.7784107  45.9690699
  44.7814083  36.9738797  33.2015443  45.0339604  36.4520318  32.4398906
  43.8438642  36.8104942  33.3042126  49.8257366  35.9774575  41.0090186
  50.6120455  35.5593999  40.6580603  50.0896070  36.8820668  41.1771834
  49.9967443  41.4147426  35.7078843  49.3613276  41.4882052  36.4199747
  49.6664850  42.0041025  35.0297922  55.2265793  35.9149809  41.9123164
  55.9590965  35.3449025  42.1460994  54.4705149  35.5271409  42.3529670
  44.5010372  38.8766903  35.4039818  44.3846630  38.2011806  36.0720902
  44.6112632  38.3899277  34.5871971  46.8441913  38.3377050  39.1086507
  46.4800120  37.8107671  39.8199428  47.7009029  37.9475519  38.9352992
  52.7491214  29.6271383  46.3717773  52.4174538  30.4966794  46.1478988
  52.1536827  29.3107667  47.0511803  46.4847400  33.3666950  34.1047855
  46.6521802  34.2347186  34.4718326  46.2944569  33.5294231  33.1809145
  49.2422733  41.8283929  45.7713686  48.9423456  42.7308967  45.6629493
  48.8973793  41.5616112  46.6234839  42.6935215  38.2797726  41.8050390
  41.7685711  38.1473940  42.0128082  42.9419628  39.0591945  42.3020332
  52.6419877  34.3466469  43.4511123  51.7336754  34.2781877  43.1569884
  52.5907473  34.8238414  44.2792948  46.4636621  35.8224607  35.0894522
  46.3436246  36.2681658  35.9280002  45.7689209  36.1709925  34.5308060
  40.0544026  37.9230999  42.6394179  40.1836407  38.1765478  43.5533591
  39.3741477  38.5158707  42.3198834  44.2243513  48.5928249  38.7384653
  44.1467543  49.5436074  38.8173134  43.6205157  48.2474122  39.3959580
  46.7160743  35.7656114  51.3946020  45.9394077  36.3250035  51.3848885
  47.3551306  36.2512897  51.9160890  54.5081523  32.5482907  45.2288997
  53.8655904  32.8415440  44.5828791  54.0036452  32.4335828  46.0342194
  52.1621687  36.2946080  35.9174856  53.0739543  36.5273467  35.7422554
  51.6531334  36.8783125  35.3549935  44.9707115  38.5741568  50.9563987
  45.7121799  39.1126612  50.6798811  44.2644100  39.2007857  51.1135539
  50.4462455  40.7170708  49.5536149  50.8545811  40.2753119  48.8090781
  49.7239716  40.1423336  49.8070342  46.7993525  35.6543315  46.9269706
  47.6454720  36.0782729  47.0704355  46.7392162  34.9976939  47.6208269
  50.7691269  41.2771899  43.3088438  50.1400132  41.4417613  42.6064505
  50.3816931  41.6913508  44.0799402  54.6480501  42.2126337  40.6632801
  53.9631539  42.5925238  40.1129835  54.7324350  42.8221663  41.3964749
  49.9492970  33.3147683  48.5850879  49.7053902  34.0689744  48.0485155
  50.2252901  33.6933031  49.4198126  51.9031433  39.8586296  47.2628145
  52.1148328  40.5018056  46.5862526  51.8561181  39.0248612  46.7950075
  49.5057662  32.4704116  44.1664717  48.6442141  32.7685370  44.4581455
  49.5320096  32.6874515  43.2345750  46.3219231  41.0146307  40.5738523
  46.7857577  41.2934010  39.7843145  46.0576029  40.1129752  40.3911613
  43.2143312  40.5617789  43.5118286  43.7844669  40.9905057  42.8735770
  43.8051424  40.2800373  44.2102472  45.2588117  37.1369459  37.3828088
  45.9612161  37.5890503  37.8502014  44.9268746  36.4953278  38.0107981
  43.7068479  35.7281216  51.7579297  43.0767139  36.4097497  51.9914694
  43.6004567  35.6164298  50.8132435  39.0013451  35.3953012  42.6845221
  38.2112505  35.6510541  42.2085332  39.4924699  36.2101350  42.7897262
  53.0177261  42.7358251  45.4350502  53.8394704  42.3338438  45.1533184
  53.0139664  42.6326485  46.3866618  40.9528197  35.7597591  39.6428698
  40.1559360  35.8716286  40.1612194  40.7253789  36.0984243  38.7769589
  46.7833864  42.2842294  47.5911213  46.8478297  42.7462702  48.4269385
  46.0744788  41.6539659  47.7193523  37.2851154  35.6483502  45.1160212
  37.5359193  36.5330512  45.3817788  37.8210703  35.4688104  44.3435304
  61.1083254  39.0797000  41.7835474  60.3546962  38.5104398  41.6279478
  61.2430795  39.0459664  42.7306108  46.4981882  43.9510402  37.4590193
  46.3627557  44.7961938  37.8875041  47.0391694  44.1529680  36.6956127
  42.9849221  30.0301982  54.1204548  42.5916167  29.4768180  54.7952193
  43.8015362  30.3412560  54.5111066  39.9511279  41.4685840  38.0318118
  40.4635800  42.2629090  38.1823683  40.6033992  40.7712130  37.9651720
  41.7606164  44.5851596  40.1140871  41.9372792  45.5069561  39.9261855
  42.5562997  44.2710015  40.5435251  45.9017182  31.4459861  51.7124805
  46.6426896  32.0467014  51.6329267  46.1335105  30.7037499  51.1542847
  41.0458520  36.6316228  49.9903035  40.9312036  35.7301485  50.2910133
  40.1903038  36.8779925  49.6387851  48.1250358  44.5733968  51.5890535
  47.6814212  43.7870347  51.2711440  48.7867572  44.7613119  50.9234426
  42.8837479  46.1029770  46.1151214  43.4344905  45.9746833  45.3428208
  42.0448955  46.4024659  45.7646106  50.2231596  44.8536768  49.6171936
  50.2050072  45.6745649  49.1252206  51.1451516  44.7290844  49.8422078
  46.6804650  42.3680898  50.4595445  47.2132987  41.6069186  50.2294753
  46.1518732  42.0754550  51.2019599  49.8474345  27.4740964  45.9889087
  49.5038615  28.3642606  45.9128197  50.2153308  27.2842621  45.1258672
  37.9160196  39.7974494  38.8077689  38.7535418  40.2071503  38.5911396
  38.0938464  38.8573936  38.7777883  49.8124628  37.4649575  34.4961522
  49.2971252  38.2354180  34.7349909  49.5401937  36.7914711  35.1194583
  47.3971739  32.3099276  39.5546760  46.5413335  31.9206126  39.3752399
  47.8098691  32.3891237  38.6946546  48.9270886  29.8445619  43.9538320
  48.4235681  29.8075754  43.1406125  49.2201493  30.7538362  44.0134976
  45.1713772  29.9284349  42.9604501  46.0366768  29.7327157  42.6010391
  45.2391281  29.6994700  43.8873858  54.7858902  40.2181930  36.4314695
  54.0088345  39.8793089  35.9869857  55.4650383  40.2234553  35.7569660
  49.6010931  35.3376667  36.3221303  49.2961067  35.6522816  37.1731446
  50.5541373  35.4158087  36.3648636  48.0457363  41.4966890  37.9714257
  47.5178725  40.7619650  37.6587494  47.5444866  42.2741567  37.7254225
  53.0250209  39.6915911  43.0881303  52.3673884  40.3815172  43.1761432
  53.8290608  40.0812343  43.4315289  42.7776091  32.1586557  40.3320868
  43.3519843  31.9361738  39.5994061  43.3647073  32.2275251  41.0849470
  51.8355668  38.0460284  41.1385245  52.3487550  38.6790275  41.6406955
  52.4856892  37.4461479  40.7728605  43.1045678  34.1891018  34.3516754
  42.2682990  34.5265704  34.6726028  42.9650448  34.0539997  33.4143891
  45.0798758  29.0327806  39.0595938  44.4263171  28.7176823  38.4352553
  45.0379233  28.4103546  39.7855761  46.1909963  39.3147101  30.9749230
  45.2837025  39.0836354  31.1740379  46.6880995  38.5184720  31.1623211
  49.0978042  48.0244608  33.8945916  48.4239741  48.3276305  34.5030874
  49.4843864  48.8273688  33.5451373  48.3136499  35.5209739  43.3843585
  47.3959060  35.7424686  43.2265273  48.7296642  35.5956050  42.5255293
  49.0971547  36.9201155  38.5146266  49.8443366  37.4322552  38.2053388
  49.3663136  36.5985207  39.3750659  47.3698197  39.4159695  35.4973220
  46.4609416  39.1318728  35.5945690  47.3993281  39.8358774  34.6376527
  52.6017464  43.0266285  39.2664387  52.1479791  42.1857195  39.3229578
  51.9711431  43.6627683  39.6039168  51.5450384  33.9558271  40.4965055
  50.8073141  33.4435657  40.8275297  51.7977157  33.5158653  39.6848332
  51.0450403  44.8642782  40.2014206  51.3373378  45.4247839  39.4826571
  51.5549024  45.1571343  40.9567365  51.6462011  26.7334523  41.0906824
  51.9520888  25.8731886  40.8032739  52.3714616  27.3252143  40.8905818
  37.9386367  37.1365210  39.4788422  37.7410767  36.5434570  38.7539489
  37.3833031  36.8317420  40.1964361  45.9183091  37.0288316  41.5983015
  45.9731701  36.0762152  41.5225492  45.1074293  37.1847755  42.0824314
  47.0674285  40.9568439  32.8361298  46.6293714  40.2404298  32.3766936
  47.8084725  41.1844554  32.2746390  43.8575451  35.6465376  39.3573394
  43.0443316  35.9459546  39.7638586  44.3534445  35.2521065  40.0747876
  46.0084029  45.6423133  41.2907659  45.9660207  45.8683979  40.3616191
  46.9246727  45.4086507  41.4393460  49.4549662  36.1107200  48.1888288
  49.8099050  36.3378673  49.0482754  50.1021794  36.4425577  47.5665543
  55.1847399  39.2325636  38.8937617  55.0465298  39.4227232  37.9658806
  54.8283618  39.9945019  39.3505668  43.3489525  33.2183731  44.9734629
  43.9888905  33.0772490  44.2757592  42.5167056  32.9318245  44.5973231
  55.2116779  41.3002163  43.9048889  55.6453286  41.2077452  44.7531943
  55.9248360  41.2759664  43.2668905  44.1249829  42.5186162  41.0869622
  44.9190428  42.0236482  40.8852196  43.4141522  41.9904025  40.7237327
  48.9444674  44.9004257  45.4381989  48.9981696  45.4695194  46.2059705
  48.0759455  45.0706142  45.0736026  40.4332593  36.6629244  37.1629374
  39.5030181  36.6013699  37.3799336  40.5290065  36.1405196  36.3666015
  40.3518142  33.1884056  39.7507616  40.6124959  34.1029390  39.6416776
  41.1735314  32.7208499  39.9004229  41.8243067  34.6021814  46.9206440
  42.4966121  34.3939176  46.2719089  40.9972854  34.4043900  46.4811673
  56.0732329  41.3425864  46.4381774  56.2668219  42.2471674  46.6841049
  55.9732947  40.8833283  47.2720359  47.7268639  31.2283754  48.9372101
  47.0796554  31.9273704  48.8436578  48.4969655  31.6619898  49.3048349
  51.1347437  41.4932607  52.0122655  50.9832944  41.2643158  51.0952738
  51.1252117  42.4503208  52.0254000  47.9032774  39.0664519  46.9968921
  48.8324834  39.2175679  46.8237888  47.4823804  39.1548540  46.1417568
  46.7021105  43.0915184  44.7667459  46.5632191  42.7233968  45.6393397
  45.9135702  43.6062823  44.5951416  47.2969257  48.1924280  36.1092995
  47.4721013  47.7212323  36.9238618  46.6102045  48.8190046  36.3374256
  48.2526321  42.4696786  42.1556296  47.9176153  42.4297556  43.0513946
  47.7530266  41.8041502  41.6826707  42.2270564  37.8764416  47.6808878
  42.0890362  37.1444655  48.2820417  43.1375488  37.7873317  47.3993065
  51.1885512  39.8152821  32.4293356  50.5714683  39.0899649  32.3326409
  50.7202001  40.5762181  32.0860430  44.8552865  37.5884376  47.1692557
  45.5652484  36.9477568  47.1279176  44.8122173  37.8397271  48.0918738
  52.8439644  44.5251729  50.0899136  52.7852190  43.8410949  49.4229719
  53.2459162  45.2670719  49.6379762  43.5681799  34.5749594  48.9888197
  43.0319156  34.1240332  49.6409793  42.9798508  34.7095503  48.2458661
  41.8630343  51.3413643  42.8832855  42.1026941  51.9732167  43.5611874
  41.0199539  50.9901683  43.1698215  42.9784058  34.0338245  31.5514660
  42.1013524  33.9127046  31.1876907  43.4541811  33.2424323  31.2993549
  52.8457051  42.4891313  48.3213116  51.9583830  42.1517235  48.4439515
  53.4155602  41.7574344  48.5581881  34.4986198  38.8215405  41.6456167
  35.1857238  38.5077135  41.0577183  34.3434327  39.7256769  41.3723419
  39.3020920  33.7105601  46.0741191  39.2179109  33.1031271  45.3391601
  38.4803627  34.2014620  46.0750688  46.3758205  47.1492765  45.2874359
  46.3028376  47.9547737  45.7993664  45.9335598  47.3484731  44.4622381
  46.1647984  46.3864535  38.7977181  45.3815506  46.9286216  38.8915405
  46.8640729  46.9038515  39.1971422  49.4744634  32.1959165  41.4411386
  49.9713334  31.4429127  41.1212456  48.7031616  32.2323482  40.8754596
  57.3274392  37.8999530  43.0829678  57.3164268  38.7824246  42.7123611
  56.4591771  37.5471081  42.8884215  48.8356888  47.0479599  47.4432518
  49.5484860  47.6827064  47.3708419  48.3446917  47.1443465  46.6272520
  50.5574415  40.9530852  39.0149810  49.6230694  41.0732315  38.8454514
  50.7351083  40.0503319  38.7509819  46.0579603  34.3376548  41.1683071
  45.6877391  33.7847588  41.8563976  46.5538695  33.7334681  40.6158071
  53.9446966  36.7948171  39.5499844  54.4107418  37.6276163  39.4760146
  54.3954467  36.3293153  40.2545102  43.8868802  44.7974043  48.2638089
  44.5878261  45.4310526  48.4167483  43.4163917  45.1388774  47.5033728
  52.0123197  43.1391993  36.5485996  52.2883041  43.0248587  37.4579870
  51.1427696  42.7409478  36.5098169  51.9163629  29.1628758  43.5890745
  51.0026709  29.3932985  43.7572952  52.3456730  29.2467202  44.4404777
  51.6870088  37.3518650  46.0890639  51.0341538  37.5994558  45.4343092
  52.0650467  36.5382789  45.7553116  48.6477261  47.3878344  40.1918809
  48.8299656  46.5700000  40.6546562  49.4710247  47.6046036  39.7543699
  48.9819427  46.3146529  37.4533858  49.5107193  45.8038983  36.8404020
  49.2447646  45.9989059  38.3179391  47.7357661  38.0938461  52.5756676
  47.0598298  37.9932591  53.2459051  48.5585294  37.9377675  53.0392673
  39.4836520  44.3310398  45.1969191  40.0689956  43.5854086  45.3297096
  39.2861358  44.6414355  46.0805855  42.3375175  47.3661645  40.2131634
  41.6685550  47.8507773  39.7295674  42.1988045  47.6130866  41.1275012
  34.0754174  36.9015998  43.9173635  34.1138274  36.3679589  44.7110753
  33.5694467  36.3751204  43.2984612  46.4780443  49.4005389  46.8114292
  47.0298751  49.5637010  47.5763377  46.8186637  49.9909827  46.1394317
  41.4544937  31.7480539  47.4136177  41.5186263  32.6095370  47.0013575
  41.3912057  31.1354540  46.6808535  40.9297209  33.8203671  51.0609211
  41.5569248  33.4380749  51.6746736  40.0725128  33.6017873  51.4264904
  51.3291318  44.2266646  52.6662947  51.8731222  44.8396605  52.1717901
  50.7478163  44.7846225  53.1829960  37.7062752  35.6280100  36.9927566
  38.0016193  34.7190779  36.9394620  36.8050788  35.6067840  36.6708568
  49.6148831  47.3487364  43.7977974  49.4899970  46.5477104  43.2888920
  50.2727922  47.8433558  43.3091944  41.2356999  33.7036097  42.9755115
  40.5143585  34.3172065  42.8362588  42.0250255  34.2393862  42.8971761
  51.6783739  45.1496385  45.4257524  50.7314075  45.0301736  45.3535851
  52.0266512  44.2618883  45.5083786  44.0383312  31.0390523  49.2495766
  44.5617714  31.2852820  50.0122076  43.8195646  31.8710558  48.8298904
  39.4350594  33.3094198  37.1166891  39.1063300  32.4291577  36.9341997
  39.7889964  33.2541867  38.0043280  48.6830172  44.9449101  41.6261877
  48.5355135  44.0165808  41.8069447  49.5083666  44.9669191  41.1418952
  42.5492417  33.5967168  37.4842369  42.8888489  34.1253089  36.7620977
  42.9964537  33.9347574  38.2600935  52.2864294  45.7677659  42.7126749
  53.2110842  45.5620521  42.5751201  52.1179598  45.5194061  43.6216091
  45.2435857  31.9804219  46.9345437  44.9032678  31.1812032  47.3366117
  44.5374864  32.2805929  46.3622270  45.8952329  29.0653531  45.3872760
  46.7178399  28.5914009  45.2651650  46.1390393  29.8444015  45.8871446
  44.5360564  32.0941789  35.6835662  45.2568926  32.4723042  35.1799378
  43.9125868  32.8130666  35.7870640  48.6791687  32.7986938  36.6193994
  48.8955301  33.6811576  36.3182822  48.1985754  32.4073152  35.8899636
  43.4190908  35.7572652  43.1964739  43.2735489  36.0712955  44.0889020
  42.9416112  36.3757552  42.6435637  45.2787291  32.7475200  43.2445628
  45.2648860  31.8516293  42.9077926  45.9959719  32.7545863  43.8783914
  47.1313422  33.1812540  45.2898756  46.8731199  34.1029610  45.2883086
  46.5998462  32.7842974  45.9799220  52.0759610  46.2863327  38.0688841
  52.2496488  45.7209749  37.3162693  52.5688502  47.0864222  37.8868331
  37.8936570  38.2977996  46.1352400  37.3490038  39.0737804  46.2672674
  38.7715920  38.6448800  45.9771521  44.6824187  31.6289580  38.5133198
  44.8040098  30.7006226  38.7124086  44.3926229  31.6428266  37.6011514
  47.5515377  29.3144490  41.6499918  47.5737074  29.3783823  40.6951898
  47.9683436  28.4748999  41.8440424  57.9299002  39.0499750  39.6879141
  58.3730148  38.3007075  39.2898264  57.0525512  39.0409886  39.3052873
  53.0634783  45.6030091  35.1685739  53.7585688  46.2236784  35.3873054
  53.4057933  44.7525443  35.4438117  38.6802592  37.4247892  49.0282557
  37.9384328  37.5730528  49.6147187  38.3595336  37.6856158  48.1649306
  54.9626206  43.0529797  36.6973070  55.4877530  43.3917070  35.9722390
  54.8748559  42.1176812  36.5136205  46.6246255  46.9663870  48.8262947
  46.9333381  46.7213017  49.6985646  47.4221737  47.1710509  48.3381817
  46.6466867  49.1201780  41.0568323  46.2071857  48.6278159  41.7501180
  47.3974984  48.5774748  40.8160398  39.1259206  45.3113321  41.0592951
  39.9517226  45.0117093  40.6791595  38.7753258  44.5420943  41.5082740
  44.0940739  44.6639789  43.1290625  43.4720748  44.0010494  42.8292853
  44.7645606  44.6900921  42.4464273  37.3267811  43.2299647  42.0181885
  36.4899719  42.8021822  41.8365886  37.2991456  43.4232091  42.9552676
  44.1665266  33.1421577  52.7223131  44.2153422  34.0183700  52.3400900
  44.7087781  32.5998970  52.1494774  54.6520112  43.6862700  52.0024268
  53.8615656  43.6686839  51.4628767  54.4153467  44.2250994  52.7573304
  54.7717987  40.5355167  49.3156996  54.8215992  40.3705174  50.2572519
  54.6631911  39.6682426  48.9254877  43.6554246  43.2143713  36.6049085
  43.8042366  43.8979177  35.9515758  44.4620689  43.1948803  37.1198541
  52.0621750  36.5186095  50.6316303  52.9631612  36.3792560  50.3400301
  52.1369724  36.6840550  51.5714481  46.3964555  33.8952950  49.4769489
  45.5267864  34.1886516  49.2052078  46.6324035  34.4793395  50.1976753
  56.2736184  42.9552108  49.5599018  55.9820992  43.3182089  50.3962479
  55.6608315  42.2419117  49.3812350  57.4731866  40.5204988  42.0801588
  58.3078758  40.9594792  42.2439149  57.6090995  40.0443641  41.2609834
  54.5223372  38.0784723  48.0279076  54.9977494  38.2712369  47.2197927
  53.5988938  38.1343909  47.7822460  41.4106879  39.2408890  37.6110154
  41.1652921  38.3371220  37.8090364  41.5802793  39.2426041  36.6689632
  49.1003589  30.1132567  46.9934910  49.6185533  30.8493593  46.6681398
  48.7458721  30.4196560  47.8281669  40.6802526  34.9737248  35.1096316
  39.9871771  35.0481603  34.4536352  40.4354278  34.2097591  35.6317833
  49.3516183  26.5332849  42.5135806  49.6317937  25.8656038  43.1396233
  50.1366790  26.7261945  42.0010470  47.1549651  45.7091843  34.0760833
  46.5823618  46.3282030  33.6231305  47.7282445  46.2591205  34.6100755
  53.2225041  34.9550483  46.2607382  54.1742464  35.0548581  46.2819606
  53.0528492  34.1628752  46.7705466  51.2439421  32.0406066  46.4466783
  50.6489353  32.3211079  45.7513271  50.9589117  32.5299967  47.2183524
  50.3746911  45.9928993  35.2069415  51.3077584  45.9274555  35.4102291
  50.2870124  46.8285260  34.7483948  53.0034928  45.3094863  32.1673363
  52.9248559  44.9754727  33.0609121  53.8244595  45.8016631  32.1664835
  55.7013119  38.1756603  45.3749681  55.6689439  37.2372604  45.5609365
  56.3113743  38.2540639  44.6415506  47.5396450  37.0452656  31.4176885
  48.4855555  36.9158864  31.4865303  47.1610695  36.3067318  31.8946313
  55.8507607  34.9667646  45.4207964  55.3346656  34.1826103  45.2337893
  56.7347556  34.6386363  45.5854484  53.5118334  28.7108662  41.3803777
  53.3143156  28.4023750  42.2647109  54.1218040  29.4370301  41.5101707
  61.5189669  39.2372610  44.5155718  62.2493057  38.9757898  45.0763421
  60.9096614  38.5001332  44.5557786  59.6004966  37.3780472  45.1130169
  58.8738130  37.2436437  44.5046661  59.1852253  37.6857301  45.9186887
  47.4235142  41.0970402  52.8777542  48.3438152  41.2749001  53.0717589
  47.3884725  40.1526447  52.7257242  45.7239367  34.9702632  31.3531770
  44.8170822  34.6735745  31.4294484  46.0015348  34.6732450  30.4866057
  36.6417307  36.2908996  41.8030817  36.3220092  35.4374304  41.5105191
  36.0950736  36.5057574  42.5588784  40.4197215  39.0071437  45.5200323
  40.6383225  39.9388544  45.5388357  40.8322989  38.6479411  46.3055127
  47.3401433  29.5139522  37.5076012  46.5302161  29.1686607  37.8831258
  48.0285850  29.2047066  38.0963623  49.2691981  28.5917569  39.1300308
  49.8223020  29.0113022  39.7890332  49.5062067  27.6653317  39.1723264
  45.2925080  34.5804642  54.9103072  45.1921807  35.5298999  54.8415163
  45.0746622  34.2522881  54.0379142  44.4938152  31.8289567  31.4943750
  45.3557316  32.1544466  31.7539567  44.6788496  31.0421063  30.9816815
  36.5105567  39.9111907  43.7723938  35.8169039  39.4965860  43.2593893
  37.2578558  39.9532444  43.1757357  52.6470788  30.7018094  38.6378973
  52.0669457  31.3602898  38.2557025  52.3806721  29.8795438  38.2266390
  51.0974354  30.1023152  40.8400293  51.5974133  30.2139686  40.0314612
  51.7409962  29.7984204  41.4801101  45.1556350  38.0101781  53.7268134
  44.6723432  38.8102141  53.9332023  45.2417289  38.0209726  52.7735578
  38.4242310  39.8430161  41.6489953  38.4012998  39.9417848  40.6971836
  38.7342946  40.6895312  41.9707119  41.0829688  41.9006316  45.7636568
  42.0372941  41.8690258  45.6966499  40.8842211  41.4396940  46.5786794
  41.6729070  40.4707432  48.3307365  42.4921959  40.9651511  48.3542203
  41.9465878  39.5539400  48.3024933  51.4295666  32.8618184  37.6935321
  50.5421521  33.1467835  37.4755516  51.8449655  32.7011948  36.8462598
  54.7810202  32.8864705  41.4089660  55.5570592  33.3761158  41.6814277
  54.0558336  33.3122759  41.8661530  57.2182761  33.5992324  42.4663601
  57.8127252  33.3588060  41.7556909  57.2909345  32.8799455  43.0937137
  39.4379917  47.4425935  42.7806766  39.3034385  46.6826336  42.2144764
  39.0211979  48.1666835  42.3135555  50.5738880  42.6262859  31.7883341
  51.2774730  42.8312861  32.4040997  49.8501528  43.1939621  32.0532424
  51.4036690  38.3772720  37.9085611  51.3471891  38.8341272  37.0693244
  51.9565032  37.6163405  37.7308454  55.2141496  34.1662452  38.7335731
  54.9578430  33.7659088  39.5643938  54.5894364  34.8806246  38.6085870
  59.5253834  36.9058525  41.2407022  58.9653392  36.9751715  42.0138584
  58.9197337  36.7299510  40.5206518  42.5949042  48.3395252  42.9925208
  42.4781427  49.2840685  42.8903899  41.7741489  48.0368814  43.3811007
  52.4825577  43.0645388  33.8381801  53.3171181  42.6326587  33.6559276
  52.3209920  42.8927402  34.7658695  52.1371469  39.5677501  35.2038140
  52.0820273  39.4021773  34.2626584  51.5117524  40.2753534  35.3600330
  36.9263984  34.8045566  49.0299562  37.5722848  34.2944520  49.5186788
  36.7181135  35.5414247  49.6042988  49.4517376  41.8726413  54.5291703
  50.3208536  42.0467066  54.1678338  48.9724128  42.6920830  54.4067432
  45.4467595  29.0685610  34.7823459  45.4346264  30.0127450  34.9391730
  46.3391017  28.8855756  34.4882920  43.6203557  48.9923514  46.2081137
  44.5230803  49.0247125  46.5247632  43.3940927  48.0623965  46.2227473
  45.3757159  47.7454501  42.8691215  44.4252790  47.7456362  42.7555588
  45.6789645  46.9987235  42.3527250  49.2619714  25.6628387  39.0369395
  48.4952110  25.1086874  39.1826078  49.6730419  25.7350256  39.8983547
  41.2661475  31.9513183  53.1274577  42.1292937  31.5949988  53.3377901
  40.6926886  31.6127078  53.8149981  61.1109852  53.5815039  43.9336978
  61.7488262  53.4621787  43.2300318  60.9930695  54.5295883  43.9924930
  57.9199558  53.5342467  43.8698502  57.5818070  53.4183532  42.9819037
  58.7889327  53.1333632  43.8499509  53.7786374  55.3877944  39.8595393
  53.2151239  55.2967881  39.0911681  53.6638769  54.5677848  40.3397886
  58.4019341  54.6877319  49.8284708  58.3907982  54.2930117  48.9565212
  58.5639981  53.9543392  50.4218479  51.3250806  56.8829135  42.6979614
  52.1172098  56.5419960  42.2825913  51.5647456  56.9924110  43.6181767
  59.3585933  59.0548911  35.1709858  58.7073913  59.6402992  34.7843872
  60.1530296  59.5855106  35.2304896  53.2841560  56.1438049  35.5696993
  54.0572436  55.5967036  35.4309868  53.6366959  57.0082298  35.7811454
  55.1226603  57.4714431  48.7763892  54.8316468  58.3760062  48.6610558
  55.7583587  57.5130958  49.4907961  56.0482809  54.8491279  45.3665252
  56.6446382  54.6247302  44.6522215  56.1057781  54.1076025  45.9690699
  55.6207838  52.3030715  33.2015443  55.8733358  51.7812236  32.4398906
  54.6832397  52.1396860  33.3042126  60.6651121  51.3066493  41.0090186
  61.4514210  50.8885916  40.6580603  60.9289825  52.2112585  41.1771834
  60.8361198  56.7439343  35.7078843  60.2007031  56.8173970  36.4199747
  60.5058604  57.3332942  35.0297922  66.0659548  51.2441726  41.9123164
  66.7984720  50.6740943  42.1460994  65.3098903  50.8563327  42.3529670
  55.3404127  54.2058821  35.4039818  55.2240385  53.5303724  36.0720902
  55.4506386  53.7191195  34.5871971  57.6835667  53.6668968  39.1086507
  57.3193875  53.1399589  39.8199428  58.5402783  53.2767437  38.9352992
  63.5884968  44.9563300  46.3717773  63.2568293  45.8258711  46.1478988
  62.9930581  44.6399584  47.0511803  57.3241154  48.6958867  34.1047855
  57.4915557  49.5639104  34.4718326  57.1338323  48.8586149  33.1809145
  60.0816488  57.1575846  45.7713686  59.7817211  58.0600885  45.6629493
  59.7367547  56.8908030  46.6234839  53.5328969  53.6089643  41.8050390
  52.6079466  53.4765857  42.0128082  53.7813382  54.3883862  42.3020332
  63.4813631  49.6758387  43.4511123  62.5730509  49.6073795  43.1569884
  63.4301227  50.1530331  44.2792948  57.3030375  51.1516525  35.0894522
  57.1830000  51.5973576  35.9280002  56.6082964  51.5001843  34.5308060
  50.8937780  53.2522917  42.6394179  51.0230161  53.5057396  43.5533591
  50.2135231  53.8450625  42.3198834  55.0637267  63.9220167  38.7384653
  54.9861297  64.8727992  38.8173134  54.4598911  63.5766039  39.3959580
  57.5554497  51.0948032  51.3946020  56.7787831  51.6541952  51.3848885
  58.1945060  51.5804815  51.9160890  65.3475278  47.8774825  45.2288997
  64.7049658  48.1707358  44.5828791  64.8430206  47.7627745  46.0342194
  63.0015441  51.6237998  35.9174856  63.9133298  51.8565385  35.7422554
  62.4925089  52.2075042  35.3549935  55.8100869  53.9033485  50.9563987
  56.5515554  54.4418529  50.6798811  55.1037855  54.5299774  51.1135539
  61.2856209  56.0462626  49.5536149  61.6939565  55.6045036  48.8090781
  60.5633471  55.4715253  49.8070342  57.6387279  50.9835233  46.9269706
  58.4848474  51.4074646  47.0704355  57.5785917  50.3268857  47.6208269
  61.6085024  56.6063817  43.3088438  60.9793886  56.7709531  42.6064505
  61.2210686  57.0205426  44.0799402  65.4874256  57.5418254  40.6632801
  64.8025294  57.9217156  40.1129835  65.5718105  58.1513581  41.3964749
  60.7886725  48.6439601  48.5850879  60.5447656  49.3981662  48.0485155
  61.0646655  49.0224949  49.4198126  62.7425187  55.1878213  47.2628145
  62.9542083  55.8309973  46.5862526  62.6954936  54.3540530  46.7950075
  60.3451416  47.7996034  44.1664717  59.4835895  48.0977288  44.4581455
  60.3713851  48.0166433  43.2345750  57.1612986  56.3438225  40.5738523
  57.6251331  56.6225928  39.7843145  56.8969784  55.4421669  40.3911613
  54.0537067  55.8909706  43.5118286  54.6238424  56.3196975  42.8735770
  54.6445179  55.6092291  44.2102472  56.0981872  52.4661377  37.3828088
  56.8005915  52.9182421  37.8502014  55.7662500  51.8245196  38.0107981
  54.5462233  51.0573134  51.7579297  53.9160894  51.7389415  51.9914694
  54.4398321  50.9456215  50.8132435  49.8407206  50.7244930  42.6845221
  49.0506260  50.9802458  42.2085332  50.3318453  51.5393268  42.7897262
  63.8571015  58.0650169  45.4350502  64.6788459  57.6630356  45.1533184
  63.8533418  57.9618403  46.3866618  51.7921951  51.0889509  39.6428698
  50.9953114  51.2008203  40.1612194  51.5647543  51.4276161  38.7769589
  57.6227619  57.6134212  47.5911213  57.6872051  58.0754619  48.4269385
  56.9138543  56.9831577  47.7193523  48.1244909  50.9775420  45.1160212
  48.3752947  51.8622430  45.3817788  48.6604457  50.7980022  44.3435304
  71.9477008  54.4088917  41.7835474  71.1940717  53.8396315  41.6279478
  72.0824549  54.3751582  42.7306108  57.3375636  59.2802320  37.4590193
  57.2021311  60.1253855  37.8875041  57.8785449  59.4821597  36.6956127
  53.8242976  45.3593899  54.1204548  53.4309922  44.8060098  54.7952193
  54.6409116  45.6704478  54.5111066  50.7905034  56.7977758  38.0318118
  51.3029554  57.5921008  38.1823683  51.4427747  56.1004048  37.9651720
  52.5999918  59.9143514  40.1140871  52.7766547  60.8361479  39.9261855
  53.3956752  59.6001933  40.5435251  56.7410937  46.7751779  51.7124805
  57.4820650  47.3758932  51.6329267  56.9728860  46.0329416  51.1542847
  51.8852275  51.9608146  49.9903035  51.7705790  51.0593403  50.2910133
  51.0296793  52.2071843  49.6387851  58.9644113  59.9025886  51.5890535
  58.5207967  59.1162265  51.2711440  59.6261326  60.0905037  50.9234426
  53.7231234  61.4321688  46.1151214  54.2738659  61.3038751  45.3428208
  52.8842710  61.7316577  45.7646106  57.5198405  57.6972816  50.4595445
  58.0526742  56.9361104  50.2294753  56.9912486  57.4046467  51.2019599
  60.6868100  42.8032882  45.9889087  60.3432369  43.6934523  45.9128197
  61.0547062  42.6134539  45.1258672  48.7553950  55.1266412  38.8077689
  49.5929172  55.5363420  38.5911396  48.9332218  54.1865854  38.7777883
  60.6518383  52.7941493  34.4961522  60.1365006  53.5646097  34.7349909
  60.3795691  52.1206629  35.1194583  58.2365494  47.6391193  39.5546760
  57.3807090  47.2498044  39.3752399  58.6492445  47.7183154  38.6946546
  59.7664640  45.1737537  43.9538320  59.2629436  45.1367672  43.1406125
  60.0595247  46.0830279  44.0134976  56.0107526  45.2576266  42.9604501
  56.8760523  45.0619075  42.6010391  56.0785035  45.0286618  43.8873858
  65.6252657  55.5473847  36.4314695  64.8482100  55.2085007  35.9869857
  66.3044138  55.5526470  35.7569660  60.4404686  50.6668585  36.3221303
  60.1354821  50.9814734  37.1731446  61.3935128  50.7450005  36.3648636
  58.8851118  56.8258808  37.9714257  58.3572479  56.0911568  37.6587494
  58.3838620  57.6033484  37.7254225  63.8643964  55.0207829  43.0881303
  63.2067638  55.7107090  43.1761432  64.6684363  55.4104260  43.4315289
  53.6169845  47.4878474  40.3320868  54.1913597  47.2653656  39.5994061
  54.2040828  47.5567169  41.0849470  62.6749422  53.3752201  41.1385245
  63.1881304  54.0082193  41.6406955  63.3250646  52.7753397  40.7728605
  53.9439432  49.5182935  34.3516754  53.1076745  49.8557622  34.6726028
  53.8044202  49.3831915  33.4143891  55.9192513  44.3619723  39.0595938
  55.2656925  44.0468740  38.4352553  55.8772987  43.7395464  39.7855761
  57.0303718  54.6439018  30.9749230  56.1230780  54.4128272  31.1740379
  57.5274750  53.8476638  31.1623211  59.9371797  63.3536525  33.8945916
  59.2633495  63.6568222  34.5030874  60.3237619  64.1565606  33.5451373
  59.1530253  50.8501657  43.3843585  58.2352815  51.0716604  43.2265273
  59.5690397  50.9247967  42.5255293  59.9365301  52.2493072  38.5146266
  60.6837120  52.7614470  38.2053388  60.2056891  51.9277125  39.3750659
  58.2091951  54.7451613  35.4973220  57.3003171  54.4610646  35.5945690
  58.2387035  55.1650692  34.6376527  63.4411219  58.3558203  39.2664387
  62.9873546  57.5149113  39.3229578  62.8105185  58.9919601  39.6039168
  62.3844138  49.2850189  40.4965055  61.6466895  48.7727575  40.8275297
  62.6370912  48.8450570  39.6848332  61.8844158  60.1934699  40.2014206
  62.1767132  60.7539756  39.4826571  62.3942778  60.4863260  40.9567365
  62.4855766  42.0626441  41.0906824  62.7914642  41.2023804  40.8032739
  63.2108370  42.6544061  40.8905818  48.7780122  52.4657127  39.4788422
  48.5804521  51.8726488  38.7539489  48.2226786  52.1609337  40.1964361
  56.7576845  52.3580234  41.5983015  56.8125455  51.4054070  41.5225492
  55.9468047  52.5139673  42.0824314  57.9068039  56.2860357  32.8361298
  57.4687469  55.5696216  32.3766936  58.6478480  56.5136472  32.2746390
  54.6969205  50.9757294  39.3573394  53.8837071  51.2751464  39.7638586
  55.1928199  50.5812982  40.0747876  56.8477783  60.9715050  41.2907659
  56.8053962  61.1975897  40.3616191  57.7640482  60.7378425  41.4393460
  60.2943417  51.4399118  48.1888288  60.6492805  51.6670591  49.0482754
  60.9415548  51.7717495  47.5665543  66.0241154  54.5617554  38.8937617
  65.8859052  54.7519150  37.9658806  65.6677373  55.3236937  39.3505668
  54.1883280  48.5475649  44.9734629  54.8282659  48.4064408  44.2757592
  53.3560811  48.2610162  44.5973231  66.0510533  56.6294081  43.9048889
  66.4847040  56.5369370  44.7531943  66.7642114  56.6051581  43.2668905
  54.9643584  57.8478079  41.0869622  55.7584182  57.3528400  40.8852196
  54.2535276  57.3195943  40.7237327  51.2726347  51.9921161  37.1629374
  50.3423935  51.9305617  37.3799336  51.3683819  51.4697114  36.3666015
  51.1911896  48.5175974  39.7507616  51.4518714  49.4321307  39.6416776
  52.0129069  48.0500417  39.9004229  52.6636822  49.9313731  46.9206440
  53.3359875  49.7231093  46.2719089  51.8366608  49.7335817  46.4811673
  58.5662394  46.5575672  48.9372101  57.9190309  47.2565622  48.8436578
  59.3363409  46.9911816  49.3048349  61.9741192  56.8224524  52.0122655
  61.8226698  56.5935076  51.0952738  61.9645871  57.7795126  52.0254000
  58.7426528  54.3956437  46.9968921  59.6718588  54.5467597  46.8237888
  58.3217558  54.4840458  46.1417568  57.5414860  58.4207101  44.7667459
  57.4025946  58.0525886  45.6393397  56.7529456  58.9354741  44.5951416
  58.1363012  63.5216198  36.1092995  58.3114768  63.0504241  36.9238618
  57.4495800  64.1481964  36.3374256  59.0920075  57.7988704  42.1556296
  58.7569908  57.7589474  43.0513946  58.5924021  57.1333420  41.6826707
  53.0664319  53.2056334  47.6808878  52.9284117  52.4736573  48.2820417
  53.9769242  53.1165234  47.3993065  62.0279267  55.1444738  32.4293356
  61.4108437  54.4191567  32.3326409  61.5595755  55.9054099  32.0860430
  55.6946620  52.9176294  47.1692557  56.4046238  52.2769486  47.1279176
  55.6515928  53.1689188  48.0918738  54.4075554  49.9041511  48.9888197
  53.8712911  49.4532250  49.6409793  53.8192262  50.0387420  48.2458661
  52.7024097  66.6705561  42.8832855  52.9420695  67.3024085  43.5611874
  51.8593294  66.3193601  43.1698215  53.8177813  49.3630163  31.5514660
  52.9407279  49.2418964  31.1876907  54.2935566  48.5716241  31.2993549
  63.6850806  57.8183231  48.3213116  62.7977584  57.4809153  48.4439515
  64.2549357  57.0866262  48.5581881  45.3379953  54.1507323  41.6456167
  46.0250993  53.8369053  41.0577183  45.1828081  55.0548687  41.3723419
  50.1414675  49.0397519  46.0741191  50.0572864  48.4323189  45.3391601
  49.3197381  49.5306537  46.0750688  57.0041739  61.7156453  38.7977181
  56.2209260  62.2578133  38.8915405  57.7034484  62.2330433  39.1971422
  60.3138389  47.5251083  41.4411386  60.8107088  46.7721045  41.1212456
  59.5425370  47.5615399  40.8754596  68.1668146  53.2291448  43.0829678
  68.1558022  54.1116164  42.7123611  67.2985526  52.8762999  42.8884215
  61.3968169  56.2822770  39.0149810  60.4624448  56.4024232  38.8454514
  61.5744838  55.3795237  38.7509819  56.8973357  49.6668466  41.1683071
  56.5271145  49.1139506  41.8563976  57.3932450  49.0626599  40.6158071
  64.7840721  52.1240089  39.5499844  65.2501173  52.9568081  39.4760146
  65.2348221  51.6585071  40.2545102  54.7262556  60.1265961  48.2638089
  55.4272016  60.7602444  48.4167483  54.2557671  60.4680692  47.5033728
  62.8516952  58.4683910  36.5485996  63.1276796  58.3540505  37.4579870
  61.9821451  58.0701395  36.5098169  62.7557384  44.4920676  43.5890745
  61.8420463  44.7224903  43.7572952  63.1850485  44.5759120  44.4404777
  62.5263842  52.6810568  46.0890639  61.8735292  52.9286476  45.4343092
  62.9044222  51.8674706  45.7553116  59.4871016  62.7170261  40.1918809
  59.6693410  61.8991917  40.6546562  60.3104002  62.9337954  39.7543699
  59.8213181  61.6438446  37.4533858  60.3500948  61.1330901  36.8404020
  60.0841401  61.3280977  38.3179391  58.5751415  53.4230379  52.5756676
  57.8992052  53.3224508  53.2459051  59.3979049  53.2669593  53.0392673
  50.3230274  59.6602316  45.1969191  50.9083711  58.9146004  45.3297096
  50.1255113  59.9706272  46.0805855  53.1768929  62.6953563  40.2131634
  52.5079305  63.1799691  39.7295674  53.0381799  62.9422784  41.1275012
  44.9147929  52.2307916  43.9173635  44.9532028  51.6971507  44.7110753
  44.4088222  51.7043121  43.2984612  52.2938691  47.0772456  47.4136177
  52.3580018  47.9387287  47.0013575  52.2305811  46.4646458  46.6808535
  51.7690964  49.1495589  51.0609211  52.3963002  48.7672666  51.6746736
  50.9118883  48.9309791  51.4264904  48.5456506  50.9572018  36.9927566
  48.8409947  50.0482696  36.9394620  47.6444542  50.9359757  36.6708568
  52.0750753  49.0328015  42.9755115  51.3537339  49.6463982  42.8362588
  52.8644009  49.5685779  42.8971761  54.8777067  46.3682441  49.2495766
  55.4011469  46.6144738  50.0122076  54.6589400  47.2002476  48.8298904
  50.2744348  48.6386116  37.1166891  49.9457054  47.7583495  36.9341997
  50.6283719  48.5833784  38.0043280  59.5223927  60.2741018  41.6261877
  59.3748889  59.3457726  41.8069447  60.3477420  60.2961109  41.1418952
  53.3886171  48.9259085  37.4842369  53.7282244  49.4545007  36.7620977
  53.8358292  49.2639492  38.2600935  63.1258049  61.0969577  42.7126749
  64.0504596  60.8912438  42.5751201  62.9573352  60.8485978  43.6216091
  56.0829612  47.3096136  46.9345437  55.7426432  46.5103949  47.3366117
  55.3768618  47.6097847  46.3622270  56.7346084  44.3945449  45.3872760
  57.5572153  43.9205927  45.2651650  56.9784147  45.1735932  45.8871446
  55.3754318  47.4233707  35.6835662  56.0962681  47.8014960  35.1799378
  54.7519622  48.1422584  35.7870640  59.5185441  48.1278856  36.6193994
  59.7349056  49.0103494  36.3182822  59.0379508  47.7365069  35.8899636
  54.2584663  51.0864569  43.1964739  54.1129243  51.4004872  44.0889020
  53.7809866  51.7049470  42.6435637  56.1181045  48.0767117  43.2445628
  56.1042614  47.1808211  42.9077926  56.8353474  48.0837781  43.8783914
  57.9707176  48.5104457  45.2898756  57.7124954  49.4321528  45.2883086
  57.4392217  48.1134892  45.9799220  62.9153365  61.6155245  38.0688841
  63.0890242  61.0501667  37.3162693  63.4082256  62.4156139  37.8868331
  48.7330325  53.6269914  46.1352400  48.1883793  54.4029722  46.2672674
  49.6109675  53.9740718  45.9771521  55.5217941  46.9581498  38.5133198
  55.6433853  46.0298144  38.7124086  55.2319984  46.9720184  37.6011514
  58.3909132  44.6436408  41.6499918  58.4130829  44.7075741  40.6951898
  58.8077191  43.8040917  41.8440424  68.7692756  54.3791668  39.6879141
  69.2123902  53.6298993  39.2898264  67.8919266  54.3701804  39.3052873
  63.9028537  60.9322009  35.1685739  64.5979442  61.5528702  35.3873054
  64.2451688  60.0817360  35.4438117  49.5196347  52.7539810  49.0282557
  48.7778083  52.9022445  49.6147187  49.1989091  53.0148076  48.1649306
  65.8019961  58.3821715  36.6973070  66.3271285  58.7208987  35.9722390
  65.7142313  57.4468730  36.5136205  57.4860621  64.4493698  41.0568323
  57.0465612  63.9570076  41.7501180  58.2368738  63.9066665  40.8160398
  49.9652960  60.6405239  41.0592951  50.7910980  60.3409011  40.6791595
  49.6147012  59.8712861  41.5082740  54.9334493  59.9931707  43.1290625
  54.3114503  59.3302412  42.8292853  55.6039360  60.0192839  42.4464273
  48.1661565  58.5591565  42.0181885  47.3293474  58.1313739  41.8365886
  48.1385211  58.7524008  42.9552676  55.0059021  48.4713495  52.7223131
  55.0547176  49.3475618  52.3400900  55.5481535  47.9290888  52.1494774
  54.4948000  58.5435630  36.6049085  54.6436121  59.2271095  35.9515758
  55.3014444  58.5240720  37.1198541  62.9015504  51.8478013  50.6316303
  63.8025367  51.7084477  50.3400301  62.9763479  52.0132467  51.5714481
  57.2358309  49.2244867  49.4769489  56.3661619  49.5178433  49.2052078
  57.4717790  49.8085312  50.1976753  68.3125621  55.8496906  42.0801588
  69.1472512  56.2886710  42.2439149  68.4484750  55.3735559  41.2609834
  52.2500633  54.5700808  37.6110154  52.0046675  53.6663138  37.8090364
  52.4196548  54.5717958  36.6689632  59.9397343  45.4424484  46.9934910
  60.4579287  46.1785511  46.6681398  59.5852476  45.7488478  47.8281669
  51.5196281  50.3029165  35.1096316  50.8265526  50.3773520  34.4536352
  51.2748033  49.5389509  35.6317833  60.1909937  41.8624767  42.5135806
  60.4711691  41.1947956  43.1396233  60.9760544  42.0553862  42.0010470
  57.9943406  61.0383761  34.0760833  57.4217373  61.6573948  33.6231305
  58.5676200  61.5883122  34.6100755  64.0618796  50.2842401  46.2607382
  65.0136219  50.3840498  46.2819606  63.8922246  49.4920669  46.7705466
  62.0833175  47.3697984  46.4466783  61.4883107  47.6502997  45.7513271
  61.7982872  47.8591885  47.2183524  61.2140666  61.3220911  35.2069415
  62.1471339  61.2566472  35.4102291  61.1263878  62.1577178  34.7483948
  63.8428682  60.6386781  32.1673363  63.7642314  60.3046645  33.0609121
  64.6638349  61.1308549  32.1664835  58.3790204  52.3744573  31.4176885
  59.3249309  52.2450782  31.4865303  58.0004449  51.6359235  31.8946313
  64.3512089  44.0400579  41.3803777  64.1536910  43.7315668  42.2647109
  64.9611794  44.7662218  41.5101707  58.2628897  56.4262320  52.8777542
  59.1831906  56.6040919  53.0717589  58.2278480  55.4818365  52.7257242
  56.5633122  50.2994550  31.3531770  55.6564577  50.0027663  31.4294484
  56.8409103  50.0024368  30.4866057  47.4811062  51.6200913  41.8030817
  47.1613846  50.7666221  41.5105191  46.9344490  51.8349491  42.5588784
  51.2590969  54.3363354  45.5200323  51.4776979  55.2680462  45.5388357
  51.6716743  53.9771329  46.3055127  58.1795187  44.8431440  37.5076012
  57.3695916  44.4978525  37.8831258  58.8679604  44.5338983  38.0963623
  60.1085736  43.9209486  39.1300308  60.6616774  44.3404940  39.7890332
  60.3455822  42.9945234  39.1723264  56.1318835  49.9096560  54.9103072
  56.0315562  50.8590917  54.8415163  55.9140377  49.5814799  54.0379142
  55.3331906  47.1581485  31.4943750  56.1951070  47.4836383  31.7539567
  55.5182250  46.3712981  30.9816815  47.3499322  55.2403825  43.7723938
  46.6562793  54.8257778  43.2593893  48.0972313  55.2824361  43.1757357
  63.4864543  46.0310011  38.6378973  62.9063212  46.6894816  38.2557025
  63.2200475  45.2087356  38.2266390  61.9368109  45.4315069  40.8400293
  62.4367887  45.5431604  40.0314612  62.5803717  45.1276122  41.4801101
  55.9950105  53.3393699  53.7268134  55.5117187  54.1394059  53.9332023
  56.0811044  53.3501644  52.7735578  49.2636064  55.1722079  41.6489953
  49.2406753  55.2709766  40.6971836  49.5736701  56.0187229  41.9707119
  51.9223442  57.2298234  45.7636568  52.8766696  57.1982176  45.6966499
  51.7235966  56.7688857  46.5786794  52.5122824  55.7999350  48.3307365
  53.3315713  56.2943428  48.3542203  52.7859632  54.8831318  48.3024933
  62.2689421  48.1910102  37.6935321  61.3815276  48.4759753  37.4755516
  62.6843410  48.0303865  36.8462598  65.6203957  48.2156623  41.4089660
  66.3964347  48.7053075  41.6814277  64.8952091  48.6414677  41.8661530
  68.0576515  48.9284242  42.4663601  68.6521006  48.6879978  41.7556909
  68.1303099  48.2091373  43.0937137  50.2773671  62.7717853  42.7806766
  50.1428139  62.0118254  42.2144764  49.8605733  63.4958753  42.3135555
  61.4132634  57.9554777  31.7883341  62.1168484  58.1604779  32.4040997
  60.6895283  58.5231538  32.0532424  62.2430444  53.7064638  37.9085611
  62.1865646  54.1633189  37.0693244  62.7958787  52.9455322  37.7308454
  66.0535250  49.4954370  38.7335731  65.7972185  49.0951005  39.5643938
  65.4288118  50.2098164  38.6085870  70.3647588  52.2350443  41.2407022
  69.8047146  52.3043632  42.0138584  69.7591092  52.0591428  40.5206518
  53.4342797  63.6687170  42.9925208  53.3175181  64.6132603  42.8903899
  52.6135243  63.3660732  43.3811007  63.3219332  58.3937306  33.8381801
  64.1564935  57.9618504  33.6559276  63.1603674  58.2219319  34.7658695
  62.9765224  54.8969419  35.2038140  62.9214027  54.7313690  34.2626584
  62.3511279  55.6045452  35.3600330  47.7657739  50.1337483  49.0299562
  48.4116602  49.6236437  49.5186788  47.5574890  50.8706165  49.6042988
  60.2911131  57.2018331  54.5291703  61.1602290  57.3758983  54.1678338
  59.8117882  58.0212748  54.4067432  56.2861349  44.3977528  34.7823459
  56.2740019  45.3419368  34.9391730  57.1784771  44.2147673  34.4882920
  54.4597311  64.3215432  46.2081137  55.3624558  64.3539042  46.5247632
  54.2334681  63.3915883  46.2227473  60.1013469  40.9920305  39.0369395
  59.3345864  40.4378791  39.1826078  60.5124174  41.0642173  39.8983547
  52.1055230  47.2805101  53.1274577  52.9686691  46.9241905  53.3377901
  51.5320640  46.9418995  53.8149981  68.1634909  64.0250785  34.1047855
  68.3309311  64.8931022  34.4718326  67.9732078  64.1878067  33.1809145
  73.8409196  66.9529916  35.9174856  74.7527052  67.1857303  35.7422554
  73.3318843  67.5366960  35.3549935  71.1845171  63.1287952  44.1664717
  70.3229650  63.4269205  44.4581455  71.2107605  63.3458351  43.2345750
  82.7870763  69.7380835  41.7835474  82.0334471  69.1688233  41.6279478
  82.9218304  69.7043500  42.7306108  71.4912137  68.1233410  34.4961522
  70.9758761  68.8938015  34.7349909  71.2189446  67.4498546  35.1194583
  69.0759248  62.9683111  39.5546760  68.2200844  62.5789961  39.3752399
  69.4886200  63.0475072  38.6946546  76.4646411  70.8765765  36.4314695
  75.6875854  70.5376924  35.9869857  77.1437892  70.8818388  35.7569660
  71.2798440  65.9960502  36.3221303  70.9748576  66.3106652  37.1731446
  72.2328882  66.0741922  36.3648636  64.4563600  62.8170392  40.3320868
  65.0307352  62.5945573  39.5994061  65.0434582  62.8859087  41.0849470
  66.7586267  59.6911641  39.0595938  66.1050680  59.3760658  38.4352553
  66.7166742  59.0687381  39.7855761  67.8697472  69.9730936  30.9749230
  66.9624534  69.7420189  31.1740379  68.3668504  69.1768555  31.1623211
  73.3249520  57.3918358  41.0906824  73.6308397  56.5315722  40.8032739
  74.0502125  57.9835979  40.8905818  76.8634908  69.8909472  38.8937617
  76.7252807  70.0811068  37.9658806  76.5071127  70.6528854  39.3505668
  72.8673021  70.4736656  32.4293356  72.2502192  69.7483484  32.3326409
  72.3989510  71.2346016  32.0860430  64.6571567  64.6922080  31.5514660
  63.7801033  64.5710881  31.1876907  65.1329320  63.9008159  31.2993549
  71.1532143  62.8543000  41.4411386  71.6500843  62.1012963  41.1212456
  70.3819125  62.8907317  40.8754596  79.0061901  68.5583366  43.0829678
  78.9951777  69.4408081  42.7123611  78.1379280  68.2054917  42.8884215
  75.6234475  67.4532007  39.5499844  76.0894927  68.2859998  39.4760146
  76.0741976  66.9876988  40.2545102  64.2279926  64.2551003  37.4842369
  64.5675998  64.7836924  36.7620977  64.6752046  64.5931409  38.2600935
  66.2148073  62.7525625  35.6835662  66.9356435  63.1306878  35.1799378
  65.5913377  63.4714502  35.7870640  70.3579196  63.4570774  36.6193994
  70.5742810  64.3395412  36.3182822  69.8773263  63.0656987  35.8899636
  66.3611696  62.2873415  38.5133198  66.4827607  61.3590061  38.7124086
  66.0713738  62.3012101  37.6011514  69.2302886  59.9728326  41.6499918
  69.2524583  60.0367659  40.6951898  69.6470945  59.1332834  41.8440424
  79.6086511  69.7083585  39.6879141  80.0517657  68.9590910  39.2898264
  78.7313021  69.6993722  39.3052873  79.1519375  71.1788824  42.0801588
  79.9866267  71.6178628  42.2439149  79.2878504  70.7027477  41.2609834
  69.2183959  67.7036491  31.4176885  70.1643064  67.5742699  31.4865303
  68.8398204  66.9651153  31.8946313  75.1905843  59.3692497  41.3803777
  74.9930665  59.0607585  42.2647109  75.8005549  60.0954136  41.5101707
  83.1977178  69.8956445  44.5155718  83.9280566  69.6341733  45.0763421
  82.5884123  69.1585167  44.5557786  67.4026876  65.6286467  31.3531770
  66.4958331  65.3319580  31.4294484  67.6802857  65.3316286  30.4866057
  69.0188942  60.1723357  37.5076012  68.2089670  59.8270442  37.8831258
  69.7073359  59.8630901  38.0963623  70.9479490  59.2501404  39.1300308
  71.5010529  59.6696857  39.7890332  71.1849576  58.3237152  39.1723264
  66.1725661  62.4873403  31.4943750  67.0344825  62.8128301  31.7539567
  66.3576005  61.7004899  30.9816815  74.3258297  61.3601929  38.6378973
  73.7456966  62.0186733  38.2557025  74.0594230  60.5379274  38.2266390
  72.7761863  60.7606987  40.8400293  73.2761642  60.8723521  40.0314612
  73.4197471  60.4568040  41.4801101  73.1083175  63.5202020  37.6935321
  72.2209030  63.8051670  37.4755516  73.5237164  63.3595783  36.8462598
  72.2526389  73.2846694  31.7883341  72.9562239  73.4896697  32.4040997
  71.5289037  73.8523456  32.0532424  73.0824199  69.0356555  37.9085611
  73.0259400  69.4925107  37.0693244  73.6352541  68.2747240  37.7308454
  76.8929005  64.8246287  38.7335731  76.6365939  64.4242923  39.5643938
  76.2681873  65.5390081  38.6085870  81.2041343  67.5642361  41.2407022
  80.6440901  67.6335550  42.0138584  80.5984846  67.3883345  40.5206518
  73.8158978  70.2261337  35.2038140  73.7607782  70.0605608  34.2626584
  73.1905033  70.9337370  35.3600330  67.1255104  59.7269446  34.7823459
  67.1133773  60.6711286  34.9391730  68.0178526  59.5439591  34.4882920
  70.9407223  56.3212222  39.0369395  70.1739619  55.7670709  39.1826078
  71.3517928  56.3934091  39.8983547  82.3438630  81.9650328  41.0090186
  83.1301719  81.5469752  40.6580603  82.6077334  82.8696421  41.1771834
  85.2672477  75.6147136  46.3717773  84.9355802  76.4842547  46.1478988
  84.6718090  75.2983420  47.0511803  79.0028663  79.3542703  34.1047855
  79.1703066  80.2222939  34.4718326  78.8125832  79.5169984  33.1809145
  85.1601140  80.3342222  43.4511123  84.2518018  80.2657630  43.1569884
  85.1088736  80.8114167  44.2792948  87.0262787  78.5358660  45.2288997
  86.3837167  78.8291193  44.5828791  86.5217715  78.4211581  46.0342194
  79.3174788  81.6419068  46.9269706  80.1635983  82.0658482  47.0704355
  79.2573426  80.9852692  47.6208269  82.4674233  79.3023436  48.5850879
  82.2235165  80.0565497  48.0485155  82.7434164  79.6808784  49.4198126
  82.0238925  78.4579869  44.1664717  81.1623404  78.7561123  44.4581455
  82.0501360  78.6750268  43.2345750  78.4198446  77.4335614  51.7124805
  79.1608159  78.0342767  51.6329267  78.6516369  76.6913252  51.1542847
  82.3655609  73.4616717  45.9889087  82.0219878  74.3518359  45.9128197
  82.7334571  73.2718375  45.1258672  79.9153003  78.2975029  39.5546760
  79.0594599  77.9081879  39.3752399  80.3279954  78.3766990  38.6946546
  81.4452149  75.8321372  43.9538320  80.9416945  75.7951507  43.1406125
  81.7382756  76.7414115  44.0134976  77.6895035  75.9160102  42.9604501
  78.5548032  75.7202910  42.6010391  77.7572544  75.6870454  43.8873858
  77.5980022  75.0203559  39.0595938  76.9444434  74.7052576  38.4352553
  77.5560496  74.3979299  39.7855761  78.7091227  85.3022854  30.9749230
  77.8018289  85.0712107  31.1740379  79.2062259  84.5060473  31.1623211
  81.6159306  94.0120361  33.8945916  80.9421004  94.3152058  34.5030874
  82.0025128  94.8149441  33.5451373  84.0631647  79.9434024  40.4965055
  83.3254404  79.4311410  40.8275297  84.3158421  79.5034406  39.6848332
  84.1643275  72.7210276  41.0906824  84.4702151  71.8607639  40.8032739
  84.8895879  73.3127896  40.8905818  79.5855548  86.9444192  32.8361298
  79.1474978  86.2280051  32.3766936  80.3265989  87.1720307  32.2746390
  80.2449903  77.2159507  48.9372101  79.5977818  77.9149457  48.8436578
  81.0150918  77.6495651  49.3048349  75.4965322  80.0213998  31.5514660
  74.6194788  79.9002799  31.1876907  75.9723075  79.2300076  31.2993549
  81.9925898  78.1834918  41.4411386  82.4894597  77.4304880  41.1212456
  81.2212879  78.2199235  40.8754596  78.5760866  80.3252301  41.1683071
  78.2058654  79.7723341  41.8563976  79.0719959  79.7210434  40.6158071
  84.4344892  75.1504511  43.5890745  83.5207972  75.3808738  43.7572952
  84.8637994  75.2342956  44.4404777  77.7617121  77.9679972  46.9345437
  77.4213941  77.1687785  47.3366117  77.0556127  78.2681682  46.3622270
  78.4133593  75.0529284  45.3872760  79.2359662  74.5789762  45.2651650
  78.6571656  75.8319768  45.8871446  77.0541827  78.0817542  35.6835662
  77.7750190  78.4598795  35.1799378  76.4307131  78.8006419  35.7870640
  77.7968554  78.7350953  43.2445628  77.7830123  77.8392046  42.9077926
  78.5140983  78.7421616  43.8783914  79.6494685  79.1688293  45.2898756
  79.3912463  80.0905363  45.2883086  79.1179726  78.7718727  45.9799220
  77.2005450  77.6165333  38.5133198  77.3221362  76.6881979  38.7124086
  76.9107493  77.6304019  37.6011514  80.0696641  75.3020243  41.6499918
  80.0918338  75.3659576  40.6951898  80.4864700  74.4624752  41.8440424
  76.6846530  79.1297330  52.7223131  76.7334685  80.0059453  52.3400900
  77.2269044  78.5874723  52.1494774  78.9145818  79.8828703  49.4769489
  78.0449128  80.1762269  49.2052078  79.1505299  80.4669148  50.1976753
  81.6184852  76.1008320  46.9934910  82.1366796  76.8369347  46.6681398
  81.2639985  76.4072313  47.8281669  81.8697446  72.5208602  42.5135806
  82.1499200  71.8531791  43.1396233  82.6548053  72.7137698  42.0010470
  83.7620684  78.0281819  46.4466783  83.1670616  78.3086832  45.7513271
  83.4770381  78.5175720  47.2183524  80.0577713  83.0328409  31.4176885
  81.0036818  82.9034617  31.4865303  79.6791958  82.2943071  31.8946313
  86.0299598  74.6984415  41.3803777  85.8324419  74.3899503  42.2647109
  86.6399303  75.4246054  41.5101707  78.2420630  80.9578385  31.3531770
  77.3352086  80.6611498  31.4294484  78.5196612  80.6608203  30.4866057
  79.8582696  75.5015275  37.5076012  79.0483425  75.1562360  37.8831258
  80.5467113  75.1922819  38.0963623  81.7873245  74.5793322  39.1300308
  82.3404283  74.9988775  39.7890332  82.0243331  73.6529070  39.1723264
  77.0119415  77.8165320  31.4943750  77.8738579  78.1420219  31.7539567
  77.1969759  77.0296816  30.9816815  85.1652052  76.6893847  38.6378973
  84.5850721  77.3478651  38.2557025  84.8987984  75.8671191  38.2266390
  83.6155618  76.0898905  40.8400293  84.1155396  76.2015439  40.0314612
  84.2591226  75.7859957  41.4801101  87.2991466  78.8740458  41.4089660
  88.0751856  79.3636911  41.6814277  86.5739600  79.2998512  41.8661530
  89.7364024  79.5868077  42.4663601  90.3308515  79.3463813  41.7556909
  89.8090608  78.8675208  43.0937137  83.0920143  88.6138612  31.7883341
  83.7955993  88.8188614  32.4040997  82.3682792  89.1815374  32.0532424
  87.7322759  80.1538205  38.7335731  87.4759694  79.7534841  39.5643938
  87.1075627  80.8681999  38.6085870  77.9648858  75.0561363  34.7823459
  77.9527528  76.0003203  34.9391730  78.8572280  74.8731509  34.4882920
  81.7800978  71.6504140  39.0369395  81.0133373  71.0962627  39.1826078
  82.1911683  71.7226009  39.8983547  86.2967638 101.3753697  39.8595393
  85.7332503 101.2843634  39.0911681  86.1820033 100.5553601  40.3397886
  91.8767196 105.0424664  35.1709858  91.2255176 105.6278745  34.7843872
  92.6711559 105.5730859  35.2304896  85.8022823 102.1313802  35.5696993
  86.5753699 101.5842789  35.4309868  86.1548222 102.9958051  35.7811454
  88.1389101  98.2906468  33.2015443  88.3914622  97.7687989  32.4398906
  87.2013660  98.1272613  33.3042126  93.3542461 102.7315096  35.7078843
  92.7188294 102.8049723  36.4199747  93.0239868 103.3208695  35.0297922
  98.5840811  97.2317479  41.9123164  99.3165983  96.6616696  42.1460994
  97.8280167  96.8439080  42.3529670  87.8585390 100.1934574  35.4039818
  87.7421648  99.5179477  36.0720902  87.9687650  99.7066948  34.5871971
  90.2016931  99.6544721  39.1086507  89.8375138  99.1275342  39.8199428
  91.0584047  99.2643190  38.9352992  89.8211639  97.1392278  35.0894522
  89.7011264  97.5849329  35.9280002  89.1264227  97.4877596  34.5308060
  87.5818531 109.9095920  38.7384653  87.5042561 110.8603745  38.8173134
  86.9780174 109.5641792  39.3959580  95.5196705  97.6113751  35.9174856
  96.4314561  97.8441138  35.7422554  95.0106352  98.1950795  35.3549935
  94.1266287 102.5939570  43.3088438  93.4975150 102.7585284  42.6064505
  93.7391949 103.0081179  44.0799402  98.0055519 103.5294007  40.6632801
  97.3206557 103.9092909  40.1129835  98.0899368 104.1389334  41.3964749
  89.6794249 102.3313978  40.5738523  90.1432595 102.6101681  39.7843145
  89.4151047 101.4297422  40.3911613  88.6163135  98.4537130  37.3828088
  89.3187179  98.9058174  37.8502014  88.2843764  97.8120949  38.0107981
  96.3752279 104.0525922  45.4350502  97.1969722 103.6506109  45.1533184
  96.3714682 103.9494156  46.3866618 104.4658272 100.3964670  41.7835474
 103.7121980  99.8272068  41.6279478 104.6005813 100.3627335  42.7306108
  89.8556900 105.2678073  37.4590193  89.7202575 106.1129608  37.8875041
  90.3966712 105.4697350  36.6956127  83.3086297 102.7853511  38.0318118
  83.8210818 103.5796761  38.1823683  83.9609010 102.0879801  37.9651720
  85.1181182 105.9019267  40.1140871  85.2947810 106.8237232  39.9261855
  85.9138015 105.5877686  40.5435251  91.4825376 105.8901639  51.5890535
  91.0389230 105.1038018  51.2711440  92.1442590 106.0780790  50.9234426
  86.2412497 107.4197441  46.1151214  86.7919922 107.2914504  45.3428208
  85.4023973 107.7192330  45.7646106  93.5806614 106.1704439  49.6171936
  93.5625090 106.9913320  49.1252206  94.5026534 106.0458514  49.8422078
  90.0379668 103.6848569  50.4595445  90.5708005 102.9236857  50.2294753
  89.5093749 103.3922220  51.2019599  93.1699646  98.7817246  34.4961522
  92.6546270  99.5521850  34.7349909  92.8976955  98.1082382  35.1194583
  98.1433920 101.5349600  36.4314695  97.3663363 101.1960760  35.9869857
  98.8225401 101.5402223  35.7569660  92.9585949  96.6544338  36.3221303
  92.6536085  96.9690487  37.1731446  93.9116391  96.7325758  36.3648636
  91.4032381 102.8134561  37.9714257  90.8753743 102.0787321  37.6587494
  90.9019884 103.5909237  37.7254225  96.3825227 101.0083582  43.0881303
  95.7248902 101.6982843  43.1761432  97.1865626 101.3980013  43.4315289
  95.1930686  99.3627954  41.1385245  95.7062568  99.9957946  41.6406955
  95.8431910  98.7629150  40.7728605  89.5484981 100.6314771  30.9749230
  88.6412043 100.4004025  31.1740379  90.0456013  99.8352391  31.1623211
  92.4553060 109.3412279  33.8945916  91.7814759 109.6443975  34.5030874
  92.8418882 110.1441359  33.5451373  92.4546565  98.2368825  38.5146266
  93.2018383  98.7490223  38.2053388  92.7238154  97.9152878  39.3750659
  90.7273215 100.7327366  35.4973220  89.8184434 100.4486399  35.5945690
  90.7568299 101.1526445  34.6376527  95.9592482 104.3433956  39.2664387
  95.5054809 103.5024866  39.3229578  95.3286449 104.9795354  39.6039168
  94.4025421 106.1810452  40.2014206  94.6948396 106.7415509  39.4826571
  94.9124042 106.4739013  40.9567365  89.2758109  98.3455987  41.5983015
  89.3306719  97.3929823  41.5225492  88.4649311  98.5015426  42.0824314
  90.4249303 102.2736110  32.8361298  89.9868732 101.5571969  32.3766936
  91.1659743 102.5012225  32.2746390  87.2150469  96.9633047  39.3573394
  86.4018334  97.2627217  39.7638586  87.7109463  96.5688735  40.0747876
  89.3659047 106.9590803  41.2907659  89.3235225 107.1851650  40.3616191
  90.2821745 106.7254178  41.4393460  98.5422417 100.5493307  38.8937617
  98.4040316 100.7394903  37.9658806  98.1858636 101.3112690  39.3505668
  98.5691797 102.6169834  43.9048889  99.0028304 102.5245123  44.7531943
  99.2823378 102.5927334  43.2668905  87.4824847 103.8353832  41.0869622
  88.2765446 103.3404153  40.8852196  86.7716540 103.3071696  40.7237327
  92.3019692 106.2171928  45.4381989  92.3556714 106.7862864  46.2059705
  91.4334473 106.3873813  45.0736026  99.4307346 102.6593535  46.4381774
  99.6243237 103.5639345  46.6841049  99.3307965 102.2000954  47.2720359
  94.4922455 102.8100277  52.0122655  94.3407962 102.5810829  51.0952738
  94.4827135 103.7670879  52.0254000  90.0596123 104.4082854  44.7667459
  89.9207209 104.0401639  45.6393397  89.2710720 104.9230494  44.5951416
  90.6544275 109.5091951  36.1092995  90.8296031 109.0379994  36.9238618
  89.9677063 110.1357717  36.3374256  91.6101338 103.7864457  42.1556296
  91.2751171 103.7465227  43.0513946  91.1105284 103.1209173  41.6826707
  94.5460530 101.1320492  32.4293356  93.9289701 100.4067320  32.3326409
  94.0777019 101.8929852  32.0860430  96.2014662 105.8419400  50.0899136
  96.1427208 105.1578620  49.4229719  96.6034180 106.5838390  49.6379762
  85.2205361 112.6581314  42.8832855  85.4601959 113.2899838  43.5611874
  84.3774557 112.3069354  43.1698215  86.3359076  95.3505916  31.5514660
  85.4588542  95.2294717  31.1876907  86.8116829  94.5591994  31.2993549
  96.2032069 103.8058984  48.3213116  95.3158848 103.4684906  48.4439515
  96.7730620 103.0742015  48.5581881  89.7333222 108.4660436  45.2874359
  89.6603394 109.2715408  45.7993664  89.2910616 108.6652402  44.4622381
  89.5223002 107.7032206  38.7977181  88.7390524 108.2453886  38.8915405
  90.2215747 108.2206186  39.1971422 100.6849410  99.2167201  43.0829678
 100.6739286 100.0991917  42.7123611  99.8166789  98.8638752  42.8884215
  92.1931906 108.3647270  47.4432518  92.9059878 108.9994735  47.3708419
  91.7021935 108.4611136  46.6272520  93.9149433 102.2698523  39.0149810
  92.9805712 102.3899985  38.8454514  94.0926101 101.3670990  38.7509819
  97.3021984  98.1115842  39.5499844  97.7682436  98.9443834  39.4760146
  97.7529485  97.6460824  40.2545102  87.2443820 106.1141714  48.2638089
  87.9453279 106.7478197  48.4167483  86.7738934 106.4556445  47.5033728
  95.3698215 104.4559663  36.5485996  95.6458059 104.3416258  37.4579870
  94.5002714 104.0577148  36.5098169  92.0052279 108.7046014  40.1918809
  92.1874674 107.8867670  40.6546562  92.8285265 108.9213707  39.7543699
  92.3394445 107.6314199  37.4533858  92.8682211 107.1206654  36.8404020
  92.6022664 107.3156730  38.3179391  82.8411538 105.6478069  45.1969191
  83.4264974 104.9021757  45.3297096  82.6436376 105.9582025  46.0805855
  85.6950193 108.6829316  40.2131634  85.0260568 109.1675444  39.7295674
  85.5563062 108.9298537  41.1275012  89.8355461 110.7173060  46.8114292
  90.3873769 110.8804681  47.5763377  90.1761655 111.3077497  46.1394317
  94.6866336 105.5434317  52.6662947  95.2306240 106.1564275  52.1717901
  94.1053181 106.1013896  53.1829960  92.9723849 108.6655035  43.7977974
  92.8474988 107.8644775  43.2888920  93.6302940 109.1601229  43.3091944
  95.0358757 106.4664055  45.4257524  94.0889093 106.3469406  45.3535851
  95.3841530 105.5786553  45.5083786  92.0405190 106.2616771  41.6261877
  91.8930153 105.3333479  41.8069447  92.8658684 106.2836862  41.1418952
  95.6439312 107.0845330  42.7126749  96.5685860 106.8788192  42.5751201
  95.4754616 106.8361731  43.6216091  95.4334628 107.6030998  38.0688841
  95.6071506 107.0377420  37.3162693  95.9263520 108.4031893  37.8868331
 101.2874020 100.3667421  39.6879141 101.7305166  99.6174746  39.2898264
 100.4100530 100.3577557  39.3052873  96.4209801 106.9197762  35.1685739
  97.1160706 107.5404455  35.3873054  96.7632951 106.0693113  35.4438117
  98.3201224 104.3697468  36.6973070  98.8452548 104.7084740  35.9722390
  98.2323577 103.4344483  36.5136205  89.9821273 108.2831541  48.8262947
  90.2908399 108.0380688  49.6985646  90.7796755 108.4878180  48.3381817
  90.0041885 110.4369451  41.0568323  89.5646875 109.9445830  41.7501180
  90.7550002 109.8942418  40.8160398  82.4834224 106.6280992  41.0592951
  83.3092244 106.3284764  40.6791595  82.1328276 105.8588614  41.5082740
  87.4515757 105.9807460  43.1290625  86.8295766 105.3178165  42.8292853
  88.1220624 106.0068592  42.4464273  80.6842829 104.5467318  42.0181885
  79.8474737 104.1189493  41.8365886  80.6566474 104.7399761  42.9552676
  98.0095130 105.0030371  52.0024268  97.2190674 104.9854510  51.4628767
  97.7728485 105.5418665  52.7573304  98.1293005 101.8522838  49.3156996
  98.1791010 101.6872845  50.2572519  98.0206928 100.9850097  48.9254877
  87.0129264 104.5311383  36.6049085  87.1617384 105.2146848  35.9515758
  87.8195707 104.5116473  37.1198541  99.6311202 104.2719779  49.5599018
  99.3396010 104.6349760  50.3962479  99.0183333 103.5586787  49.3812350
 100.8306884 101.8372659  42.0801588 101.6653776 102.2762463  42.2439149
 100.9666013 101.3611312  41.2609834  97.8798390  99.3952394  48.0279076
  98.3552512  99.5880040  47.2197927  96.9563956  99.4511580  47.7822460
  90.5124669 107.0259514  34.0760833  89.9398636 107.6449701  33.6231305
  91.0857463 107.5758875  34.6100755  93.7321929 107.3096664  35.2069415
  94.6652602 107.2442226  35.4102291  93.6445142 108.1452931  34.7483948
  96.3609946 106.6262534  32.1673363  96.2823577 106.2922398  33.0609121
  97.1819613 107.1184302  32.1664835  99.0588137  99.4924273  45.3749681
  99.0264457  98.5540274  45.5609365  99.6688761  99.5708310  44.6415506
  90.8971468  98.3620326  31.4176885  91.8430573  98.2326535  31.4865303
  90.5185713  97.6234988  31.8946313 104.8764687 100.5540280  44.5155718
 105.6068075 100.2925568  45.0763421 104.2671632  99.8169002  44.5557786
  89.0814385  96.2870303  31.3531770  88.1745840  95.9903416  31.4294484
  89.3590366  95.9900121  30.4866057  87.8513170  93.1457238  31.4943750
  88.7132334  93.4712136  31.7539567  88.0363514  92.3588734  30.9816815
  98.1385220  94.2032376  41.4089660  98.9145610  94.6928828  41.6814277
  97.4133354  94.6290430  41.8661530 100.5757779  94.9159995  42.4663601
 101.1702270  94.6755731  41.7556909 100.6484363  94.1967126  43.0937137
  82.7954935 108.7593606  42.7806766  82.6609402 107.9994007  42.2144764
  82.3786997 109.4834506  42.3135555  93.9313898 103.9430530  31.7883341
  94.6349748 104.1480532  32.4040997  93.2076546 104.5107291  32.0532424
  94.7611708  99.6940391  37.9085611  94.7046909 100.1508942  37.0693244
  95.3140050  98.9331075  37.7308454  98.5716514  95.4830123  38.7335731
  98.3153448  95.0826758  39.5643938  97.9469382  96.1973917  38.6085870
 102.8828852  98.2226196  41.2407022 102.3228410  98.2919385  42.0138584
 102.2772355  98.0467181  40.5206518  85.9524060 109.6562923  42.9925208
  85.8356445 110.6008356  42.8903899  85.1316507 109.3536485  43.3811007
  95.8400595 104.3813059  33.8381801  96.6746199 103.9494257  33.6559276
  95.6784938 104.2095072  34.7658695  95.4946487 100.8845172  35.2038140
  95.4395291 100.7189444  34.2626584  94.8692542 101.5921205  35.3600330
  92.8092394 103.1894084  54.5291703  93.6783554 103.3634736  54.1678338
  92.3299146 104.0088501  54.4067432  86.9778575 110.3091185  46.2081137
  87.8805821 110.3414795  46.5247632  86.7515945 109.3791636  46.2227473
  88.7332177 109.0622172  42.8691215  87.7827808 109.0624033  42.7555588
  89.0364663 108.3154906  42.3527250 104.4684870 114.8982710  43.9336978
 105.1063280 114.7789457  43.2300318 104.3505713 115.8463554  43.9924930
 101.2774576 114.8510138  43.8698502 100.9393088 114.7351203  42.9819037
 102.1464345 114.4501303  43.8499509  97.1361392 116.7045614  39.8595393
  96.5726257 116.6135551  39.0911681  97.0213787 115.8845519  40.3397886
 101.7594359 116.0044990  49.8284708 101.7483000 115.6097788  48.9565212
 101.9214999 115.2711062  50.4218479  94.6825824 118.1996806  42.6979614
  95.4747116 117.8587631  42.2825913  94.9222474 118.3091781  43.6181767
 102.7160951 120.3716582  35.1709858 102.0648931 120.9570663  34.7843872
 103.5105314 120.9022777  35.2304896  96.6416578 117.4605719  35.5696993
  97.4147454 116.9134706  35.4309868  96.9941977 118.3249969  35.7811454
  98.4801620 118.7882102  48.7763892  98.1891486 119.6927732  48.6610558
  99.1158605 118.8298629  49.4907961  99.4057827 116.1658950  45.3665252
 100.0021400 115.9414972  44.6522215  99.4632799 115.4243696  45.9690699
  98.9782856 113.6198385  33.2015443  99.2308376 113.0979907  32.4398906
  98.0407415 113.4564531  33.3042126 104.0226139 112.6234164  41.0090186
 104.8089228 112.2053587  40.6580603 104.2864843 113.5280256  41.1771834
 104.1936216 118.0607014  35.7078843 103.5582049 118.1341641  36.4199747
 103.8633622 118.6500613  35.0297922 109.4234566 112.5609397  41.9123164
 110.1559738 111.9908614  42.1460994 108.6673921 112.1730997  42.3529670
  98.6979144 115.5226491  35.4039818  98.5815403 114.8471395  36.0720902
  98.8081404 115.0358865  34.5871971 101.0410685 114.9836638  39.1086507
 100.6768893 114.4567259  39.8199428 101.8977801 114.5935107  38.9352992
 106.9459986 106.2730971  46.3717773 106.6143311 107.1426382  46.1478988
 106.3505599 105.9567255  47.0511803 100.6816172 110.0126538  34.1047855
 100.8490575 110.8806775  34.4718326 100.4913341 110.1753820  33.1809145
 103.4391506 118.4743517  45.7713686 103.1392229 119.3768556  45.6629493
 103.0942565 118.2075700  46.6234839  96.8903987 114.9257314  41.8050390
  95.9654484 114.7933528  42.0128082  97.1388400 115.7051533  42.3020332
 106.8388649 110.9926057  43.4511123 105.9305527 110.9241466  43.1569884
 106.7876245 111.4698002  44.2792948 100.6605393 112.4684196  35.0894522
 100.5405018 112.9141246  35.9280002  99.9657982 112.8169513  34.5308060
  94.2512798 114.5690587  42.6394179  94.3805179 114.8225066  43.5533591
  93.5710249 115.1618295  42.3198834  98.4212285 125.2387837  38.7384653
  98.3436315 126.1895662  38.8173134  97.8173929 124.8933710  39.3959580
 100.9129515 112.4115703  51.3946020 100.1362849 112.9709623  51.3848885
 101.5520078 112.8972486  51.9160890 108.7050296 109.1942496  45.2288997
 108.0624676 109.4875029  44.5828791 108.2005224 109.0795416  46.0342194
 106.3590459 112.9405669  35.9174856 107.2708316 113.1733056  35.7422554
 105.8500106 113.5242713  35.3549935  99.1675887 115.2201156  50.9563987
  99.9090572 115.7586200  50.6798811  98.4612873 115.8467445  51.1135539
 104.6431227 117.3630297  49.5536149 105.0514583 116.9212707  48.8090781
 103.9208489 116.7882924  49.8070342 100.9962297 112.3002903  46.9269706
 101.8423492 112.7242317  47.0704355 100.9360935 111.6436528  47.6208269
 104.9660042 117.9231487  43.3088438 104.3368904 118.0877201  42.6064505
 104.5785704 118.3373097  44.0799402 108.8449274 118.8585925  40.6632801
 108.1600312 119.2384826  40.1129835 108.9293123 119.4681252  41.3964749
 104.1461742 109.9607272  48.5850879 103.9022674 110.7149332  48.0485155
 104.4221673 110.3392619  49.4198126 106.1000205 116.5045884  47.2628145
 106.3117100 117.1477644  46.5862526 106.0529953 115.6708201  46.7950075
 103.7026434 109.1163705  44.1664717 102.8410913 109.4144958  44.4581455
 103.7288869 109.3334104  43.2345750 100.5188004 117.6605895  40.5738523
 100.9826349 117.9393598  39.7843145 100.2544802 116.7589340  40.3911613
  97.4112085 117.2077377  43.5118286  97.9813442 117.6364645  42.8735770
  98.0020197 116.9259962  44.2102472  99.4556890 113.7829048  37.3828088
 100.1580933 114.2350091  37.8502014  99.1237518 113.1412867  38.0107981
  97.9037251 112.3740804  51.7579297  97.2735912 113.0557085  51.9914694
  97.7973339 112.2623886  50.8132435  93.1982224 112.0412600  42.6845221
  92.4081278 112.2970129  42.2085332  93.6893471 112.8560938  42.7897262
 107.2146033 119.3817840  45.4350502 108.0363477 118.9798027  45.1533184
 107.2108436 119.2786074  46.3866618  95.1496969 112.4057180  39.6428698
  94.3528132 112.5175874  40.1612194  94.9222561 112.7443832  38.7769589
 100.9802637 118.9301883  47.5911213 101.0447069 119.3922290  48.4269385
 100.2713560 118.2999248  47.7193523  91.4819927 112.2943091  45.1160212
  91.7327965 113.1790101  45.3817788  92.0179475 112.1147692  44.3435304
 115.3052026 115.7256588  41.7835474 114.5515735 115.1563986  41.6279478
 115.4399567 115.6919253  42.7306108 100.6950654 120.5969990  37.4590193
 100.5596329 121.4421526  37.8875041 101.2360467 120.7989268  36.6956127
  97.1817994 106.6761570  54.1204548  96.7884939 106.1227769  54.7952193
  97.9984134 106.9872149  54.5111066  94.1480052 118.1145428  38.0318118
  94.6604572 118.9088679  38.1823683  94.8002764 117.4171719  37.9651720
  95.9574936 121.2311185  40.1140871  96.1341565 122.1529149  39.9261855
  96.7531770 120.9169604  40.5435251 100.0985955 108.0919449  51.7124805
 100.8395668 108.6926602  51.6329267 100.3303878 107.3497087  51.1542847
  95.2427293 113.2775817  49.9903035  95.1280808 112.3761074  50.2910133
  94.3871811 113.5239513  49.6387851 102.3219131 121.2193557  51.5890535
 101.8782985 120.4329935  51.2711440 102.9836344 121.4072707  50.9234426
  97.0806252 122.7489358  46.1151214  97.6313677 122.6206422  45.3428208
  96.2417728 123.0484247  45.7646106 104.4200369 121.4996357  49.6171936
 104.4018844 122.3205238  49.1252206 105.3420289 121.3750432  49.8422078
 100.8773423 119.0140486  50.4595445 101.4101760 118.2528774  50.2294753
 100.3487504 118.7214138  51.2019599 104.0443118 104.1200552  45.9889087
 103.7007387 105.0102194  45.9128197 104.4122080 103.9302210  45.1258672
  92.1128968 116.4434083  38.8077689  92.9504190 116.8531091  38.5911396
  92.2907236 115.5033525  38.7777883 104.0093401 114.1109163  34.4961522
 103.4940024 114.8813768  34.7349909 103.7370709 113.4374299  35.1194583
 101.5940512 108.9558864  39.5546760 100.7382108 108.5665715  39.3752399
 102.0067463 109.0350825  38.6946546 103.1239658 106.4905207  43.9538320
 102.6204454 106.4535343  43.1406125 103.4170265 107.3997950  44.0134976
  99.3682544 106.5743937  42.9604501 100.2335541 106.3786746  42.6010391
  99.4360053 106.3454289  43.8873858 108.9827675 116.8641518  36.4314695
 108.2057117 116.5252677  35.9869857 109.6619156 116.8694141  35.7569660
 103.7979704 111.9836255  36.3221303 103.4929839 112.2982405  37.1731446
 104.7510146 112.0617675  36.3648636 102.2426136 118.1426479  37.9714257
 101.7147497 117.4079238  37.6587494 101.7413638 118.9201155  37.7254225
 107.2218982 116.3375499  43.0881303 106.5642656 117.0274761  43.1761432
 108.0259381 116.7271931  43.4315289  96.9744863 108.8046145  40.3320868
  97.5488615 108.5821327  39.5994061  97.5615846 108.8734840  41.0849470
 106.0324440 114.6919872  41.1385245 106.5456322 115.3249864  41.6406955
 106.6825664 114.0921067  40.7728605  97.3014450 110.8350606  34.3516754
  96.4651763 111.1725293  34.6726028  97.1619220 110.6999586  33.4143891
  99.2767531 105.6787394  39.0595938  98.6231943 105.3636411  38.4352553
  99.2348005 105.0563134  39.7855761 100.3878736 115.9606689  30.9749230
  99.4805798 115.7295942  31.1740379 100.8849768 115.1644308  31.1623211
 103.2946815 124.6704196  33.8945916 102.6208513 124.9735893  34.5030874
 103.6812637 125.4733277  33.5451373 102.5105271 112.1669327  43.3843585
 101.5927833 112.3884274  43.2265273 102.9265415 112.2415638  42.5255293
 103.2940319 113.5660743  38.5146266 104.0412138 114.0782140  38.2053388
 103.5631909 113.2444796  39.3750659 101.5666969 116.0619284  35.4973220
 100.6578188 115.7778317  35.5945690 101.5962053 116.4818362  34.6376527
 106.7986237 119.6725873  39.2664387 106.3448564 118.8316783  39.3229578
 106.1680203 120.3087272  39.6039168 105.7419156 110.6017859  40.4965055
 105.0041913 110.0895246  40.8275297 105.9945930 110.1618241  39.6848332
 105.2419176 121.5102370  40.2014206 105.5342150 122.0707427  39.4826571
 105.7517796 121.8030931  40.9567365 105.8430783 103.3794111  41.0906824
 106.1489660 102.5191475  40.8032739 106.5683388 103.9711732  40.8905818
  92.1355140 113.7824798  39.4788422  91.9379539 113.1894159  38.7539489
  91.5801804 113.4777008  40.1964361 100.1151863 113.6747904  41.5983015
 100.1700473 112.7221741  41.5225492  99.3043065 113.8307344  42.0824314
 101.2643057 117.6028028  32.8361298 100.8262487 116.8863886  32.3766936
 102.0053498 117.8304142  32.2746390  98.0544223 112.2924964  39.3573394
  97.2412089 112.5919135  39.7638586  98.5503217 111.8980653  40.0747876
 100.2052801 122.2882721  41.2907659 100.1628980 122.5143567  40.3616191
 101.1215500 122.0546096  41.4393460 103.6518435 112.7566789  48.1888288
 104.0067823 112.9838262  49.0482754 104.2990566 113.0885165  47.5665543
 109.3816172 115.8785225  38.8937617 109.2434070 116.0686821  37.9658806
 109.0252391 116.6404607  39.3505668  97.5458298 109.8643320  44.9734629
  98.1857677 109.7232079  44.2757592  96.7135828 109.5777833  44.5973231
 109.4085551 117.9461752  43.9048889 109.8422058 117.8537041  44.7531943
 110.1217132 117.9219252  43.2668905  98.3218602 119.1645750  41.0869622
  99.1159200 118.6696070  40.8852196  97.6110294 118.6363613  40.7237327
 103.1413446 121.5463846  45.4381989 103.1950469 122.1154782  46.2059705
 102.2728228 121.7165731  45.0736026  94.6301365 113.3088832  37.1629374
  93.6998953 113.2473287  37.3799336  94.7258837 112.7864785  36.3666015
  94.5486914 109.8343645  39.7507616  94.8093732 110.7488978  39.6416776
  95.3704087 109.3668087  39.9004229  96.0211840 111.2481402  46.9206440
  96.6934893 111.0398764  46.2719089  95.1941626 111.0503488  46.4811673
 110.2701101 117.9885452  46.4381774 110.4636991 118.8931263  46.6841049
 110.1701719 117.5292871  47.2720359 101.9237412 107.8743343  48.9372101
 101.2765327 108.5733292  48.8436578 102.6938427 108.3079487  49.3048349
 105.3316210 118.1392195  52.0122655 105.1801716 117.9102747  51.0952738
 105.3220889 119.0962796  52.0254000 102.1001546 115.7124108  46.9968921
 103.0293606 115.8635267  46.8237888 101.6792576 115.8008129  46.1417568
 100.8989878 119.7374772  44.7667459 100.7600964 119.3693557  45.6393397
 100.1104474 120.2522412  44.5951416 101.4938030 124.8383869  36.1092995
 101.6689785 124.3671912  36.9238618 100.8070818 125.4649635  36.3374256
 102.4495093 119.1156375  42.1556296 102.1144926 119.0757145  43.0513946
 101.9499039 118.4501091  41.6826707  96.4239337 114.5224005  47.6808878
  96.2859135 113.7904244  48.2820417  97.3344260 114.4332905  47.3993065
 105.3854285 116.4612409  32.4293356 104.7683455 115.7359237  32.3326409
 104.9170773 117.2221769  32.0860430  99.0521638 114.2343964  47.1692557
  99.7621256 113.5937156  47.1279176  99.0090946 114.4856859  48.0918738
 107.0408416 121.1711318  50.0899136 106.9820962 120.4870538  49.4229719
 107.4427935 121.9130308  49.6379762  97.7650572 111.2209182  48.9888197
  97.2287929 110.7699921  49.6409793  97.1767280 111.3555091  48.2458661
  96.0599115 127.9873231  42.8832855  96.2995713 128.6191756  43.5611874
  95.2168312 127.6361271  43.1698215  97.1752831 110.6797834  31.5514660
  96.2982297 110.5586634  31.1876907  97.6510584 109.8883912  31.2993549
 107.0425824 119.1350901  48.3213116 106.1552602 118.7976823  48.4439515
 107.6124375 118.4033933  48.5581881  88.6954971 115.4674993  41.6456167
  89.3826011 115.1536723  41.0577183  88.5403099 116.3716358  41.3723419
  93.4989693 110.3565190  46.0741191  93.4147882 109.7490859  45.3391601
  92.6772399 110.8474208  46.0750688 100.5726977 123.7952354  45.2874359
 100.4997148 124.6007325  45.7993664 100.1304370 123.9944320  44.4622381
 100.3616757 123.0324124  38.7977181  99.5784278 123.5745804  38.8915405
 101.0609502 123.5498104  39.1971422 103.6713407 108.8418753  41.4411386
 104.1682106 108.0888716  41.1212456 102.9000388 108.8783070  40.8754596
 111.5243164 114.5459119  43.0829678 111.5133040 115.4283834  42.7123611
 110.6560544 114.1930670  42.8884215 103.0325660 123.6939188  47.4432518
 103.7453633 124.3286653  47.3708419 102.5415689 123.7903054  46.6272520
 104.7543187 117.5990441  39.0149810 103.8199466 117.7191903  38.8454514
 104.9319856 116.6962907  38.7509819 100.2548375 110.9836136  41.1683071
  99.8846163 110.4307177  41.8563976 100.7507468 110.3794270  40.6158071
 108.1415739 113.4407760  39.5499844 108.6076191 114.2735751  39.4760146
 108.5923239 112.9752741  40.2545102  98.0837574 121.4433631  48.2638089
  98.7847033 122.0770114  48.4167483  97.6132689 121.7848363  47.5033728
 106.2091970 119.7851581  36.5485996 106.4851814 119.6708176  37.4579870
 105.3396469 119.3869066  36.5098169 106.1132401 105.8088347  43.5890745
 105.1995481 106.0392574  43.7572952 106.5425503 105.8926791  44.4404777
 105.8838860 113.9978239  46.0890639 105.2310310 114.2454146  45.4343092
 106.2619240 113.1842377  45.7553116 102.8446034 124.0337932  40.1918809
 103.0268428 123.2159588  40.6546562 103.6679020 124.2505624  39.7543699
 103.1788199 122.9606117  37.4533858 103.7075966 122.4498572  36.8404020
 103.4416419 122.6448647  38.3179391 101.9326433 114.7398050  52.5756676
 101.2567070 114.6392179  53.2459051 102.7554067 114.5837264  53.0392673
  93.6805292 120.9769986  45.1969191  94.2658729 120.2313674  45.3297096
  93.4830131 121.2873943  46.0805855  96.5343947 124.0121234  40.2131634
  95.8654323 124.4967361  39.7295674  96.3956817 124.2590454  41.1275012
  88.2722947 113.5475587  43.9173635  88.3107046 113.0139177  44.7110753
  87.7663240 113.0210792  43.2984612 100.6749216 126.0464977  46.8114292
 101.2267524 126.2096599  47.5763377 101.0155409 126.6369415  46.1394317
  95.6513709 108.3940127  47.4136177  95.7155036 109.2554958  47.0013575
  95.5880829 107.7814129  46.6808535  95.1265982 110.4663260  51.0609211
  95.7538020 110.0840337  51.6746736  94.2693900 110.2477462  51.4264904
 105.5260090 120.8726235  52.6662947 106.0699994 121.4856193  52.1717901
 104.9446935 121.4305813  53.1829960  91.9031524 112.2739689  36.9927566
  92.1984965 111.3650367  36.9394620  91.0019560 112.2527428  36.6708568
 103.8117603 123.9946953  43.7977974 103.6868743 123.1936693  43.2888920
 104.4696694 124.4893146  43.3091944  95.4325771 110.3495685  42.9755115
  94.7112357 110.9631653  42.8362588  96.2219027 110.8853450  42.8971761
 105.8752512 121.7955973  45.4257524 104.9282847 121.6761324  45.3535851
 106.2235285 120.9078471  45.5083786  98.2352085 107.6850112  49.2495766
  98.7586487 107.9312408  50.0122076  98.0164418 108.5170147  48.8298904
  93.6319366 109.9553786  37.1166891  93.3032072 109.0751165  36.9341997
  93.9858737 109.9001455  38.0043280 102.8798945 121.5908689  41.6261877
 102.7323907 120.6625397  41.8069447 103.7052438 121.6128780  41.1418952
  96.7461189 110.2426756  37.4842369  97.0857262 110.7712677  36.7620977
  97.1933310 110.5807162  38.2600935 106.4833067 122.4137248  42.7126749
 107.4079614 122.2080109  42.5751201 106.3148370 122.1653649  43.6216091
  99.4404630 108.6263807  46.9345437  99.1001450 107.8271620  47.3366117
  98.7343636 108.9265518  46.3622270 100.0921102 105.7113119  45.3872760
 100.9147171 105.2373598  45.2651650 100.3359165 106.4903603  45.8871446
  98.7329336 108.7401378  35.6835662  99.4537699 109.1182631  35.1799378
  98.1094640 109.4590255  35.7870640 102.8760459 109.4446527  36.6193994
 103.0924074 110.3271165  36.3182822 102.3954526 109.0532740  35.8899636
  97.6159681 112.4032240  43.1964739  97.4704261 112.7172543  44.0889020
  97.1384884 113.0217140  42.6435637  99.4756063 109.3934788  43.2445628
  99.4617632 108.4975881  42.9077926 100.1928492 109.4005452  43.8783914
 101.3282194 109.8272128  45.2898756 101.0699972 110.7489199  45.2883086
 100.7967234 109.4302563  45.9799220 106.2728383 122.9322915  38.0688841
 106.4465260 122.3669338  37.3162693 106.7657274 123.7323810  37.8868331
  92.0905343 114.9437584  46.1352400  91.5458811 115.7197392  46.2672674
  92.9684693 115.2908389  45.9771521  98.8792959 108.2749168  38.5133198
  99.0008871 107.3465814  38.7124086  98.5895002 108.2887854  37.6011514
 101.7484150 105.9604079  41.6499918 101.7705847 106.0243412  40.6951898
 102.1652209 105.1208587  41.8440424 112.1267774 115.6959338  39.6879141
 112.5698920 114.9466663  39.2898264 111.2494284 115.6869475  39.3052873
 107.2603555 122.2489680  35.1685739 107.9554460 122.8696372  35.3873054
 107.6026706 121.3985031  35.4438117  92.8771365 114.0707481  49.0282557
  92.1353101 114.2190116  49.6147187  92.5564109 114.3315746  48.1649306
 109.1594978 119.6989385  36.6973070 109.6846303 120.0376658  35.9722390
 109.0717331 118.7636401  36.5136205 100.8215027 123.6123459  48.8262947
 101.1302154 123.3672606  49.6985646 101.6190509 123.8170097  48.3381817
 100.8435639 125.7661369  41.0568323 100.4040630 125.2737747  41.7501180
 101.5943756 125.2234336  40.8160398  93.3227978 121.9572909  41.0592951
  94.1485998 121.6576681  40.6791595  92.9722030 121.1880532  41.5082740
  98.2909511 121.3099378  43.1290625  97.6689521 120.6470083  42.8292853
  98.9614378 121.3360509  42.4464273  91.5236583 119.8759236  42.0181885
  90.6868492 119.4481410  41.8365886  91.4960229 120.0691679  42.9552676
  98.3634039 109.7881166  52.7223131  98.4122194 110.6643288  52.3400900
  98.9056553 109.2458559  52.1494774 108.8488885 120.3322289  52.0024268
 108.0584428 120.3146428  51.4628767 108.6122239 120.8710583  52.7573304
 108.9686760 117.1814755  49.3156996 109.0184765 117.0164763  50.2572519
 108.8600683 116.3142014  48.9254877  97.8523018 119.8603301  36.6049085
  98.0011139 120.5438765  35.9515758  98.6589462 119.8408391  37.1198541
 106.2590522 113.1645683  50.6316303 107.1600385 113.0252148  50.3400301
 106.3338497 113.3300138  51.5714481 100.5933327 110.5412538  49.4769489
  99.7236637 110.8346104  49.2052078 100.8292808 111.1252983  50.1976753
 110.4704956 119.6011697  49.5599018 110.1789765 119.9641677  50.3962479
 109.8577088 118.8878705  49.3812350 111.6700639 117.1664577  42.0801588
 112.5047530 117.6054381  42.2439149 111.8059768 116.6903230  41.2609834
 108.7192145 114.7244311  48.0279076 109.1946266 114.9171958  47.2197927
 107.7957710 114.7803497  47.7822460  95.6075651 115.8868479  37.6110154
  95.3621693 114.9830809  37.8090364  95.7771566 115.8885629  36.6689632
 103.2972361 106.7592155  46.9934910 103.8154305 107.4953182  46.6681398
 102.9427494 107.0656148  47.8281669  94.8771299 111.6196836  35.1096316
  94.1840544 111.6941191  34.4536352  94.6323051 110.8557180  35.6317833
 103.5484955 103.1792437  42.5135806 103.8286709 102.5115627  43.1396233
 104.3335562 103.3721533  42.0010470 101.3518424 122.3551431  34.0760833
 100.7792391 122.9741619  33.6231305 101.9251217 122.9050793  34.6100755
 107.4193814 111.6010071  46.2607382 108.3711237 111.7008169  46.2819606
 107.2497264 110.8088340  46.7705466 105.4408193 108.6865655  46.4466783
 104.8458125 108.9670667  45.7513271 105.1557890 109.1759556  47.2183524
 104.5715684 122.6388582  35.2069415 105.5046357 122.5734143  35.4102291
 104.4838896 123.4744848  34.7483948 107.2003700 121.9554452  32.1673363
 107.1217332 121.6214315  33.0609121 108.0213367 122.4476220  32.1664835
 109.8981891 114.8216191  45.3749681 109.8658212 113.8832192  45.5609365
 110.5082515 114.9000228  44.6415506 101.7365222 113.6912244  31.4176885
 102.6824327 113.5618452  31.4865303 101.3579467 112.9526906  31.8946313
 110.0476380 111.6127235  45.4207964 109.5315429 110.8285691  45.2337893
 110.9316328 111.2845951  45.5854484 107.7087107 105.3568250  41.3803777
 107.5111928 105.0483338  42.2647109 108.3186812 106.0829889  41.5101707
 115.7158441 115.8832198  44.5155718 116.4461830 115.6217486  45.0763421
 115.1065387 115.1460920  44.5557786 113.7973738 114.0240061  45.1130169
 113.0706902 113.8896026  44.5046661 113.3821025 114.3316889  45.9186887
 101.6203915 117.7429990  52.8777542 102.5406924 117.9208589  53.0717589
 101.5853498 116.7986036  52.7257242  99.9208139 111.6162221  31.3531770
  99.0139595 111.3195333  31.4294484 100.1984120 111.3192039  30.4866057
  90.8386080 112.9368584  41.8030817  90.5188864 112.0833892  41.5105191
  90.2919508 113.1517162  42.5588784  94.6165987 115.6531025  45.5200323
  94.8351997 116.5848133  45.5388357  95.0291761 115.2938999  46.3055127
 101.5370205 106.1599110  37.5076012 100.7270934 105.8146195  37.8831258
 102.2254622 105.8506654  38.0963623 103.4660753 105.2377157  39.1300308
 104.0191792 105.6572610  39.7890332 103.7030840 104.3112905  39.1723264
  99.4893853 111.2264231  54.9103072  99.3890580 112.1758588  54.8415163
  99.2715395 110.8982470  54.0379142  98.6906924 108.4749156  31.4943750
  99.5526088 108.8004054  31.7539567  98.8757268 107.6880652  30.9816815
  90.7074340 116.5571495  43.7723938  90.0137811 116.1425448  43.2593893
  91.4547331 116.5992032  43.1757357 106.8439561 107.3477682  38.6378973
 106.2638230 108.0062486  38.2557025 106.5775493 106.5255027  38.2266390
 105.2943127 106.7482740  40.8400293 105.7942905 106.8599274  40.0314612
 105.9378735 106.4443793  41.4801101  99.3525123 114.6561370  53.7268134
  98.8692204 115.4561730  53.9332023  99.4386062 114.6669314  52.7735578
  92.6211082 116.4889749  41.6489953  92.5981770 116.5877436  40.6971836
  92.9311719 117.3354900  41.9707119  95.2798460 118.5465904  45.7636568
  96.2341714 118.5149847  45.6966499  95.0810984 118.0856528  46.5786794
  95.8697842 117.1167020  48.3307365  96.6890731 117.6111099  48.3542203
  96.1434650 116.1998988  48.3024933 105.6264439 109.5077773  37.6935321
 104.7390294 109.7927423  37.4755516 106.0418428 109.3471536  36.8462598
 108.9778975 109.5324294  41.4089660 109.7539365 110.0220746  41.6814277
 108.2527109 109.9582348  41.8661530 111.4151533 110.2451913  42.4663601
 112.0096024 110.0047649  41.7556909 111.4878117 109.5259043  43.0937137
  93.6348689 124.0885524  42.7806766  93.5003157 123.3285925  42.2144764
  93.2180751 124.8126424  42.3135555 104.7707652 119.2722447  31.7883341
 105.4743502 119.4772450  32.4040997 104.0470301 119.8399209  32.0532424
 105.6005462 115.0232309  37.9085611 105.5440664 115.4800860  37.0693244
 106.1533805 114.2622993  37.7308454 109.4110268 110.8122040  38.7335731
 109.1547202 110.4118676  39.5643938 108.7863136 111.5265834  38.6085870
 113.7222606 113.5518114  41.2407022 113.1622164 113.6211303  42.0138584
 113.1166109 113.3759098  40.5206518  96.7917815 124.9854841  42.9925208
  96.6750199 125.9300273  42.8903899  95.9710261 124.6828402  43.3811007
 106.6794349 119.7104976  33.8381801 107.5139953 119.2786175  33.6559276
 106.5178692 119.5386990  34.7658695 106.3340242 116.2137090  35.2038140
 106.2789045 116.0481361  34.2626584 105.7086297 116.9213123  35.3600330
  91.1232757 111.4505154  49.0299562  91.7691620 110.9404108  49.5186788
  90.9149908 112.1873836  49.6042988 103.6486149 118.5186002  54.5291703
 104.5177308 118.6926654  54.1678338 103.1692900 119.3380418  54.4067432
  99.6436367 105.7145199  34.7823459  99.6315037 106.6587039  34.9391730
 100.5359789 105.5315344  34.4882920  97.8172329 125.6383103  46.2081137
  98.7199576 125.6706713  46.5247632  97.5909699 124.7083554  46.2227473
  99.5725931 124.3914089  42.8691215  98.6221562 124.3915951  42.7555588
  99.8758417 123.6446824  42.3527250 103.4588487 102.3087975  39.0369395
 102.6920882 101.7546462  39.1826078 103.8699192 102.3809844  39.8983547
  95.4630248 108.5972771  53.1274577  96.3261709 108.2409576  53.3377901
  94.8895658 108.2586666  53.8149981 115.3078625 130.2274628  43.9336978
 115.9457035 130.1081375  43.2300318 115.1899467 131.1755472  43.9924930
 112.1168331 130.1802056  43.8698502 111.7786842 130.0643120  42.9819037
 112.9858099 129.7793221  43.8499509 107.9755147 132.0337532  39.8595393
 107.4120012 131.9427469  39.0911681 107.8607542 131.2137437  40.3397886
 112.5988114 131.3336907  49.8284708 112.5876755 130.9389706  48.9565212
 112.7608753 130.6002980  50.4218479 105.5219578 133.5288724  42.6979614
 106.3140870 133.1879548  42.2825913 105.7616229 133.6383699  43.6181767
 109.3195375 134.1174019  48.7763892 109.0285241 135.0219650  48.6610558
 109.9552359 134.1590547  49.4907961 110.2451582 131.4950868  45.3665252
 110.8415154 131.2706890  44.6522215 110.3026553 130.7535613  45.9690699
 114.8619893 127.9526081  41.0090186 115.6482982 127.5345505  40.6580603
 115.1258597 128.8572174  41.1771834 120.2628320 127.8901315  41.9123164
 120.9953492 127.3200531  42.1460994 119.5067676 127.5022915  42.3529670
 111.8804440 130.3128556  39.1086507 111.5162647 129.7859177  39.8199428
 112.7371556 129.9227025  38.9352992 117.7853741 121.6022889  46.3717773
 117.4537065 122.4718300  46.1478988 117.1899354 121.2859173  47.0511803
 107.7297742 130.2549232  41.8050390 106.8048238 130.1225446  42.0128082
 107.9782155 131.0343451  42.3020332 117.6782404 126.3217975  43.4511123
 116.7699281 126.2533383  43.1569884 117.6270000 126.7989920  44.2792948
 105.0906553 129.8982505  42.6394179 105.2198934 130.1516984  43.5533591
 104.4104004 130.4910213  42.3198834 111.7523270 127.7407620  51.3946020
 110.9756604 128.3001541  51.3848885 112.3913833 128.2264403  51.9160890
 119.5444050 124.5234413  45.2288997 118.9018430 124.8166946  44.5828791
 119.0398979 124.4087334  46.0342194 110.0069642 130.5493074  50.9563987
 110.7484326 131.0878118  50.6798811 109.3006627 131.1759363  51.1135539
 115.4824982 132.6922214  49.5536149 115.8908338 132.2504625  48.8090781
 114.7602243 132.1174842  49.8070342 111.8356052 127.6294821  46.9269706
 112.6817247 128.0534235  47.0704355 111.7754689 126.9728445  47.6208269
 114.9855497 125.2899189  48.5850879 114.7416429 126.0441250  48.0485155
 115.2615427 125.6684537  49.4198126 114.5420189 124.4455622  44.1664717
 113.6804668 124.7436876  44.4581455 114.5682623 124.6626021  43.2345750
 111.3581758 132.9897813  40.5738523 111.8220104 133.2685516  39.7843145
 111.0938556 132.0881258  40.3911613 108.2505839 132.5369295  43.5118286
 108.8207196 132.9656563  42.8735770 108.8413951 132.2551879  44.2102472
 110.2950644 129.1120965  37.3828088 110.9974687 129.5642009  37.8502014
 109.9631273 128.4704784  38.0107981 108.7431006 127.7032722  51.7579297
 108.1129666 128.3849003  51.9914694 108.6367094 127.5915804  50.8132435
 104.0375978 127.3704518  42.6845221 103.2475032 127.6262047  42.2085332
 104.5287225 128.1852856  42.7897262 105.9890723 127.7349097  39.6428698
 105.1921887 127.8467792  40.1612194 105.7616316 128.0735750  38.7769589
 111.8196391 134.2593801  47.5911213 111.8840824 134.7214208  48.4269385
 111.1107315 133.6291165  47.7193523 102.3213681 127.6235009  45.1160212
 102.5721720 128.5082018  45.3817788 102.8573229 127.4439610  44.3435304
 108.0211748 122.0053488  54.1204548 107.6278694 121.4519686  54.7952193
 108.8377889 122.3164066  54.5111066 104.9873806 133.4437346  38.0318118
 105.4998327 134.2380596  38.1823683 105.6396519 132.7463637  37.9651720
 110.9379709 123.4211367  51.7124805 111.6789423 124.0218520  51.6329267
 111.1697632 122.6789005  51.1542847 106.0821047 128.6067734  49.9903035
 105.9674563 127.7052991  50.2910133 105.2265565 128.8531431  49.6387851
 107.9200006 138.0781276  46.1151214 108.4707431 137.9498339  45.3428208
 107.0811482 138.3776165  45.7646106 111.7167177 134.3432404  50.4595445
 112.2495514 133.5820692  50.2294753 111.1881258 134.0506056  51.2019599
 114.8836872 119.4492470  45.9889087 114.5401142 120.3394112  45.9128197
 115.2515835 119.2594128  45.1258672 102.9522723 131.7726000  38.8077689
 103.7897945 132.1823009  38.5911396 103.1300991 130.8325443  38.7777883
 112.4334266 124.2850782  39.5546760 111.5775862 123.8957632  39.3752399
 112.8461218 124.3642743  38.6946546 113.9633413 121.8197125  43.9538320
 113.4598208 121.7827260  43.1406125 114.2564020 122.7289868  44.0134976
 110.2076299 121.9035855  42.9604501 111.0729295 121.7078663  42.6010391
 110.2753808 121.6746207  43.8873858 107.8138618 124.1338063  40.3320868
 108.3882370 123.9113244  39.5994061 108.4009600 124.2026757  41.0849470
 116.8718195 130.0211790  41.1385245 117.3850077 130.6541781  41.6406955
 117.5219419 129.4212985  40.7728605 110.1161285 121.0079312  39.0595938
 109.4625698 120.6928329  38.4352553 110.0741760 120.3855052  39.7855761
 113.3499026 127.4961245  43.3843585 112.4321587 127.7176192  43.2265273
 113.7659169 127.5707556  42.5255293 116.5812911 125.9309777  40.4965055
 115.8435667 125.4187163  40.8275297 116.8339684 125.4910159  39.6848332
 116.6824538 118.7086029  41.0906824 116.9883415 117.8483393  40.8032739
 117.4077143 119.3003649  40.8905818 102.9748894 129.1116716  39.4788422
 102.7773294 128.5186076  38.7539489 102.4195558 128.8068926  40.1964361
 110.9545618 129.0039822  41.5983015 111.0094228 128.0513659  41.5225492
 110.1436820 129.1599261  42.0824314 108.8937978 127.6216882  39.3573394
 108.0805843 127.9211052  39.7638586 109.3896972 127.2272571  40.0747876
 114.4912189 128.0858706  48.1888288 114.8461577 128.3130180  49.0482754
 115.1384321 128.4177083  47.5665543 108.3852052 125.1935237  44.9734629
 109.0251432 125.0523997  44.2757592 107.5529583 124.9069751  44.5973231
 109.1612356 134.4937668  41.0869622 109.9552955 133.9987988  40.8852196
 108.4504049 133.9655531  40.7237327 105.4695120 128.6380750  37.1629374
 104.5392708 128.5765205  37.3799336 105.5652592 128.1156702  36.3666015
 105.3880669 125.1635562  39.7507616 105.6487486 126.0780896  39.6416776
 106.2097841 124.6960005  39.9004229 106.8605594 126.5773320  46.9206440
 107.5328648 126.3690682  46.2719089 106.0335381 126.3795406  46.4811673
 112.7631166 123.2035261  48.9372101 112.1159081 123.9025210  48.8436578
 113.5332182 123.6371404  49.3048349 112.9395301 131.0416025  46.9968921
 113.8687361 131.1927185  46.8237888 112.5186331 131.1300046  46.1417568
 111.7383632 135.0666690  44.7667459 111.5994718 134.6985474  45.6393397
 110.9498229 135.5814329  44.5951416 113.2888847 134.4448293  42.1556296
 112.9538680 134.4049062  43.0513946 112.7892793 133.7793008  41.6826707
 107.2633091 129.8515923  47.6808878 107.1252889 129.1196161  48.2820417
 108.1738015 129.7624823  47.3993065 109.8915392 129.5635882  47.1692557
 110.6015011 128.9229074  47.1279176 109.8484700 129.8148777  48.0918738
 108.6044326 126.5501100  48.9888197 108.0681683 126.0991838  49.6409793
 108.0161035 126.6847009  48.2458661  99.5348725 130.7966911  41.6456167
 100.2219765 130.4828641  41.0577183  99.3796854 131.7008276  41.3723419
 104.3383447 125.6857107  46.0741191 104.2541636 125.0782777  45.3391601
 103.5166154 126.1766126  46.0750688 114.5107161 124.1710671  41.4411386
 115.0075861 123.4180633  41.1212456 113.7394143 124.2074988  40.8754596
 111.0942130 126.3128054  41.1683071 110.7239917 125.7599094  41.8563976
 111.5901222 125.7086187  40.6158071 116.9526156 121.1380264  43.5890745
 116.0389236 121.3684491  43.7572952 117.3819257 121.2218709  44.4404777
 116.7232614 129.3270156  46.0890639 116.0704065 129.5746064  45.4343092
 117.1012994 128.5134295  45.7553116 112.7720187 130.0689968  52.5756676
 112.0960824 129.9684097  53.2459051 113.5947821 129.9129181  53.0392673
 104.5199047 136.3061904  45.1969191 105.1052483 135.5605592  45.3297096
 104.3223885 136.6165861  46.0805855  99.1116701 128.8767504  43.9173635
  99.1500801 128.3431095  44.7110753  98.6056994 128.3502710  43.2984612
 106.4907464 123.7232045  47.4136177 106.5548790 124.5846876  47.0013575
 106.4274584 123.1106046  46.6808535 105.9659736 125.7955177  51.0609211
 106.5931775 125.4132255  51.6746736 105.1087655 125.5769379  51.4264904
 102.7425279 127.6031606  36.9927566 103.0378720 126.6942285  36.9394620
 101.8413315 127.5819346  36.6708568 106.2719526 125.6787603  42.9755115
 105.5506112 126.2923571  42.8362588 107.0612782 126.2145368  42.8971761
 109.0745839 123.0142029  49.2495766 109.5980241 123.2604326  50.0122076
 108.8558173 123.8462064  48.8298904 104.4713120 125.2845704  37.1166891
 104.1425827 124.4043083  36.9341997 104.8252491 125.2293373  38.0043280
 107.5854944 125.5718674  37.4842369 107.9251016 126.1004595  36.7620977
 108.0327064 125.9099080  38.2600935 110.2798384 123.9555725  46.9345437
 109.9395205 123.1563538  47.3366117 109.5737391 124.2557435  46.3622270
 110.9314856 121.0405037  45.3872760 111.7540926 120.5665515  45.2651650
 111.1752920 121.8195521  45.8871446 109.5723091 124.0693295  35.6835662
 110.2931453 124.4474548  35.1799378 108.9488395 124.7882172  35.7870640
 113.7154214 124.7738444  36.6193994 113.9317828 125.6563082  36.3182822
 113.2348281 124.3824658  35.8899636 108.4553435 127.7324158  43.1964739
 108.3098016 128.0464461  44.0889020 107.9778639 128.3509058  42.6435637
 110.3149818 124.7226706  43.2445628 110.3011387 123.8267799  42.9077926
 111.0322246 124.7297369  43.8783914 112.1675949 125.1564046  45.2898756
 111.9093726 126.0781116  45.2883086 111.6360989 124.7594480  45.9799220
 102.9299097 130.2729502  46.1352400 102.3852565 131.0489310  46.2672674
 103.8078447 130.6200307  45.9771521 109.7186714 123.6041086  38.5133198
 109.8402625 122.6757732  38.7124086 109.4288756 123.6179772  37.6011514
 112.5877904 121.2895996  41.6499918 112.6099601 121.3535329  40.6951898
 113.0045963 120.4500505  41.8440424 103.7165119 129.3999398  49.0282557
 102.9746855 129.5482034  49.6147187 103.3957863 129.6607664  48.1649306
 104.1621733 137.2864827  41.0592951 104.9879753 136.9868599  40.6791595
 103.8115785 136.5172449  41.5082740 109.1303266 136.6391295  43.1290625
 108.5083275 135.9762000  42.8292853 109.8008133 136.6652427  42.4464273
 102.3630338 135.2051153  42.0181885 101.5262246 134.7773328  41.8365886
 102.3353983 135.3983597  42.9552676 109.2027793 125.1173083  52.7223131
 109.2515949 125.9935206  52.3400900 109.7450308 124.5750476  52.1494774
 117.0984276 128.4937601  50.6316303 117.9994139 128.3544066  50.3400301
 117.1732251 128.6592056  51.5714481 111.4327082 125.8704456  49.4769489
 110.5630391 126.1638022  49.2052078 111.6686562 126.4544901  50.1976753
 106.4469406 131.2160396  37.6110154 106.2015448 130.3122726  37.8090364
 106.6165320 131.2177547  36.6689632 114.1366116 122.0884073  46.9934910
 114.6548060 122.8245100  46.6681398 113.7821248 122.3948066  47.8281669
 105.7165053 126.9488754  35.1096316 105.0234298 127.0233109  34.4536352
 105.4716805 126.1849097  35.6317833 114.3878710 118.5084355  42.5135806
 114.6680464 117.8407544  43.1396233 115.1729317 118.7013451  42.0010470
 118.2587568 126.9301989  46.2607382 119.2104991 127.0300087  46.2819606
 118.0891019 126.1380258  46.7705466 116.2801948 124.0157572  46.4466783
 115.6851880 124.2962585  45.7513271 115.9951644 124.5051473  47.2183524
 120.8870134 126.9419152  45.4207964 120.3709183 126.1577609  45.2337893
 121.7710083 126.6137869  45.5854484 118.5480861 120.6860168  41.3803777
 118.3505682 120.3775256  42.2647109 119.1580567 121.4121807  41.5101707
 112.4597669 133.0721908  52.8777542 113.3800679 133.2500507  53.0717589
 112.4247252 132.1277953  52.7257242 101.6779834 128.2660502  41.8030817
 101.3582619 127.4125810  41.5105191 101.1313263 128.4809080  42.5588784
 105.4559742 130.9822943  45.5200323 105.6745752 131.9140050  45.5388357
 105.8685516 130.6230917  46.3055127 112.3763960 121.4891028  37.5076012
 111.5664688 121.1438113  37.8831258 113.0648377 121.1798572  38.0963623
 114.3054508 120.5669075  39.1300308 114.8585547 120.9864528  39.7890332
 114.5424594 119.6404823  39.1723264 110.3287607 126.5556148  54.9103072
 110.2284334 127.5050505  54.8415163 110.1109149 126.2274387  54.0379142
 101.5468094 131.8863413  43.7723938 100.8531566 131.4717366  43.2593893
 102.2941085 131.9283950  43.1757357 117.6833315 122.6769600  38.6378973
 117.1031984 123.3354404  38.2557025 117.4169248 121.8546944  38.2266390
 116.1336881 122.0774658  40.8400293 116.6336660 122.1891192  40.0314612
 116.7772489 121.7735710  41.4801101 110.1918877 129.9853287  53.7268134
 109.7085959 130.7853647  53.9332023 110.2779816 129.9961232  52.7735578
 103.4604837 131.8181667  41.6489953 103.4375525 131.9169354  40.6971836
 103.7705473 132.6646818  41.9707119 106.1192215 133.8757822  45.7636568
 107.0735468 133.8441764  45.6966499 105.9204738 133.4148446  46.5786794
 106.7091597 132.4458938  48.3307365 107.5284486 132.9403017  48.3542203
 106.9828405 131.5290906  48.3024933 116.4658193 124.8369690  37.6935321
 115.5784048 125.1219341  37.4755516 116.8812182 124.6763454  36.8462598
 119.8172729 124.8616211  41.4089660 120.5933119 125.3512664  41.6814277
 119.0920863 125.2874265  41.8661530 122.2545288 125.5743830  42.4663601
 122.8489779 125.3339566  41.7556909 122.3271872 124.8550961  43.0937137
 104.4742444 139.4177441  42.7806766 104.3396911 138.6577842  42.2144764
 104.0574506 140.1418341  42.3135555 101.9626511 126.7797072  49.0299562
 102.6085375 126.2696026  49.5186788 101.7543662 127.5165753  49.6042988
 110.4830122 121.0437116  34.7823459 110.4708791 121.9878956  34.9391730
 111.3753543 120.8607262  34.4882920 114.2982241 117.6379893  39.0369395
 113.5314637 117.0838380  39.1826078 114.7092946 117.7101762  39.8983547
 106.3024002 123.9264689  53.1274577 107.1655464 123.5701494  53.3377901
 105.7289413 123.5878584  53.8149981  37.2856605   6.2504173  38.3135842
  36.8420459   5.4640552  37.9956746  37.9473819   6.4383324  37.6479733
  39.3837843   6.5306973  36.3417243  39.3656318   7.3515854  35.8497512
  40.3057763   6.4061049  36.5667384  35.8410897   4.0451103  37.1840751
  36.3739234   3.2839391  36.9540059  35.3124978   3.7524755  37.9264906
  45.2338575   3.0196069  33.1627081  45.4274465   3.9241879  33.4086356
  45.1339193   2.5603488  33.9965666  40.2953684   3.1702812  38.7367961
  40.1439190   2.9413363  37.8198045  40.2858363   4.1273413  38.7499306
  42.0045891   6.2021934  36.8144443  41.9458437   5.5181154  36.1475026
  42.4065409   6.9440924  36.3625069  42.0063298   4.1661518  35.0458423
  41.1190077   3.8287440  35.1684822  42.5761849   3.4344549  35.2827188
  37.9963135   8.7249804  34.1677825  38.7091107   9.3597269  34.0953726
  37.5053163   8.8213670  33.3517826  36.8963907  -0.2291334  39.3001983
  36.2204544  -0.3297204  39.9704358  37.7191541  -0.3852120  39.7637980
  35.6386690  11.0775594  33.5359599  36.1904998  11.2407215  34.3008684
  35.9792884  11.6680032  32.8639624  40.4897565   5.9036851  39.3908253
  41.0337468   6.5166810  38.8963208  39.9084409   6.4616430  39.9075266
  35.7852502   8.6434075  35.5508253  36.0939628   8.3983222  36.4230953
  36.5827984   8.8480714  35.0627123  43.8126359   5.3632905  38.7269575
  43.0221903   5.3457044  38.1874074  43.5759713   5.9021199  39.4818611
  43.9324234   2.2125372  36.0402303  43.9822239   2.0475379  36.9817826
  43.8238157   1.3452631  35.6500184  41.2227996  -1.8043700  37.3561610
  42.1237859  -1.9437235  37.0645608  41.2975971  -1.6389245  38.2959787
  45.4342431   4.6322313  36.2844325  45.1427239   4.9952294  37.1207786
  44.8214562   3.9189322  36.1057657  36.5841389   2.7740607  39.6022849
  37.5044399   2.9519206  39.7962895  36.5490972   1.8296652  39.4502548
  34.3162597  -0.3128014  40.4513441  33.8329679   0.4872346  40.6577330
  34.4023536  -0.3020069  39.4980885  38.6123623   3.5496618  41.2537010
  39.4814783   3.7237270  40.8923645  38.1330375   4.3691035  41.1312739
  50.2716099  15.2585244  30.6582284  50.9094509  15.1391991  29.9545624
  50.1536942  16.2066088  30.7170237  47.0805805  15.2112672  30.5943809
  46.7424317  15.0953737  29.7064344  47.9495573  14.8103837  30.5744815
  47.5625588  16.3647524  36.5530015  47.5514229  15.9700322  35.6810518
  47.7246228  15.6313597  37.1463786  40.4857053  18.5599340  29.4224920
  41.2778345  18.2190165  29.0071220  40.7253703  18.6694315  30.3427074
  48.5192180  20.7319116  21.8955165  47.8680159  21.3173197  21.5089179
  49.3136542  21.2625311  21.9550202  44.2832849  19.1484636  35.5009199
  43.9922715  20.0530267  35.3855865  44.9189834  19.1901163  36.2153268
  45.2089056  16.5261484  32.0910558  45.8052628  16.3017507  31.3767521
  45.2664028  15.7846230  32.6936006  49.8257367  12.9836698  27.7335492
  50.6120457  12.5656121  27.3825909  50.0896072  13.8882790  27.9017141
  55.2265794  12.9211931  28.6368471  55.9590966  12.3511148  28.8706300
  54.4705150  12.5333532  29.0774977  46.8441914  15.3439173  25.8331813
  46.4800121  14.8169794  26.5444735  47.7009030  14.9537642  25.6598299
  52.7491215   6.6333505  33.0963080  52.4174540   7.5028916  32.8724295
  52.1536828   6.3169789  33.7757110  49.2422734  18.8346051  32.4958992
  48.9423457  19.7371090  32.3874799  48.8973794  18.5678234  33.3480145
  42.6935216  15.2859848  28.5295697  41.7685712  15.1536062  28.7373388
  42.9419629  16.0654067  29.0265639  52.6419878  11.3528591  30.1756430
  51.7336756  11.2844000  29.8815191  52.5907474  11.8300536  31.0038255
  40.0544027  14.9293122  29.3639486  40.1836408  15.1827601  30.2778897
  39.3741478  15.5220830  29.0444141  44.2243514  25.5990372  25.4629960
  44.1467544  26.5498197  25.5418441  43.6205158  25.2536244  26.1204886
  46.7160744  12.7718237  38.1191327  45.9394078  13.3312157  38.1094191
  47.3551307  13.2575020  38.6406197  54.5081525   9.5545030  31.9534304
  53.8655905   9.8477563  31.3074098  54.0036453   9.4397950  32.7587500
  44.9707116  15.5803690  37.6809294  45.7121801  16.1188734  37.4044117
  44.2644102  16.2069979  37.8380846  50.4462456  17.7232831  36.2781455
  50.8545812  17.2815241  35.5336088  49.7239717  17.1485458  36.5315648
  46.7993526  12.6605438  33.6515012  47.6454721  13.0844851  33.7949661
  46.7392164  12.0039062  34.3453575  50.7691271  18.2834021  30.0333744
  50.1400133  18.4479736  29.3309812  50.3816933  18.6975631  30.8044708
  54.6480502  19.2188459  27.3878108  53.9631541  19.5987361  26.8375141
  54.7324352  19.8283786  28.1210056  49.9492971  10.3209806  35.3096186
  49.7053903  11.0751867  34.7730462  50.2252902  10.6995154  36.1443433
  51.9031434  16.8648418  33.9873452  52.1148329  17.5080178  33.3107833
  51.8561182  16.0310735  33.5195382  49.5057663   9.4766239  30.8910024
  48.6442142   9.7747493  31.1826761  49.5320098   9.6936638  29.9591056
  46.3219232  18.0208430  27.2983829  46.7857578  18.2996133  26.5088452
  46.0576031  17.1191874  27.1156920  43.2143313  17.5679911  30.2363593
  43.7844671  17.9967179  29.5981077  43.8051425  17.2862496  30.9347778
  43.7068480  12.7343339  38.4824604  43.0767141  13.4159619  38.7160001
  43.6004568  12.6226420  37.5377742  53.0177262  19.7420374  32.1595809
  53.8394706  19.3400561  31.8778490  53.0139665  19.6388608  33.1111925
  46.7833865  19.2904417  34.3156519  46.8478298  19.7524824  35.1514691
  46.0744789  18.6601782  34.4438829  37.2851155  12.6545625  31.8405519
  37.5359194  13.5392635  32.1063095  37.8210704  12.4750227  31.0680611
  61.1083255  16.0859122  28.5080780  60.3546963  15.5166520  28.3524785
  61.2430796  16.0521787  29.4551415  46.4981883  20.9572525  24.1835500
  46.3627558  21.8024060  24.6120347  47.0391696  21.1591802  23.4201433
  42.9849223   7.0364104  40.8449855  42.5916168   6.4830303  41.5197499
  43.8015363   7.3474683  41.2356372  41.7606165  21.5913719  26.8386178
  41.9372794  22.5131684  26.6507162  42.5562999  21.2772138  27.2680558
  45.9017184   8.4521984  38.4370111  46.6426897   9.0529137  38.3574574
  46.1335107   7.7099621  37.8788154  41.0458522  13.6378351  36.7148341
  40.9312037  12.7363608  37.0155440  40.1903039  13.8842048  36.3633158
  48.1250359  21.5796091  38.3135842  47.6814214  20.7932470  37.9956746
  48.7867573  21.7675242  37.6479733  42.8837481  23.1091893  32.8396520
  43.4344906  22.9808956  32.0673514  42.0448957  23.4086782  32.4891413
  50.2231598  21.8598891  36.3417243  50.2050073  22.6807772  35.8497512
  51.1451518  21.7352966  36.5667384  46.6804652  19.3743020  37.1840751
  47.2132988  18.6131309  36.9540059  46.1518733  19.0816672  37.9264906
  49.8474347   4.4803086  32.7134393  49.5038616   5.3704728  32.6373504
  50.2153309   4.2904744  31.8503978  48.9270887   6.8507742  30.6783626
  48.4235683   6.8137877  29.8651432  49.2201494   7.7600484  30.7380283
  54.7858904  17.2244052  23.1560002  54.0088346  16.8855212  22.7115164
  55.4650384  17.2296675  22.4814967  48.0457364  18.5029013  24.6959563
  47.5178726  17.7681773  24.3832801  47.5444867  19.2803689  24.4499532
  53.0250210  16.6978033  29.8126610  52.3673885  17.3877295  29.9006738
  53.8290610  17.0874465  30.1560596  51.8355669  15.0522406  27.8630551
  52.3487551  15.6852398  28.3652261  52.4856893  14.4523602  27.4973911
  49.0978043  25.0306730  20.6191223  48.4239742  25.3338427  21.2276180
  49.4843865  25.8335811  20.2696680  48.3136500  12.5271862  30.1088892
  47.3959061  12.7486809  29.9510580  48.7296644  12.6018172  29.2500599
  49.0971548  13.9263277  25.2391572  49.8443367  14.4384675  24.9298694
  49.3663137  13.6047330  26.0995966  52.6017465  20.0328408  25.9909694
  52.1479793  19.1919317  26.0474885  51.9711432  20.6689806  26.3284474
  51.5450385  10.9620394  27.2210362  50.8073142  10.4497780  27.5520604
  51.7977159  10.5220775  26.4093638  51.0450405  21.8704904  26.9259512
  51.3373379  22.4309961  26.2071878  51.5549025  22.1633465  27.6812671
  45.9183092  14.0350439  28.3228322  45.9731702  13.0824275  28.2470798
  45.1074294  14.1909878  28.8069620  46.0084030  22.6485255  28.0152965
  45.9660209  22.8746102  27.0861497  46.9246729  22.4148630  28.1638767
  49.4549664  13.1169323  34.9133595  49.8099051  13.3440796  35.7728060
  50.1021795  13.4487700  34.2910850  55.1847401  16.2387759  25.6182924
  55.0465299  16.4289355  24.6904113  54.8283619  17.0007142  26.0750975
  43.3489527  10.2245854  31.6979936  43.9888906  10.0834613  31.0002899
  42.5167057   9.9380367  31.3218538  55.2116780  18.3064286  30.6294195
  55.6453287  18.2139575  31.4777249  55.9248361  18.2821786  29.9914211
  44.1249831  19.5248284  27.8114928  44.9190429  19.0298605  27.6097503
  43.4141523  18.9966148  27.4482634  48.9444675  21.9066380  32.1627296
  48.9981697  22.4757316  32.9305012  48.0759456  22.0768265  31.7981333
  41.8243068  11.6083936  33.6451747  42.4966122  11.4001298  32.9964396
  40.9972855  11.4106022  33.2056979  56.0732330  18.3487986  33.1627081
  56.2668220  19.2533797  33.4086356  55.9732948  17.8895406  33.9965666
  47.7268640   8.2345877  35.6617408  47.0796556   8.9335827  35.5681884
  48.4969656   8.6682021  36.0293656  51.1347438  18.4994729  38.7367961
  50.9832945  18.2705281  37.8198045  51.1252118  19.4565331  38.7499306
  47.9032775  16.0726642  33.7214228  48.8324835  16.2237802  33.5483195
  47.4823805  16.1610663  32.8662874  46.7021107  20.0977306  31.4912765
  46.5632192  19.7296091  32.3638703  45.9135703  20.6124946  31.3196723
  47.2969259  25.1986403  22.8338302  47.4721014  24.7274446  23.6483924
  46.6102047  25.8252169  23.0619563  48.2526322  19.4758909  28.8801603
  47.9176154  19.4359679  29.7759253  47.7530267  18.8103625  28.4072013
  42.2270566  14.8826539  34.4054184  42.0890364  14.1506778  35.0065723
  43.1375489  14.7935439  34.1238372  44.8552866  14.5946498  33.8937864
  45.5652485  13.9539691  33.8524482  44.8122175  14.8459393  34.8164045
  52.8439645  21.5313852  36.8144443  52.7852191  20.8473072  36.1475026
  53.2459163  22.2732842  36.3625069  43.5681800  11.5811716  35.7133503
  43.0319157  11.1302455  36.3655100  42.9798509  11.7157625  34.9703968
  41.8630344  28.3475766  29.6078162  42.1026942  28.9794290  30.2857181
  41.0199540  27.9963806  29.8943521  52.8457052  19.4953436  35.0458423
  51.9583831  19.1579357  35.1684822  53.4155603  18.7636467  35.2827188
  39.3020922  10.7167724  32.7986498  39.2179110  10.1093394  32.0636908
  38.4803628  11.2076742  32.7995994  46.3758206  24.1554888  32.0119666
  46.3028377  24.9609860  32.5238971  45.9335599  24.3546854  31.1867687
  46.1647985  23.3926658  25.5222487  45.3815507  23.9348338  25.6160712
  46.8640731  23.9100638  25.9216729  57.3274393  14.9061653  29.8074984
  57.3164269  15.7886368  29.4368917  56.4591772  14.5533204  29.6129521
  48.8356889  24.0541722  34.1677825  49.5484861  24.6889187  34.0953726
  48.3446918  24.1505588  33.3517826  50.5574416  17.9592975  25.7395116
  49.6230695  18.0794437  25.5699821  50.7351085  17.0565442  25.4755126
  53.9446968  13.8010294  26.2745150  54.4107420  14.6338286  26.2005453
  54.3954468  13.3355276  26.9790409  43.8868803  21.8036166  34.9883395
  44.5878262  22.4372649  35.1412790  43.4163918  22.1450897  34.2279035
  52.0123199  20.1454115  23.2731302  52.2883043  20.0310710  24.1825177
  51.1427697  19.7471600  23.2343476  51.9163630   6.1690881  30.3136052
  51.0026710   6.3995108  30.4818259  52.3456732   6.2529325  31.1650084
  51.6870089  14.3580773  32.8135946  51.0341539  14.6056680  32.1588399
  52.0650469  13.5444911  32.4798423  48.6477263  24.3940466  26.9164116
  48.8299657  23.5762122  27.3791868  49.4710249  24.6108158  26.4789006
  48.9819428  23.3208651  24.1779165  49.5107195  22.8101106  23.5649327
  49.2447648  23.0051182  25.0424698  47.7357662  15.1000584  39.3001983
  47.0598299  14.9994713  39.9704358  48.5585296  14.9439798  39.7637980
  39.4836521  21.3372521  31.9214498  40.0689958  20.5916208  32.0542402
  39.2861359  21.6476477  32.8051162  42.3375176  24.3723768  26.9376940
  41.6685551  24.8569896  26.4540981  42.1988046  24.6192988  27.8520319
  46.4780445  26.4067512  33.5359599  47.0298753  26.5699133  34.3008684
  46.8186638  26.9971949  32.8639624  41.4544938   8.7542661  34.1381484
  41.5186264   9.6157492  33.7258881  41.3912058   8.1416663  33.4053842
  40.9297210  10.8265794  37.7854518  41.5569249  10.4442871  38.3992042
  40.0725129  10.6079996  38.1510210  51.3291319  21.2328769  39.3908253
  51.8731223  21.8458727  38.8963208  50.7478164  21.7908347  39.9075266
  49.6148832  24.3549487  30.5223281  49.4899971  23.5539227  30.0134227
  50.2727923  24.8495680  30.0337251  51.6783740  22.1558507  32.1502831
  50.7314076  22.0363858  32.0781158  52.0266513  21.2681005  32.2329093
  44.0383314   8.0452646  35.9741073  44.5617716   8.2914943  36.7367382
  43.8195647   8.8772681  35.5544210  48.6830174  21.9511223  28.3507183
  48.5355136  21.0227931  28.5314753  49.5083667  21.9731314  27.8664259
  52.2864295  22.7739782  29.4372056  53.2110843  22.5682643  29.2996507
  52.1179599  22.5256183  30.3461398  45.2435859   8.9866341  33.6590744
  44.9032679   8.1874154  34.0611423  44.5374865   9.2868052  33.0867577
  45.8952331   6.0715654  32.1118067  46.7178400   5.5976132  31.9896957
  46.1390394   6.8506137  32.6116753  43.4190909  12.7634774  29.9210045
  43.2735490  13.0775077  30.8134327  42.9416113  13.3819675  29.3680944
  45.2787292   9.7537322  29.9690935  45.2648861   8.8578415  29.6323233
  45.9959720   9.7607986  30.6029221  47.1313423  10.1874662  32.0144062
  46.8731201  11.1091733  32.0128393  46.5998463   9.7905097  32.7044526
  52.0759612  23.2925450  24.7934148  52.2496489  22.7271872  24.0408000
  52.5688503  24.0926344  24.6113637  37.8936571  15.3040119  32.8597706
  37.3490040  16.0799927  32.9917981  38.7715921  15.6510923  32.7016828
  57.9299003  16.0561872  26.4124447  58.3730149  15.3069198  26.0143571
  57.0525513  16.0472009  26.0298179  53.0634784  22.6092214  21.8931046
  53.7585689  23.2298907  22.1118360  53.4057934  21.7587565  22.1683424
  38.6802593  14.4310015  35.7527863  37.9384329  14.5792650  36.3392494
  38.3595338  14.6918280  34.8894613  54.9626207  20.0591919  23.4218377
  55.4877531  20.3979192  22.6967697  54.8748560  19.1238935  23.2381511
  46.6246256  23.9725993  35.5508253  46.9333382  23.7275140  36.4230953
  47.4221738  24.1772632  35.0627123  46.6466868  26.1263903  27.7813630
  46.2071858  25.6340281  28.4746486  47.3974985  25.5836870  27.5405705
  39.1259207  22.3175444  27.7838258  39.9517227  22.0179215  27.4036901
  38.7753259  21.5483066  28.2328047  44.0940740  21.6701912  29.8535931
  43.4720749  21.0072617  29.5538159  44.7645607  21.6963044  29.1709579
  37.3267812  20.2361770  28.7427191  36.4899720  19.8083944  28.5611193
  37.2991458  20.4294213  29.6797983  44.1665268  10.1483700  39.4468437
  44.2153423  11.0245823  39.0646207  44.7087782   9.6061093  38.8740081
  54.6520113  20.6924823  38.7269575  53.8615657  20.6748962  38.1874074
  54.4153468  21.2313117  39.4818611  54.7717988  17.5417289  36.0402303
  54.8215993  17.3767297  36.9817826  54.6631912  16.6744548  35.6500184
  52.0621751  13.5248217  37.3561610  52.9631614  13.3854682  37.0645608
  52.1369725  13.6902672  38.2959787  46.3964556  10.9015072  36.2014796
  45.5267866  11.1948638  35.9297385  46.6324036  11.4855517  36.9222060
  56.2736185  19.9614231  36.2844325  55.9820994  20.3244212  37.1207786
  55.6608317  19.2481239  36.1057657  57.4731868  17.5267111  28.8046895
  58.3078759  17.9656915  28.9684455  57.6090996  17.0505764  27.9855141
  54.5223373  15.0846846  34.7524383  54.9977495  15.2774492  33.9443234
  53.5988939  15.1406031  34.5067766  49.1003590   7.1194689  33.7180217
  49.6185534   7.8555716  33.3926705  48.7458723   7.4258682  34.5526976
  53.2225042  11.9612606  32.9852688  54.1742465  12.0610703  33.0064912
  53.0528493  11.1690874  33.4950773  51.2439422   9.0468189  33.1712089
  50.6489354   9.3273202  32.4758578  50.9589119   9.5362090  33.9428830
  50.3746912  22.9991116  21.9314722  51.3077586  22.9336677  22.1347597
  50.2870125  23.8347383  21.4729254  53.0034929  22.3156986  18.8918669
  52.9248561  21.9816850  19.7854427  53.8244596  22.8078754  18.8910142
  55.7013120  15.1818725  32.0994988  55.6689440  14.2434726  32.2854672
  56.3113744  15.2602762  31.3660813  55.8507609  11.9729769  32.1453271
  55.3346657  11.1888225  31.9583200  56.7347557  11.6448485  32.3099791
  53.5118336   5.7170784  28.1049084  53.3143157   5.4085873  28.9892416
  54.1218041   6.4432423  28.2347014  61.5189670  16.2434732  31.2401025
  62.2493059  15.9820020  31.8008728  60.9096616  15.5063454  31.2803093
  59.6004967  14.3842595  31.8375476  58.8738131  14.2498560  31.2291967
  59.1852254  14.6919423  32.6432194  47.4235144  18.1032524  39.6022849
  48.3438153  18.2811123  39.7962895  47.3884727  17.1588570  39.4502548
  40.4197216  16.0133559  32.2445630  40.6383226  16.9450667  32.2633664
  40.8322990  15.6541534  33.0300434  45.2925082  11.5866765  41.6348379
  45.1921808  12.5361122  41.5660470  45.0746624  11.2585004  40.7624449
  36.5105569  16.9174030  30.4969245  35.8169040  16.5027982  29.9839200
  37.2578560  16.9594566  29.9002664  45.1556352  15.0163904  40.4513441
  44.6723433  15.8164264  40.6577330  45.2417291  15.0271849  39.4980885
  41.0829689  18.9068438  32.4881874  42.0372943  18.8752381  32.4211806
  40.8842213  18.4459062  33.3032100  41.6729071  17.4769554  35.0552672
  42.4921960  17.9713633  35.0787509  41.9465879  16.5601523  35.0270240
  54.7810204   9.8926828  28.1334967  55.5570594  10.3823280  28.4059584
  54.0558338  10.3184882  28.5906836  57.2182762  10.6054447  29.1908907
  57.8127253  10.3650183  28.4802216  57.2909346   9.8861578  29.8182444
  39.4379918  24.4488058  29.5052072  39.3034386  23.6888459  28.9390070
  39.0211980  25.1728958  29.0380861  51.4036691  15.3834843  24.6330918
  51.3471893  15.8403394  23.7938550  51.9565034  14.6225527  24.4553761
  55.2141497  11.1724575  25.4581037  54.9578431  10.7721210  26.2889245
  54.5894365  11.8868369  25.3331176  59.5253835  13.9120648  27.9652329
  58.9653393  13.9813837  28.7383891  58.9197338  13.7361632  27.2451825
  42.5949044  25.3457375  29.7170515  42.4781428  26.2902807  29.6149205
  41.7741490  25.0430937  30.1056314  52.4825578  20.0707511  20.5627108
  53.3171182  19.6388709  20.3804582  52.3209921  19.8989524  21.4904002
  36.9263985  11.8107688  35.7544869  37.5722849  11.3006642  36.2432094
  36.7181137  12.5476370  36.3288294  49.4517378  18.8788536  41.2537010
  50.3208537  19.0529188  40.8923645  48.9724129  19.6982953  41.1312739
  43.6203558  25.9985637  32.9326443  44.5230805  26.0309247  33.2492938
  43.3940928  25.0686088  32.9472779  45.3757160  24.7516623  29.5936522
  44.4252791  24.7518485  29.4800894  45.6789646  24.0049358  29.0772557
  41.2661476   8.9575305  39.8519883  42.1292938   8.6012110  40.0623208
  40.6926887   8.6189200  40.5395288  61.1109853  30.5877162  30.6582284
  61.7488263  30.4683909  29.9545624  60.9930696  31.5358006  30.7170237
  57.9199560  30.5404590  30.5943809  57.5818071  30.4245655  29.7064344
  58.7889328  30.1395755  30.5744815  53.7786375  32.3940066  26.5840700
  53.2151240  32.3030003  25.8156988  53.6638770  31.5739971  27.0643193
  58.4019343  31.6939442  36.5530015  58.3907983  31.2992240  35.6810518
  58.5639982  30.9605514  37.1463786  51.3250807  33.8891258  29.4224920
  52.1172099  33.5482083  29.0071220  51.5647457  33.9986233  30.3427074
  59.3585934  36.0611034  21.8955165  58.7073914  36.6465114  21.5089179
  60.1530297  36.5917229  21.9550202  53.2841561  33.1500171  22.2942299
  54.0572437  32.6029158  22.1555175  53.6366960  34.0144420  22.5056761
  55.1226604  34.4776553  35.5009199  54.8316470  35.3822184  35.3855865
  55.7583588  34.5193081  36.2153268  56.0482811  31.8553402  32.0910558
  56.6446383  31.6309424  31.3767521  56.1057782  31.1138147  32.6936006
  55.6207839  29.3092837  19.9260749  55.8733360  28.7874359  19.1644212
  54.6832398  29.1458983  20.0287433  60.6651122  28.3128616  27.7335492
  61.4514211  27.8948039  27.3825909  60.9289826  29.2174708  27.9017141
  60.8361199  33.7501466  22.4324149  60.2007032  33.8236092  23.1445054
  60.5058606  34.3395065  21.7543228  66.0659549  28.2503849  28.6368471
  66.7984721  27.6803066  28.8706300  65.3098905  27.8625449  29.0774977
  55.3404128  31.2120943  22.1285124  55.2240386  30.5365847  22.7966208
  55.4506388  30.7253317  21.3117277  57.6835669  30.6731090  25.8331813
  57.3193876  30.1461711  26.5444735  58.5402785  30.2829559  25.6598299
  63.5884969  21.9625423  33.0963080  63.2568294  22.8320834  32.8724295
  62.9930583  21.6461707  33.7757110  57.3241156  25.7020990  20.8293162
  57.4915558  26.5701226  21.1963633  57.1338325  25.8648272  19.9054451
  60.0816489  34.1637969  32.4958992  59.7817212  35.0663008  32.3874799
  59.7367548  33.8970152  33.3480145  53.5328970  30.6151766  28.5295697
  52.6079467  30.4827980  28.7373388  53.7813384  31.3945985  29.0265639
  63.4813633  26.6820509  30.1756430  62.5730510  26.6135918  29.8815191
  63.4301228  27.1592454  31.0038255  57.3030377  28.1578648  21.8139829
  57.1830002  28.6035698  22.6525309  56.6082965  28.5063965  21.2553367
  50.8937781  30.2585039  29.3639486  51.0230163  30.5119518  30.2778897
  50.2135233  30.8512747  29.0444141  55.0637269  40.9282289  25.4629960
  54.9861298  41.8790114  25.5418441  54.4598912  40.5828162  26.1204886
  57.5554498  28.1010155  38.1191327  56.7787832  28.6604075  38.1094191
  58.1945061  28.5866938  38.6406197  65.3475279  24.8836948  31.9534304
  64.7049659  25.1769481  31.3074098  64.8430208  24.7689868  32.7587500
  63.0015443  28.6300121  22.6420163  63.9133299  28.8627507  22.4667860
  62.4925090  29.2137165  22.0795241  55.8100871  30.9095608  37.6809294
  56.5515555  31.4480652  37.4044117  55.1037856  31.5361897  37.8380846
  61.2856210  33.0524749  36.2781455  61.6939566  32.6107159  35.5336088
  60.5633472  32.4777376  36.5315648  57.6387280  27.9897355  33.6515012
  58.4848476  28.4136769  33.7949661  57.5785918  27.3330980  34.3453575
  61.6085025  33.6125939  30.0333744  60.9793887  33.7771653  29.3309812
  61.2210687  34.0267549  30.8044708  65.4874257  34.5480377  27.3878108
  64.8025295  34.9279278  26.8375141  65.5718106  35.1575704  28.1210056
  60.7886726  25.6501724  35.3096186  60.5447658  26.4043784  34.7730462
  61.0646656  26.0287071  36.1443433  62.7425189  32.1940336  33.9873452
  62.9542084  32.8372096  33.3107833  62.6954937  31.3602653  33.5195382
  60.3451417  24.8058157  30.8910024  59.4835897  25.1039410  31.1826761
  60.3713852  25.0228556  29.9591056  57.1612987  33.3500347  27.2983829
  57.6251332  33.6288050  26.5088452  56.8969785  32.4483792  27.1156920
  54.0537068  32.8971829  30.2363593  54.6238425  33.3259097  29.5981077
  54.6445180  32.6154413  30.9347778  56.0981873  29.4723500  24.1073394
  56.8005916  29.9244543  24.5747321  55.7662501  28.8307318  24.7353288
  54.5462234  28.0635256  38.4824604  53.9160895  28.7451537  38.7160001
  54.4398322  27.9518338  37.5377742  49.8407207  27.7307052  29.4090528
  49.0506261  27.9864581  28.9330639  50.3318454  28.5455390  29.5142569
  63.8571016  35.0712291  32.1595809  64.6788460  34.6692479  31.8778490
  63.8533419  34.9680526  33.1111925  51.7921952  28.0951632  26.3674005
  50.9953116  28.2070326  26.8857500  51.5647544  28.4338284  25.5014895
  57.6227620  34.6196335  34.3156519  57.6872052  35.0816742  35.1514691
  56.9138544  33.9893700  34.4438829  48.1244910  27.9837543  31.8405519
  48.3752948  28.8684553  32.1063095  48.6604458  27.8042144  31.0680611
  71.9477010  31.4151040  28.5080780  71.1940718  30.8458438  28.3524785
  72.0824551  31.3813704  29.4551415  57.3375638  36.2864442  24.1835500
  57.2021312  37.1315978  24.6120347  57.8785450  36.4883720  23.4201433
  53.8242977  22.3656022  40.8449855  53.4309923  21.8122221  41.5197499
  54.6409118  22.6766601  41.2356372  50.7905035  33.8039880  24.7563425
  51.3029556  34.5983131  24.9068989  51.4427748  33.1066171  24.6897026
  52.5999920  36.9205637  26.8386178  52.7766548  37.8423601  26.6507162
  53.3956753  36.6064056  27.2680558  56.7410938  23.7813901  38.4370111
  57.4820652  24.3821054  38.3574574  56.9728861  23.0391539  37.8788154
  51.8852276  28.9670268  36.7148341  51.7705791  28.0655526  37.0155440
  51.0296794  29.2133965  36.3633158  58.9644114  36.9088009  38.3135842
  58.5207968  36.1224387  37.9956746  59.6261328  37.0967159  37.6479733
  53.7231235  38.4383810  32.8396520  54.2738660  38.3100874  32.0673514
  52.8842711  38.7378699  32.4891413  61.0625352  37.1890809  36.3417243
  61.0443827  38.0099690  35.8497512  61.9845272  37.0644884  36.5667384
  57.5198406  34.7034938  37.1840751  58.0526743  33.9423226  36.9540059
  56.9912487  34.4108590  37.9264906  60.6868101  19.8095004  32.7134393
  60.3432371  20.6996646  32.6373504  61.0547064  19.6196662  31.8503978
  48.7553952  32.1328535  25.5322995  49.5929174  32.5425543  25.3156703
  48.9332219  31.1927977  25.5023189  60.6518384  29.8003615  21.2206828
  60.1365007  30.5708220  21.4595216  60.3795692  29.1268751  21.8439890
  58.2365495  24.6453316  26.2792067  57.3807091  24.2560166  26.0997705
  58.6492447  24.7245277  25.4191852  59.7664642  22.1799659  30.6783626
  59.2629437  22.1429794  29.8651432  60.0595248  23.0892402  30.7380283
  56.0107527  22.2638389  29.6849808  56.8760524  22.0681198  29.3255698
  56.0785036  22.0348741  30.6119165  65.6252658  32.5535970  23.1560002
  64.8482101  32.2147129  22.7115164  66.3044139  32.5588593  22.4814967
  60.4404687  27.6730707  23.0466609  60.1354823  27.9876857  23.8976753
  61.3935129  27.7512127  23.0893942  58.8851119  33.8320931  24.6959563
  58.3572480  33.0973690  24.3832801  58.3838622  34.6095607  24.4499532
  63.8643965  32.0269951  29.8126610  63.2067639  32.7169213  29.9006738
  64.6684364  32.4166383  30.1560596  53.6169846  24.4940597  27.0566175
  54.1913598  24.2715778  26.3239368  54.2040829  24.5629291  27.8094776
  62.6749424  30.3814324  27.8630551  63.1881305  31.0144316  28.3652261
  63.3250648  29.7815519  27.4973911  53.9439434  26.5245058  21.0762060
  53.1076746  26.8619744  21.3971335  53.8044203  26.3894038  20.1389197
  55.9192514  21.3681846  25.7841244  55.2656927  21.0530863  25.1597859
  55.8772988  20.7457586  26.5101067  57.0303719  31.6501141  17.6994536
  56.1230781  31.4190394  17.8985685  57.5274751  30.8538760  17.8868518
  59.9371798  40.3598648  20.6191223  59.2633497  40.6630345  21.2276180
  60.3237620  41.1627728  20.2696680  59.1530255  27.8563779  30.1088892
  58.2352816  28.0778726  29.9510580  59.5690398  27.9310090  29.2500599
  59.9365302  29.2555195  25.2391572  60.6837121  29.7676592  24.9298694
  60.2056892  28.9339248  26.0995966  58.2091952  31.7513736  22.2218527
  57.3003172  31.4672769  22.3190996  58.2387036  32.1712814  21.3621833
  63.4411220  35.3620325  25.9909694  62.9873547  34.5211235  26.0474885
  62.8105187  35.9981724  26.3284474  62.3844139  26.2912311  27.2210362
  61.6466896  25.7789698  27.5520604  62.6370913  25.8512693  26.4093638
  61.8844159  37.1996822  26.9259512  62.1767134  37.7601879  26.2071878
  62.3942780  37.4925383  27.6812671  62.4855767  19.0688563  27.8152131
  62.7914644  18.2085927  27.5278046  63.2108372  19.6606183  27.6151125
  48.7780123  29.4719250  26.2033729  48.5804523  28.8788611  25.4784795
  48.2226787  29.1671460  26.9209668  56.7576847  29.3642356  28.3228322
  56.8125456  28.4116193  28.2470798  55.9468049  29.5201795  28.8069620
  57.9068040  33.2922479  19.5606605  57.4687470  32.5758338  19.1012242
  58.6478481  33.5198594  18.9991697  54.6969206  27.9819416  26.0818701
  53.8837072  28.2813587  26.4883893  55.1928201  27.5875105  26.7993183
  56.8477784  37.9777173  28.0152965  56.8053963  38.2038019  27.0861497
  57.7640483  37.7440548  28.1638767  60.2943418  28.4461241  34.9133595
  60.6492806  28.6732714  35.7728060  60.9415549  28.7779617  34.2910850
  66.0241155  31.5679676  25.6182924  65.8859054  31.7581272  24.6904113
  65.6677374  32.3299059  26.0750975  54.1883281  25.5537772  31.6979936
  54.8282661  25.4126531  31.0002899  53.3560812  25.2672285  31.3218538
  66.0510535  33.6356203  30.6294195  66.4847041  33.5431493  31.4777249
  66.7642115  33.6113704  29.9914211  54.9643585  34.8540202  27.8114928
  55.7584184  34.3590522  27.6097503  54.2535278  34.3258065  27.4482634
  59.7838430  37.2358298  32.1627296  59.8375452  37.8049234  32.9305012
  58.9153211  37.4060183  31.7981333  51.2726349  28.9983284  23.8874681
  50.3423937  28.9367739  24.1044643  51.3683821  28.4759237  23.0911322
  51.1911898  25.5238097  26.4752923  51.4518715  26.4383430  26.3662083
  52.0129070  25.0562539  26.6249535  52.6636823  26.9375854  33.6451747
  53.3359876  26.7293216  32.9964396  51.8366610  26.7397940  33.2056979
  66.9126084  33.6779904  33.1627081  67.1061974  34.5825715  33.4086356
  66.8126702  33.2187323  33.9965666  58.5662395  23.5637795  35.6617408
  57.9190310  24.2627744  35.5681884  59.3363410  23.9973939  36.0293656
  61.9741193  33.8286647  38.7367961  61.8226699  33.5997199  37.8198045
  61.9645872  34.7857248  38.7499306  58.7426529  31.4018560  33.7214228
  59.6718589  31.5529719  33.5483195  58.3217559  31.4902580  32.8662874
  57.5414861  35.4269224  31.4912765  57.4025947  35.0588008  32.3638703
  56.7529457  35.9416863  31.3196723  58.1363013  40.5278321  22.8338302
  58.3114769  40.0566364  23.6483924  57.4495801  41.1544087  23.0619563
  59.0920076  34.8050827  28.8801603  58.7569909  34.7651597  29.7759253
  58.5924022  34.1395543  28.4072013  53.0664320  30.2118457  34.4054184
  52.9284118  29.4798696  35.0065723  53.9769244  30.1227357  34.1238372
  62.0279268  32.1506861  19.1538663  61.4108439  31.4253689  19.0571715
  61.5595756  32.9116221  18.8105737  55.6946621  29.9238416  33.8937864
  56.4046239  29.2831608  33.8524482  55.6515929  30.1751311  34.8164045
  63.6833400  36.8605769  36.8144443  63.6245946  36.1764990  36.1475026
  64.0852918  37.6024759  36.3625069  54.4075555  26.9103634  35.7133503
  53.8712912  26.4594372  36.3655100  53.8192263  27.0449543  34.9703968
  52.7024098  43.6767683  29.6078162  52.9420697  44.3086207  30.2857181
  51.8593295  43.3255723  29.8943521  53.8177814  26.3692285  18.2759967
  52.9407280  26.2481086  17.9122214  54.2935567  25.5778364  18.0238856
  63.6850807  34.8245353  35.0458423  62.7977586  34.4871275  35.1684822
  64.2549358  34.0928385  35.2827188  45.3379954  31.1569445  28.3701474
  46.0250994  30.8431175  27.7822489  45.1828083  32.0610810  28.0968726
  50.1414676  26.0459642  32.7986498  50.0572865  25.4385311  32.0636908
  49.3197383  26.5368660  32.7995994  57.2151960  39.4846806  32.0119666
  57.1422132  40.2901777  32.5238971  56.7729353  39.6838772  31.1867687
  57.0041740  38.7218576  25.5222487  56.2209262  39.2640256  25.6160712
  57.7034485  39.2392555  25.9216729  60.3138390  24.5313205  28.1656693
  60.8107090  23.7783168  27.8457763  59.5425371  24.5677522  27.5999902
  68.1668147  30.2353571  29.8074984  68.1558024  31.1178286  29.4368917
  67.2985527  29.8825122  29.6129521  59.6750644  39.3833640  34.1677825
  60.3878616  40.0181105  34.0953726  59.1840672  39.4797506  33.3517826
  61.3968171  33.2884892  25.7395116  60.4624449  33.4086355  25.5699821
  61.5744839  32.3857359  25.4755126  56.8973359  26.6730588  27.8928377
  56.5271146  26.1201629  28.5809283  57.3932451  26.0688722  27.3403378
  64.7840722  29.1302212  26.2745150  65.2501174  29.9630203  26.2005453
  65.2348223  28.6647193  26.9790409  54.7262557  37.1328083  34.9883395
  55.4272017  37.7664566  35.1412790  54.2557672  37.4742815  34.2279035
  62.8516953  35.4746033  23.2731302  63.1276797  35.3602628  24.1825177
  61.9821452  35.0763518  23.2343476  62.7557385  21.4982799  30.3136052
  61.8420465  21.7287026  30.4818259  63.1850486  21.5821243  31.1650084
  62.5263843  29.6872691  32.8135946  61.8735293  29.9348598  32.1588399
  62.9044223  28.8736829  32.4798423  59.4871017  39.7232384  26.9164116
  59.6693412  38.9054040  27.3791868  60.3104003  39.9400076  26.4789006
  59.8213183  38.6500569  24.1779165  60.3500949  38.1393024  23.5649327
  60.0841402  38.3343099  25.0424698  58.5751416  30.4292502  39.3001983
  57.8992053  30.3286631  39.9704358  59.3979050  30.2731715  39.7637980
  50.3230275  36.6664438  31.9214498  50.9083712  35.9208126  32.0542402
  50.1255114  36.9768395  32.8051162  53.1768931  39.7015686  26.9376940
  52.5079306  40.1861813  26.4540981  53.0381800  39.9484906  27.8520319
  44.9147930  29.2370038  30.6418941  44.9532030  28.7033629  31.4356059
  44.4088223  28.7105244  30.0229918  57.3174199  41.7359429  33.5359599
  57.8692507  41.8991051  34.3008684  57.6580393  42.3263867  32.8639624
  52.2938692  24.0834579  34.1381484  52.3580019  24.9449410  33.7258881
  52.2305813  23.4708581  33.4053842  51.7690965  26.1557712  37.7854518
  52.3963004  25.7734789  38.3992042  50.9118884  25.9371913  38.1510210
  62.1685073  36.5620687  39.3908253  62.7124977  37.1750645  38.8963208
  61.5871918  37.1200265  39.9075266  48.5456508  27.9634141  23.7172873
  48.8409949  27.0544819  23.6639926  47.6444543  27.9421880  23.3953875
  60.4542586  39.6841405  30.5223281  60.3293726  38.8831145  30.0134227
  61.1121678  40.1787598  30.0337251  52.0750755  26.0390137  29.7000421
  51.3537340  26.6526105  29.5607895  52.8644010  26.5747902  29.6217067
  62.5177495  37.4850425  32.1502831  61.5707830  37.3655776  32.0781158
  62.8660268  36.5972923  32.2329093  54.8777068  23.3744564  35.9741073
  55.4011470  23.6206860  36.7367382  54.6589401  24.2064599  35.5544210
  50.2744349  25.6448238  23.8412198  49.9457055  24.7645617  23.6587304
  50.6283720  25.5895907  24.7288587  59.5223928  37.2803141  28.3507183
  59.3748891  36.3519848  28.5314753  60.3477422  37.3023232  27.8664259
  53.3886172  25.9321208  24.2087675  53.7282245  26.4607129  23.4866284
  53.8358293  26.2701614  24.9846242  63.1258050  38.1031700  29.4372056
  64.0504597  37.8974561  29.2996507  62.9573353  37.8548101  30.3461398
  56.0829613  24.3158259  33.6590744  55.7426434  23.5166072  34.0611423
  55.3768620  24.6159970  33.0867577  56.7346085  21.4007571  32.1118067
  57.5572154  20.9268049  31.9896957  56.9784149  22.1798055  32.6116753
  55.3754320  24.4295830  22.4080968  56.0962682  24.8077082  21.9044685
  54.7519624  25.1484706  22.5115946  59.5185442  25.1340979  23.3439301
  59.7349057  26.0165617  23.0428129  59.0379510  24.7427192  22.6144943
  54.2584664  28.0926692  29.9210045  54.1129245  28.4066995  30.8134327
  53.7809867  28.7111592  29.3680944  56.1181047  25.0829240  29.9690935
  56.1042615  24.1870333  29.6323233  56.8353475  25.0899904  30.6029221
  57.9707177  25.5166580  32.0144062  57.7124955  26.4383651  32.0128393
  57.4392218  25.1197015  32.7044526  62.9153366  38.6217367  24.7934148
  63.0890244  38.0563790  24.0408000  63.4082257  39.4218262  24.6113637
  48.7330326  30.6332036  32.8597706  48.1883794  31.4091844  32.9917981
  49.6109676  30.9802841  32.7016828  55.5217943  23.9643620  25.2378505
  55.6433854  23.0360266  25.4369392  55.2319985  23.9782306  24.3256820
  58.3909133  21.6498531  28.3745225  58.4130830  21.7137864  27.4197204
  58.8077192  20.8103039  28.5685731  68.7692757  31.3853790  26.4124447
  69.2123903  30.6361115  26.0143571  67.8919268  31.3763926  26.0298179
  63.9028539  37.9384132  21.8931046  64.5979443  38.5590824  22.1118360
  64.2451689  37.0879483  22.1683424  49.5196348  29.7601933  35.7527863
  48.7778084  29.9084568  36.3392494  49.1989092  30.0210198  34.8894613
  65.8019962  35.3883837  23.4218377  66.3271286  35.7271110  22.6967697
  65.7142314  34.4530852  23.2381511  57.4640010  39.3017911  35.5508253
  57.7727137  39.0567058  36.4230953  58.2615493  39.5064549  35.0627123
  57.4860623  41.4555820  27.7813630  57.0465613  40.9632199  28.4746486
  58.2368739  40.9128788  27.5405705  49.9652962  37.6467361  27.7838258
  50.7910981  37.3471133  27.4036901  49.6147014  36.8774984  28.2328047
  54.9334495  36.9993829  29.8535931  54.3114504  36.3364535  29.5538159
  55.6039362  37.0254961  29.1709579  48.1661567  35.5653688  28.7427191
  47.3293475  35.1375862  28.5611193  48.1385212  35.7586131  29.6797983
  55.0059022  25.4775618  39.4468437  55.0547178  26.3537740  39.0646207
  55.5481536  24.9353011  38.8740081  65.4913868  36.0216741  38.7269575
  64.7009412  36.0040880  38.1874074  65.2547222  36.5605034  39.4818611
  65.6111743  32.8709207  36.0402303  65.6609748  32.7059215  36.9817826
  65.5025666  32.0036466  35.6500184  54.4948002  35.5497753  23.3294392
  54.6436122  36.2333217  22.6761065  55.3014445  35.5302843  23.8443848
  62.9015505  28.8540135  37.3561610  63.8025368  28.7146600  37.0645608
  62.9763480  29.0194590  38.2959787  57.2358311  26.2306990  36.2014796
  56.3661620  26.5240556  35.9297385  57.4717791  26.8147435  36.9222060
  67.1129940  35.2906149  36.2844325  66.8214748  35.6536129  37.1207786
  66.5002071  34.5773157  36.1057657  68.3125622  32.8559028  28.8046895
  69.1472513  33.2948832  28.9684455  68.4484751  32.3797682  27.9855141
  65.3617128  30.4138763  34.7524383  65.8371250  30.6066410  33.9443234
  64.4382693  30.4697949  34.5067766  52.2500635  31.5762930  24.3355461
  52.0046677  30.6725260  24.5335671  52.4196549  31.5780081  23.3934939
  59.9397344  22.4486607  33.7180217  60.4579288  23.1847634  33.3926705
  59.5852477  22.7550600  34.5526976  51.5196282  27.3091288  21.8341622
  50.8265527  27.3835643  21.1781658  51.2748034  26.5451632  22.3563139
  60.1909939  18.8686889  29.2381113  60.4711692  18.2010078  29.8641540
  60.9760546  19.0615985  28.7255777  57.9943407  38.0445883  20.8006139
  57.4217374  38.6636070  20.3476611  58.5676201  38.5945245  21.3346061
  64.0618797  27.2904523  32.9852688  65.0136220  27.3902621  33.0064912
  63.8922247  26.4982792  33.4950773  62.0833176  24.3760107  33.1712089
  61.4883109  24.6565119  32.4758578  61.7982873  24.8654008  33.9428830
  61.2140667  38.3283033  21.9314722  62.1471340  38.2628595  22.1347597
  61.1263880  39.1639300  21.4729254  63.8428684  37.6448904  18.8918669
  63.7642315  37.3108767  19.7854427  64.6638350  38.1370672  18.8910142
  66.5406875  30.5110643  32.0994988  66.5083195  29.5726644  32.2854672
  67.1507498  30.5894680  31.3660813  58.3790206  29.3806696  18.1422192
  59.3249310  29.2512904  18.2110610  58.0004451  28.6421358  18.6191620
  66.6901363  27.3021686  32.1453271  66.1740412  26.5180143  31.9583200
  67.5741312  26.9740403  32.3099791  64.3512090  21.0462702  28.1049084
  64.1536911  20.7377790  28.9892416  64.9611796  21.7724341  28.2347014
  72.3583425  31.5726650  31.2401025  73.0886813  31.3111938  31.8008728
  71.7490370  30.8355372  31.2803093  70.4398722  29.7134512  31.8375476
  69.7131885  29.5790477  31.2291967  70.0246009  30.0211341  32.6432194
  58.2628898  33.4324442  39.6022849  59.1831908  33.6103041  39.7962895
  58.2278481  32.4880488  39.4502548  56.5633123  27.3056672  18.0777077
  55.6564578  27.0089785  18.1539791  56.8409104  27.0086490  17.2111363
  47.4811063  28.6263036  28.5276124  47.1613847  27.7728344  28.2350498
  46.9344491  28.8411614  29.2834091  51.2590971  31.3425477  32.2445630
  51.4776980  32.2742585  32.2633664  51.6716745  30.9833451  33.0300434
  58.1795188  21.8493562  24.2321318  57.3695917  21.5040647  24.6076565
  58.8679605  21.5401106  24.8208930  60.1085737  20.9271609  25.8545615
  60.6616775  21.3467062  26.5135638  60.3455823  20.0007357  25.8968571
  56.1318836  26.9158683  41.6348379  56.0315563  27.8653040  41.5660470
  55.9140378  26.5876921  40.7624449  55.3331907  24.1643608  18.2189056
  56.1951071  24.4898506  18.4784874  55.5182252  23.3775104  17.7062122
  47.3499323  32.2465947  30.4969245  46.6562795  31.8319900  29.9839200
  48.0972314  32.2886484  29.9002664  63.4864544  23.0372134  25.3624279
  62.9063213  23.6956938  24.9802332  63.2200477  22.2149479  24.9511697
  61.9368110  22.4377192  27.5645600  62.4367889  22.5493726  26.7559918
  62.5803718  22.1338245  28.2046408  55.9950106  30.3455821  40.4513441
  55.5117188  31.1456182  40.6577330  56.0811045  30.3563766  39.4980885
  49.2636066  32.1784201  28.3735260  49.2406754  32.2771888  27.4217143
  49.5736702  33.0249352  28.6952426  51.9223444  34.2360356  32.4881874
  52.8766697  34.2044298  32.4211806  51.7235967  33.7750980  33.3032100
  52.5122826  32.8061472  35.0552672  53.3315715  33.3005551  35.0787509
  52.7859633  31.8893440  35.0270240  62.2689422  25.1972224  24.4180628
  61.3815277  25.4821875  24.2000822  62.6843411  25.0365988  23.5707904
  65.6203958  25.2218745  28.1334967  66.3964348  25.7115198  28.4059584
  64.8952092  25.6476800  28.5906836  68.0576517  25.9346365  29.1908907
  68.6521007  25.6942101  28.4802216  68.1303100  25.2153495  29.8182444
  50.2773672  39.7779976  29.5052072  50.1428140  39.0180376  28.9390070
  49.8605735  40.5020875  29.0380861  61.4132635  34.9616899  18.5128648
  62.1168485  35.1666902  19.1286303  60.6895284  35.5293661  18.7777731
  62.2430446  30.7126760  24.6330918  62.1865647  31.1695312  23.7938550
  62.7958788  29.9517445  24.4553761  66.0535252  26.5016492  25.4581037
  65.7972186  26.1013128  26.2889245  65.4288120  27.2160286  25.3331176
  70.3647589  29.2412566  27.9652329  69.8047147  29.3105755  28.7383891
  69.7591093  29.0653550  27.2451825  53.4342798  40.6749293  29.7170515
  53.3175182  41.6194725  29.6149205  52.6135244  40.3722854  30.1056314
  63.3219333  35.3999428  20.5627108  64.1564937  34.9680627  20.3804582
  63.1603676  35.2281442  21.4904002  62.9765225  31.9031542  21.9283447
  62.9214029  31.7375813  20.9871891  62.3511280  32.6107575  22.0845637
  47.7657740  27.1399606  35.7544869  48.4116604  26.6298560  36.2432094
  47.5574891  27.8768288  36.3288294  60.2911132  34.2080454  41.2537010
  61.1602292  34.3821106  40.8923645  59.8117884  35.0274870  41.1312739
  56.2861350  21.4039651  21.5068765  56.2740020  22.3481491  21.6637036
  57.1784772  21.2209796  21.2128227  54.4597312  41.3277555  32.9326443
  55.3624559  41.3601165  33.2492938  54.2334682  40.3978005  32.9472779
  56.2150914  40.0808541  29.5936522  55.2646545  40.0810403  29.4800894
  56.5183401  39.3341276  29.0772557  60.1013470  17.9982427  25.7614702
  59.3345866  17.4440914  25.9071384  60.5124175  18.0704296  26.6228854
  52.1055231  24.2867223  39.8519883  52.9686692  23.9304028  40.0623208
  51.5320642  23.9481118  40.5395288  71.9503608  45.9169079  30.6582284
  72.5882018  45.7975827  29.9545624  71.8324451  46.8649923  30.7170237
  68.7593314  45.8696508  30.5943809  68.4211826  45.7537572  29.7064344
  69.6283082  45.4687673  30.5744815  64.6180130  47.7231984  26.5840700
  64.0544995  47.6321921  25.8156988  64.5032525  46.9031888  27.0643193
  69.2413097  47.0231359  36.5530015  69.2301738  46.6284158  35.6810518
  69.4033737  46.2897432  37.1463786  62.1644562  49.2183176  29.4224920
  62.9565854  48.8774000  29.0071220  62.4041212  49.3278151  30.3427074
  70.1979689  51.3902952  21.8955165  69.5467668  51.9757032  21.5089179
  70.9924051  51.9209147  21.9550202  64.1235316  48.4792089  22.2942299
  64.8966192  47.9321076  22.1555175  64.4760715  49.3436338  22.5056761
  65.9620358  49.8068471  35.5009199  65.6710224  50.7114102  35.3855865
  66.5977343  49.8484999  36.2153268  66.8876565  47.1845320  32.0910558
  67.4840137  46.9601342  31.3767521  66.9451537  46.4430065  32.6936006
  66.4601594  44.6384755  19.9260749  66.7127114  44.1166276  19.1644212
  65.5226153  44.4750900  20.0287433  71.5044876  43.6420533  27.7335492
  72.2907966  43.2239956  27.3825909  71.7683581  44.5466625  27.9017141
  71.6754954  49.0793384  22.4324149  71.0400787  49.1528010  23.1445054
  71.3452360  49.6686982  21.7543228  76.9053303  43.5795767  28.6368471
  77.6378475  43.0094983  28.8706300  76.1492659  43.1917367  29.0774977
  66.1797882  46.5412861  22.1285124  66.0634140  45.8657764  22.7966208
  66.2900142  46.0545235  21.3117277  68.5229423  46.0023008  25.8331813
  68.1587630  45.4753629  26.5444735  69.3796539  45.6121477  25.6598299
  74.4278724  37.2917341  33.0963080  74.0962049  38.1612752  32.8724295
  73.8324337  36.9753625  33.7757110  68.1634910  41.0312908  20.8293162
  68.3309313  41.8993144  21.1963633  67.9732079  41.1940189  19.9054451
  70.9210243  49.4929887  32.4958992  70.6210966  50.3954925  32.3874799
  70.5761303  49.2262070  33.3480145  64.3722725  45.9443683  28.5295697
  63.4473221  45.8119898  28.7373388  64.6207138  46.7237903  29.0265639
  74.3207387  42.0112427  30.1756430  73.4124264  41.9427835  29.8815191
  74.2694983  42.4884372  31.0038255  68.1424131  43.4870565  21.8139829
  68.0223756  43.9327616  22.6525309  67.4476719  43.8355883  21.2553367
  61.7331536  45.5876957  29.3639486  61.8623917  45.8411436  30.2778897
  61.0528987  46.1804665  29.0444141  65.9031023  56.2574207  25.4629960
  65.8255053  57.2082032  25.5418441  65.2992667  55.9120079  26.1204886
  68.3948253  43.4302072  38.1191327  67.6181587  43.9895993  38.1094191
  69.0338816  43.9158855  38.6406197  76.1869034  40.2128865  31.9534304
  75.5443414  40.5061398  31.3074098  75.6823962  40.0981786  32.7587500
  73.8409197  43.9592038  22.6420163  74.7527053  44.1919425  22.4667860
  73.3318844  44.5429083  22.0795241  66.6494625  46.2387526  37.6809294
  67.3909310  46.7772570  37.4044117  65.9431611  46.8653814  37.8380846
  72.1249965  48.3816666  36.2781455  72.5333321  47.9399077  35.5336088
  71.4027226  47.8069294  36.5315648  68.4781035  43.3189273  33.6515012
  69.3242230  43.7428687  33.7949661  68.4179673  42.6622897  34.3453575
  72.4478780  48.9417857  30.0333744  71.8187642  49.1063571  29.3309812
  72.0604442  49.3559466  30.8044708  76.3268011  49.8772295  27.3878108
  75.6419050  50.2571196  26.8375141  76.4111861  50.4867621  28.1210056
  71.6280480  40.9793641  35.3096186  71.3841412  41.7335702  34.7730462
  71.9040411  41.3578989  36.1443433  73.5818943  47.5232254  33.9873452
  73.7935838  48.1664014  33.3107833  73.5348691  46.6894570  33.5195382
  71.1845172  40.1350074  30.8910024  70.3229651  40.4331328  31.1826761
  71.2107607  40.3520473  29.9591056  68.0006741  48.6792265  27.2983829
  68.4645087  48.9579968  26.5088452  67.7363539  47.7775709  27.1156920
  64.8930822  48.2263746  30.2363593  65.4632180  48.6551015  29.5981077
  65.4838934  47.9446331  30.9347778  66.9375627  44.8015417  24.1073394
  67.6399671  45.2536461  24.5747321  66.6056256  44.1599236  24.7353288
  65.3855989  43.3927174  38.4824604  64.7554650  44.0743455  38.7160001
  65.2792077  43.2810256  37.5377742  60.6800961  43.0598970  29.4090528
  59.8900015  43.3156498  28.9330639  61.1712209  43.8747308  29.5142569
  74.6964771  50.4004209  32.1595809  75.5182215  49.9984396  31.8778490
  74.6927174  50.2972443  33.1111925  62.6315707  43.4243549  26.3674005
  61.8346870  43.5362243  26.8857500  62.4041299  43.7630201  25.5014895
  68.4621374  49.9488252  34.3156519  68.5265807  50.4108660  35.1514691
  67.7532298  49.3185617  34.4438829  58.9638664  43.3129460  31.8405519
  59.2146703  44.1976470  32.1063095  59.4998213  43.1334062  31.0680611
  82.7870764  46.7442958  28.5080780  82.0334472  46.1750356  28.3524785
  82.9218305  46.7105622  29.4551415  68.1769392  51.6156360  24.1835500
  68.0415067  52.4607896  24.6120347  68.7179205  51.8175638  23.4201433
  64.6636732  37.6947940  40.8449855  64.2703677  37.1414138  41.5197499
  65.4802872  38.0058518  41.2356372  61.6298789  49.1331798  24.7563425
  62.1423310  49.9275048  24.9068989  62.2821502  48.4358088  24.6897026
  63.4393674  52.2497554  26.8386178  63.6160302  53.1715519  26.6507162
  64.2350508  51.9355973  27.2680558  67.5804693  39.1105819  38.4370111
  68.3214406  39.7112972  38.3574574  67.8122616  38.3683457  37.8788154
  62.7246031  44.2962186  36.7148341  62.6099546  43.3947443  37.0155440
  61.8690548  44.5425883  36.3633158  69.8037868  52.2379926  38.3135842
  69.3601723  51.4516305  37.9956746  70.4655082  52.4259077  37.6479733
  64.5624990  53.7675728  32.8396520  65.1132415  53.6392791  32.0673514
  63.7236466  54.0670617  32.4891413  71.9019107  52.5182726  36.3417243
  71.8837582  53.3391607  35.8497512  72.8239027  52.3936802  36.5667384
  68.3592161  50.0326856  37.1840751  68.8920497  49.2715144  36.9540059
  67.8306242  49.7400508  37.9264906  71.5261856  35.1386922  32.7134393
  71.1826125  36.0288563  32.6373504  71.8940818  34.9488579  31.8503978
  59.5947706  47.4620452  25.5322995  60.4322928  47.8717461  25.3156703
  59.7725974  46.5219894  25.5023189  71.4912138  45.1295533  21.2206828
  70.9758762  45.9000138  21.4595216  71.2189447  44.4560669  21.8439890
  69.0759249  39.9745234  26.2792067  68.2200846  39.5852084  26.0997705
  69.4886201  40.0537194  25.4191852  70.6058396  37.5091577  30.6783626
  70.1023192  37.4721712  29.8651432  70.8989003  38.4184320  30.7380283
  66.8501282  37.5930307  29.6849808  67.7154279  37.3973115  29.3255698
  66.9178791  37.3640658  30.6119165  76.4646412  47.8827888  23.1560002
  75.6875855  47.5439047  22.7115164  77.1437893  47.8880511  22.4814967
  71.2798442  43.0022625  23.0466609  70.9748577  43.3168774  23.8976753
  72.2328884  43.0804045  23.0893942  69.7244873  49.1612848  24.6959563
  69.1966235  48.4265608  24.3832801  69.2232376  49.9387525  24.4499532
  74.7037719  47.3561869  29.8126610  74.0461394  48.0461130  29.9006738
  75.5078119  47.7458301  30.1560596  64.4563601  39.8232515  27.0566175
  65.0307353  39.6007696  26.3239368  65.0434583  39.8921209  27.8094776
  73.5143178  45.7106241  27.8630551  74.0275060  46.3436233  28.3652261
  74.1644402  45.1107437  27.4973911  64.7833188  41.8536976  21.0762060
  63.9470500  42.1911662  21.3971335  64.6437958  41.7185955  20.1389197
  66.7586269  36.6973763  25.7841244  66.1050681  36.3822781  25.1597859
  66.7166743  36.0749504  26.5101067  67.8697474  46.9793059  17.6994536
  66.9624535  46.7482312  17.8985685  68.3668506  46.1830678  17.8868518
  70.7765552  55.6890566  20.6191223  70.1027251  55.9922263  21.2276180
  71.1631374  56.4919646  20.2696680  69.9924009  43.1855697  30.1088892
  69.0746570  43.4070644  29.9510580  70.4084153  43.2602008  29.2500599
  70.7759057  44.5847113  25.2391572  71.5230876  45.0968510  24.9298694
  71.0450646  44.2631165  26.0995966  69.0485707  47.0805653  22.2218527
  68.1396926  46.7964686  22.3190996  69.0780791  47.5004732  21.3621833
  74.2804974  50.6912243  25.9909694  73.8267302  49.8503153  26.0474885
  73.6498941  51.3273641  26.3284474  73.2237894  41.6204229  27.2210362
  72.4860651  41.1081615  27.5520604  73.4764668  41.1804611  26.4093638
  72.7237914  52.5288740  26.9259512  73.0160888  53.0893797  26.2071878
  73.2336534  52.8217301  27.6812671  73.3249521  34.3980481  27.8152131
  73.6308398  33.5377844  27.5278046  74.0502126  34.9898101  27.6151125
  59.6173877  44.8011168  26.2033729  59.4198277  44.2080528  25.4784795
  59.0620541  44.4963378  26.9209668  67.5970601  44.6934274  28.3228322
  67.6519211  43.7408110  28.2470798  66.7861803  44.8493713  28.8069620
  68.7461795  48.6214397  19.5606605  68.3081225  47.9050256  19.1012242
  69.4872236  48.8490512  18.9991697  65.5362961  43.3111334  26.0818701
  64.7230826  43.6105504  26.4883893  66.0321955  42.9167023  26.7993183
  67.6871539  53.3069091  28.0152965  67.6447718  53.5329937  27.0861497
  68.6034238  53.0732465  28.1638767  71.1337173  43.7753158  34.9133595
  71.4886560  44.0024631  35.7728060  71.7809304  44.1071535  34.2910850
  76.8634910  46.8971594  25.6182924  76.7252808  47.0873190  24.6904113
  76.5071128  47.6590977  26.0750975  65.0277036  40.8829689  31.6979936
  65.6676415  40.7418448  31.0002899  64.1954566  40.5964203  31.3218538
  76.8904289  48.9648121  30.6294195  77.3240796  48.8723410  31.4777249
  77.6035870  48.9405622  29.9914211  65.8037340  50.1832120  27.8114928
  66.5977938  49.6882440  27.6097503  65.0929032  49.6549983  27.4482634
  70.6232184  52.5650215  32.1627296  70.6769206  53.1341152  32.9305012
  69.7546965  52.7352100  31.7981333  62.1120103  44.3275201  23.8874681
  61.1817691  44.2659657  24.1044643  62.2077575  43.8051154  23.0911322
  62.0305652  40.8530014  26.4752923  62.2912469  41.7675348  26.3662083
  62.8522824  40.3854457  26.6249535  63.5030577  42.2667771  33.6451747
  64.1753631  42.0585134  32.9964396  62.6760364  42.0689857  33.2056979
  77.7519839  49.0071822  33.1627081  77.9455729  49.9117632  33.4086356
  77.6520457  48.5479241  33.9965666  69.4056149  38.8929712  35.6617408
  68.7584065  39.5919662  35.5681884  70.1757165  39.3265856  36.0293656
  72.8134947  49.1578565  38.7367961  72.6620454  48.9289116  37.8198045
  72.8039627  50.1149166  38.7499306  69.5820284  46.7310477  33.7214228
  70.5112344  46.8821637  33.5483195  69.1611314  46.8194498  32.8662874
  68.3808616  50.7561142  31.4912765  68.2419701  50.3879926  32.3638703
  67.5923212  51.2708781  31.3196723  68.9756768  55.8570238  22.8338302
  69.1508523  55.3858281  23.6483924  68.2889556  56.4836004  23.0619563
  69.9313831  50.1342744  28.8801603  69.5963663  50.0943514  29.7759253
  69.4317776  49.4687460  28.4072013  63.9058075  45.5410374  34.4054184
  63.7677873  44.8090613  35.0065723  64.8162998  45.4519275  34.1238372
  72.8673022  47.4798779  19.1538663  72.2502193  46.7545607  19.0571715
  72.3989511  48.2408139  18.8105737  66.5340375  45.2530334  33.8937864
  67.2439994  44.6123526  33.8524482  66.4909684  45.5043229  34.8164045
  74.5227154  52.1897687  36.8144443  74.4639700  51.5056907  36.1475026
  74.9246672  52.9316677  36.3625069  65.2469309  42.2395552  35.7133503
  64.7106666  41.7886290  36.3655100  64.6586018  42.3741460  34.9703968
  63.5417853  59.0059601  29.6078162  63.7814451  59.6378125  30.2857181
  62.6987049  58.6547641  29.8943521  64.6571568  41.6984203  18.2759967
  63.7801035  41.5773004  17.9122214  65.1329321  40.9070281  18.0238856
  74.5244561  50.1537271  35.0458423  73.6371340  49.8163193  35.1684822
  75.0943112  49.4220302  35.2827188  56.1773708  46.4861363  28.3701474
  56.8644748  46.1723093  27.7822489  56.0221837  47.3902727  28.0968726
  60.9808431  41.3751559  32.7986498  60.8966619  40.7677229  32.0636908
  60.1591137  41.8660578  32.7995994  68.0545715  54.8138723  32.0119666
  67.9815886  55.6193695  32.5238971  67.6123108  55.0130689  31.1867687
  67.8435494  54.0510493  25.5222487  67.0603016  54.5932174  25.6160712
  68.5428240  54.5684473  25.9216729  71.1532144  39.8605123  28.1656693
  71.6500844  39.1075085  27.8457763  70.3819126  39.8969440  27.5999902
  79.0061902  45.5645488  29.8074984  78.9951778  46.4470204  29.4368917
  78.1379281  45.2117039  29.6129521  70.5144398  54.7125557  34.1677825
  71.2272370  55.3473022  34.0953726  70.0234427  54.8089423  33.3517826
  72.2361925  48.6176810  25.7395116  71.3018204  48.7378273  25.5699821
  72.4138594  47.7149277  25.4755126  67.7367113  42.0022506  27.8928377
  67.3664901  41.4493546  28.5809283  68.2326206  41.3980639  27.3403378
  75.6234477  44.4594129  26.2745150  76.0894929  45.2922121  26.2005453
  76.0741977  43.9939111  26.9790409  65.5656312  52.4620001  34.9883395
  66.2665771  53.0956484  35.1412790  65.0951427  52.8034732  34.2279035
  73.6910708  50.8037951  23.2731302  73.9670552  50.6894545  24.1825177
  72.8215206  50.4055436  23.2343476  73.5951139  36.8274716  30.3136052
  72.6814219  37.0578943  30.4818259  74.0244241  36.9113160  31.1650084
  73.3657598  45.0164608  32.8135946  72.7129048  45.2640516  32.1588399
  73.7437978  44.2028747  32.4798423  70.3264772  55.0524302  26.9164116
  70.5087166  54.2345957  27.3791868  71.1497758  55.2691994  26.4789006
  70.6606937  53.9792487  24.1779165  71.1894704  53.4684941  23.5649327
  70.9235157  53.6635017  25.0424698  69.4145171  45.7584419  39.3001983
  68.7385808  45.6578549  39.9704358  70.2372805  45.6023633  39.7637980
  61.1624030  51.9956356  31.9214498  61.7477467  51.2500044  32.0542402
  60.9648868  52.3060313  32.8051162  64.0162685  55.0307603  26.9376940
  63.3473060  55.5153731  26.4540981  63.8775555  55.2776824  27.8520319
  55.7541685  44.5661956  30.6418941  55.7925784  44.0325547  31.4356059
  55.2481977  44.0397162  30.0229918  68.1567954  57.0651347  33.5359599
  68.7086262  57.2282968  34.3008684  68.4974147  57.6555785  32.8639624
  63.1332447  39.4126497  34.1381484  63.1973773  40.2741328  33.7258881
  63.0699567  38.8000498  33.4053842  62.6084719  41.4849629  37.7854518
  63.2356758  41.1026707  38.3992042  61.7512638  41.2663831  38.1510210
  73.0078828  51.8912604  39.3908253  73.5518732  52.5042563  38.8963208
  72.4265673  52.4492183  39.9075266  59.3850262  43.2926058  23.7172873
  59.6803703  42.3836737  23.6639926  58.4838298  43.2713798  23.3953875
  71.2936341  55.0133322  30.5223281  71.1687480  54.2123062  30.0134227
  71.9515432  55.5079516  30.0337251  62.9144509  41.3682055  29.7000421
  62.1931095  41.9818023  29.5607895  63.7037765  41.9039820  29.6217067
  73.3571249  52.8142342  32.1502831  72.4101585  52.6947694  32.0781158
  73.7054022  51.9264841  32.2329093  65.7170823  38.7036481  35.9741073
  66.2405224  38.9498778  36.7367382  65.4983156  39.5356516  35.5544210
  61.1138104  40.9740156  23.8412198  60.7850810  40.0937535  23.6587304
  61.4677474  40.9187825  24.7288587  70.3617683  52.6095059  28.3507183
  70.2142645  51.6811766  28.5314753  71.1871176  52.6315149  27.8664259
  64.2279927  41.2613126  24.2087675  64.5675999  41.7899047  23.4866284
  64.6752047  41.5993532  24.9846242  73.9651804  53.4323617  29.4372056
  74.8898352  53.2266479  29.2996507  73.7967108  53.1840019  30.3461398
  66.9223368  39.6450176  33.6590744  66.5820188  38.8457990  34.0611423
  66.2162374  39.9451887  33.0867577  67.5739840  36.7299489  32.1118067
  68.3965909  36.2559967  31.9896957  67.8177903  37.5089973  32.6116753
  66.2148074  39.7587747  22.4080968  66.9356437  40.1369000  21.9044685
  65.5913378  40.4776624  22.5115946  70.3579197  40.4632896  23.3439301
  70.5742811  41.3457534  23.0428129  69.8773264  40.0719110  22.6144943
  65.0978418  43.4218610  29.9210045  64.9522999  43.7358913  30.8134327
  64.6203622  44.0403510  29.3680944  66.9574801  40.4121158  29.9690935
  66.9436370  39.5162251  29.6323233  67.6747229  40.4191821  30.6029221
  68.8100932  40.8458498  32.0144062  68.5518710  41.7675568  32.0128393
  68.2785972  40.4488932  32.7044526  73.7547121  53.9509285  24.7934148
  73.9283998  53.3855707  24.0408000  74.2476012  54.7510180  24.6113637
  59.5724080  45.9623954  32.8597706  59.0277549  46.7383762  32.9917981
  60.4503430  46.3094758  32.7016828  66.3611697  39.2935538  25.2378505
  66.4827608  38.3652184  25.4369392  66.0713739  39.3074224  24.3256820
  69.2302888  36.9790448  28.3745225  69.2524584  37.0429781  27.4197204
  69.6470947  36.1394957  28.5685731  79.6086512  46.7145708  26.4124447
  80.0517658  45.9653033  26.0143571  78.7313022  46.7055844  26.0298179
  74.7422293  53.2676049  21.8931046  75.4373198  53.8882742  22.1118360
  75.0845443  52.4171400  22.1683424  60.3590102  45.0893850  35.7527863
  59.6171838  45.2376486  36.3392494  60.0382847  45.3502116  34.8894613
  76.6413716  50.7175755  23.4218377  77.1665040  51.0563028  22.6967697
  76.5536069  49.7822770  23.2381511  68.3033765  54.6309828  35.5508253
  68.6120891  54.3858975  36.4230953  69.1009247  54.8356467  35.0627123
  68.3254377  56.7847738  27.7813630  67.8859367  56.2924117  28.4746486
  69.0762494  56.2420706  27.5405705  60.8046716  52.9759279  27.7838258
  61.6304736  52.6763051  27.4036901  60.4540768  52.2066901  28.2328047
  65.7728249  52.3285747  29.8535931  65.1508258  51.6656452  29.5538159
  66.4433116  52.3546879  29.1709579  59.0055321  50.8945605  28.7427191
  58.1687229  50.4667780  28.5611193  58.9778966  51.0878049  29.6797983
  65.8452777  40.8067535  39.4468437  65.8940932  41.6829658  39.0646207
  66.3875291  40.2644928  38.8740081  76.3307622  51.3508658  38.7269575
  75.5403166  51.3332797  38.1874074  76.0940977  51.8896952  39.4818611
  76.4505497  48.2001125  36.0402303  76.5003502  48.0351132  36.9817826
  76.3419421  47.3328384  35.6500184  65.3341756  50.8789671  23.3294392
  65.4829876  51.5625135  22.6761065  66.1408200  50.8594761  23.8443848
  73.7409260  44.1832053  37.3561610  74.6419123  44.0438518  37.0645608
  73.8157234  44.3486508  38.2959787  68.0752065  41.5598908  36.2014796
  67.2055375  41.8532474  35.9297385  68.3111545  42.1439353  36.9222060
  77.9523694  50.6198066  36.2844325  77.6608503  50.9828047  37.1207786
  77.3395826  49.9065075  36.1057657  79.1519377  48.1850946  28.8046895
  79.9866268  48.6240750  28.9684455  79.2878505  47.7089599  27.9855141
  76.2010882  45.7430681  34.7524383  76.6765004  45.9358327  33.9443234
  75.2776448  45.7989867  34.5067766  63.0894389  46.9054848  24.3355461
  62.8440431  46.0017178  24.5335671  63.2590304  46.9071999  23.3934939
  70.7791099  37.7778525  33.7180217  71.2973043  38.5139551  33.3926705
  70.4246232  38.0842518  34.5526976  62.3590037  42.6383206  21.8341622
  61.6659282  42.7127561  21.1781658  62.1141788  41.8743549  22.3563139
  71.0303693  34.1978807  29.2381113  71.3105447  33.5301996  29.8641540
  71.8154300  34.3907903  28.7255777  68.8337162  53.3737801  20.8006139
  68.2611129  53.9927988  20.3476611  69.4069955  53.9237163  21.3346061
  74.9012551  42.6196441  32.9852688  75.8529974  42.7194539  33.0064912
  74.7316002  41.8274710  33.4950773  72.9226931  39.7052024  33.1712089
  72.3276863  39.9857037  32.4758578  72.6376628  40.1945925  33.9428830
  72.0534421  53.6574951  21.9314722  72.9865095  53.5920513  22.1347597
  71.9657634  54.4931218  21.4729254  74.6822438  52.9740821  18.8918669
  74.6036070  52.6400685  19.7854427  75.5032105  53.4662589  18.8910142
  77.3800629  45.8402561  32.0994988  77.3476949  44.9018561  32.2854672
  77.9901253  45.9186597  31.3660813  69.2183960  44.7098614  18.1422192
  70.1643065  44.5804822  18.2110610  68.8398205  43.9713276  18.6191620
  77.5295118  42.6313604  32.1453271  77.0134166  41.8472061  31.9583200
  78.4135066  42.3032321  32.3099791  75.1905845  36.3754620  28.1049084
  74.9930666  36.0669708  28.9892416  75.8005550  37.1016259  28.2347014
  83.1977179  46.9018568  31.2401025  83.9280568  46.6403856  31.8008728
  82.5884125  46.1647290  31.2803093  81.2792476  45.0426430  31.8375476
  80.5525640  44.9082395  31.2291967  80.8639763  45.3503259  32.6432194
  69.1022653  48.7616360  39.6022849  70.0225662  48.9394959  39.7962895
  69.0672236  47.8172405  39.4502548  67.4026877  42.6348590  18.0777077
  66.4958333  42.3381703  18.1539791  67.6802858  42.3378408  17.2111363
  58.3204818  43.9554954  28.5276124  58.0007602  43.1020262  28.2350498
  57.7738246  44.1703532  29.2834091  62.0984725  46.6717395  32.2445630
  62.3170735  47.6034502  32.2633664  62.5110499  46.3125369  33.0300434
  69.0188943  37.1785480  24.2321318  68.2089671  36.8332565  24.6076565
  69.7073360  36.8693024  24.8208930  70.9479491  36.2563527  25.8545615
  71.5010530  36.6758980  26.5135638  71.1849578  35.3299275  25.8968571
  66.9712591  42.2450600  41.6348379  66.8709317  43.1944957  41.5660470
  66.7534133  41.9168839  40.7624449  66.1725662  39.4935525  18.2189056
  67.0344826  39.8190424  18.4784874  66.3576006  38.7067021  17.7062122
  58.1893078  47.5757865  30.4969245  57.4956549  47.1611818  29.9839200
  58.9366069  47.6178402  29.9002664  74.3258298  38.3664052  25.3624279
  73.7456967  39.0248856  24.9802332  74.0594231  37.5441396  24.9511697
  72.7761865  37.7669109  27.5645600  73.2761643  37.8785644  26.7559918
  73.4197473  37.4630162  28.2046408  66.8343861  45.6747739  40.4513441
  66.3510942  46.4748099  40.6577330  66.9204800  45.6855684  39.4980885
  60.1029820  47.5076119  28.3735260  60.0800508  47.6063806  27.4217143
  60.4130457  48.3541270  28.6952426  62.7617198  49.5652274  32.4881874
  63.7160452  49.5336216  32.4211806  62.5629722  49.1042898  33.3032100
  63.3516580  48.1353390  35.0552672  64.1709469  48.6297469  35.0787509
  63.6253388  47.2185358  35.0270240  73.1083176  40.5264142  24.4180628
  72.2209031  40.8113793  24.2000822  73.5237165  40.3657906  23.5707904
  76.4597713  40.5510663  28.1334967  77.2358103  41.0407116  28.4059584
  75.7345847  40.9768717  28.5906836  78.8970271  41.2638282  29.1908907
  79.4914762  41.0234018  28.4802216  78.9696855  40.5445413  29.8182444
  61.1167427  55.1071893  29.5052072  60.9821895  54.3472294  28.9390070
  60.6999489  55.8312793  29.0380861  72.2526390  50.2908817  18.5128648
  72.9562240  50.4958819  19.1286303  71.5289039  50.8585579  18.7777731
  73.0824200  46.0418678  24.6330918  73.0259402  46.4987230  23.7938550
  73.6352543  45.2809363  24.4553761  76.8929006  41.8308410  25.4581037
  76.6365940  41.4305046  26.2889245  76.2681874  42.5452204  25.3331176
  81.2041344  44.5704483  27.9652329  80.6440902  44.6397673  28.7383891
  80.5984847  44.3945468  27.2451825  64.2736553  56.0041210  29.7170515
  64.1568937  56.9486643  29.6149205  63.4528999  55.7014772  30.1056314
  74.1613087  50.7291346  20.5627108  74.9958691  50.2972545  20.3804582
  73.9997430  50.5573360  21.4904002  73.8158979  47.2323459  21.9283447
  73.7607783  47.0667731  20.9871891  73.1905035  47.9399492  22.0845637
  58.6051494  42.4691524  35.7544869  59.2510358  41.9590478  36.2432094
  58.3968646  43.2060205  36.3288294  71.1304887  49.5372371  41.2537010
  71.9996046  49.7113023  40.8923645  70.6511638  50.3566788  41.1312739
  67.1255105  36.7331568  21.5068765  67.1133775  37.6773408  21.6637036
  68.0178527  36.5501714  21.2128227  65.2991067  56.6569472  32.9326443
  66.2018314  56.6893082  33.2492938  65.0728437  55.7269923  32.9472779
  67.0544669  55.4100459  29.5936522  66.1040300  55.4102320  29.4800894
  67.3577155  54.6633193  29.0772557  70.9407224  33.3274345  25.7614702
  70.1739620  32.7732832  25.9071384  71.3517929  33.3996214  26.6228854
  62.9448985  39.6159141  39.8519883  63.8080447  39.2595946  40.0623208
  62.3714396  39.2773036  40.5395288  82.7897362  61.2460997  30.6582284
  83.4275772  61.1267744  29.9545624  82.6718205  62.1941841  30.7170237
  79.5987069  61.1988425  30.5943809  79.2605580  61.0829490  29.7064344
  80.4676837  60.7979590  30.5744815  75.4573884  63.0523902  26.5840700
  74.8938749  62.9613839  25.8156988  75.3426279  62.2323806  27.0643193
  80.0806852  62.3523277  36.5530015  80.0695492  61.9576075  35.6810518
  80.2427491  61.6189350  37.1463786  73.0038316  64.5475093  29.4224920
  73.7959608  64.2065918  29.0071220  73.2434966  64.6570068  30.3427074
  81.0373443  66.7194869  21.8955165  80.3861423  67.3048950  21.5089179
  81.8317806  67.2501064  21.9550202  74.9629070  63.8084007  22.2942299
  75.7359946  63.2612994  22.1555175  75.3154469  64.6728256  22.5056761
  76.8014113  65.1360389  35.5009199  76.5103979  66.0406020  35.3855865
  77.4371097  65.1776916  36.2153268  77.7270320  62.5137237  32.0910558
  78.3233892  62.2893260  31.3767521  77.7845291  61.7721983  32.6936006
  77.2995348  59.9676673  19.9260749  77.5520869  59.4458194  19.1644212
  76.3619907  59.8042818  20.0287433  82.3438631  58.9712451  27.7335492
  83.1301720  58.5531874  27.3825909  82.6077335  59.8758543  27.9017141
  82.5148708  64.4085301  22.4324149  81.8794541  64.4819928  23.1445054
  82.1846115  64.9978900  21.7543228  87.7447058  58.9087684  28.6368471
  88.4772230  58.3386901  28.8706300  86.9886414  58.5209285  29.0774977
  77.0191637  61.8704779  22.1285124  76.9027895  61.1949682  22.7966208
  77.1293897  61.3837153  21.3117277  79.3623178  61.3314926  25.8331813
  78.9981385  60.8045547  26.5444735  80.2190294  60.9413395  25.6598299
  85.2672478  52.6209258  33.0963080  84.9355803  53.4904669  32.8724295
  84.6718092  52.3045542  33.7757110  79.0028665  56.3604825  20.8293162
  79.1703067  57.2285062  21.1963633  78.8125834  56.5232107  19.9054451
  81.7603998  64.8221804  32.4958992  81.4604721  65.7246843  32.3874799
  81.4155057  64.5553987  33.3480145  75.2116479  61.2735601  28.5295697
  74.2866976  61.1411815  28.7373388  75.4600893  62.0529820  29.0265639
  85.1601142  57.3404344  30.1756430  84.2518019  57.2719753  29.8815191
  85.1088737  57.8176289  31.0038255  78.9817886  58.8162483  21.8139829
  78.8617511  59.2619534  22.6525309  78.2870474  59.1647801  21.2553367
  72.5725290  60.9168875  29.3639486  72.7017672  61.1703354  30.2778897
  71.8922742  61.5096583  29.0444141  76.7424778  71.5866125  25.4629960
  76.6648807  72.5373950  25.5418441  76.1386421  71.2411997  26.1204886
  79.2342007  58.7593990  38.1191327  78.4575341  59.3187910  38.1094191
  79.8732570  59.2450773  38.6406197  87.0262788  55.5420783  31.9534304
  86.3837168  55.8353316  31.3074098  86.5217717  55.4273703  32.7587500
  84.6802952  59.2883956  22.6420163  85.5920808  59.5211343  22.4667860
  84.1712599  59.8721000  22.0795241  77.4888380  61.5679443  37.6809294
  78.2303064  62.1064487  37.4044117  76.7825365  62.1945732  37.8380846
  82.9643719  63.7108584  36.2781455  83.3727075  63.2690994  35.5336088
  82.2420981  63.1361211  36.5315648  79.3174789  58.6481191  33.6515012
  80.1635985  59.0720604  33.7949661  79.2573427  57.9914815  34.3453575
  83.2872534  64.2709775  30.0333744  82.6581396  64.4355489  29.3309812
  82.8998196  64.6851384  30.8044708  87.1661766  65.2064212  27.3878108
  86.4812804  65.5863114  26.8375141  87.2505615  65.8159539  28.1210056
  82.4674235  56.3085559  35.3096186  82.2235167  57.0627620  34.7730462
  82.7434165  56.6870907  36.1443433  84.4212698  62.8524171  33.9873452
  84.6329593  63.4955931  33.3107833  84.3742446  62.0186488  33.5195382
  82.0238926  55.4641992  30.8910024  81.1623405  55.7623246  31.1826761
  82.0501361  55.6812391  29.9591056  78.8400496  64.0084183  27.2983829
  79.3038841  64.2871886  26.5088452  78.5757294  63.1067627  27.1156920
  75.7324577  63.5555664  30.2363593  76.3025934  63.9842933  29.5981077
  76.3232689  63.2738249  30.9347778  77.7769382  60.1307335  24.1073394
  78.4793425  60.5828379  24.5747321  77.4450010  59.4891154  24.7353288
  76.2249743  58.7219092  38.4824604  75.5948404  59.4035372  38.7160001
  76.1185831  58.6102173  37.5377742  71.5194716  58.3890888  29.4090528
  70.7293770  58.6448416  28.9330639  72.0105963  59.2039225  29.5142569
  85.5358525  65.7296127  32.1595809  86.3575969  65.3276314  31.8778490
  85.5320928  65.6264361  33.1111925  73.4709461  58.7535467  26.3674005
  72.6740625  58.8654161  26.8857500  73.2435053  59.0922119  25.5014895
  79.3015129  65.2780170  34.3156519  79.3659561  65.7400577  35.1514691
  78.5926053  64.6477535  34.4438829  69.8032419  58.6421378  31.8405519
  70.0540457  59.5268388  32.1063095  70.3391967  58.4625980  31.0680611
  93.6264519  62.0734875  28.5080780  92.8728227  61.5042273  28.3524785
  93.7612060  62.0397540  29.4551415  79.0163147  66.9448278  24.1835500
  78.8808821  67.7899813  24.6120347  79.5572959  67.1467555  23.4201433
  72.4692544  64.4623716  24.7563425  72.9817065  65.2566966  24.9068989
  73.1215257  63.7650006  24.6897026  74.2787429  67.5789472  26.8386178
  74.4554057  68.5007437  26.6507162  75.0744262  67.2647891  27.2680558
  78.4198447  54.4397737  38.4370111  79.1608161  55.0404890  38.3574574
  78.6516370  53.6975374  37.8788154  73.5639785  59.6254104  36.7148341
  73.4493300  58.7239361  37.0155440  72.7084303  59.8717801  36.3633158
  80.6431623  67.5671844  38.3135842  80.1995477  66.7808223  37.9956746
  81.3048837  67.7550995  37.6479733  75.4018744  69.0967646  32.8396520
  75.9526169  68.9684709  32.0673514  74.5630220  69.3962535  32.4891413
  82.7412861  67.8474644  36.3417243  82.7231336  68.6683525  35.8497512
  83.6632781  67.7228719  36.5667384  79.1985915  65.3618774  37.1840751
  79.7314252  64.6007062  36.9540059  78.6699996  65.0692425  37.9264906
  82.3655610  50.4678839  32.7134393  82.0219880  51.3580481  32.6373504
  82.7334573  50.2780497  31.8503978  70.4341461  62.7912370  25.5322995
  71.2716683  63.2009378  25.3156703  70.6119728  61.8511812  25.5023189
  82.3305893  60.4587451  21.2206828  81.8152516  61.2292055  21.4595216
  82.0583201  59.7852587  21.8439890  79.9153004  55.3037151  26.2792067
  79.0594600  54.9144002  26.0997705  80.3279956  55.3829112  25.4191852
  81.4452151  52.8383495  30.6783626  80.9416946  52.8013630  29.8651432
  81.7382757  53.7476237  30.7380283  77.6895036  52.9222224  29.6849808
  78.5548033  52.7265033  29.3255698  77.7572545  52.6932576  30.6119165
  87.3040167  63.2119805  23.1560002  86.5269610  62.8730965  22.7115164
  87.9831648  63.2172428  22.4814967  82.1192196  58.3314543  23.0466609
  81.8142332  58.6460692  23.8976753  83.0722638  58.4095963  23.0893942
  80.5638628  64.4904766  24.6959563  80.0359989  63.7557526  24.3832801
  80.0626131  65.2679442  24.4499532  85.5431474  62.6853786  29.8126610
  84.8855148  63.3753048  29.9006738  86.3471873  63.0750218  30.1560596
  75.2957355  55.1524432  27.0566175  75.8701107  54.9299614  26.3239368
  75.8828338  55.2213127  27.8094776  84.3536933  61.0398159  27.8630551
  84.8668814  61.6728151  28.3652261  85.0038157  60.4399355  27.4973911
  75.6226943  57.1828893  21.0762060  74.7864255  57.5203580  21.3971335
  75.4831712  57.0477873  20.1389197  77.5980023  52.0265681  25.7841244
  76.9444436  51.7114698  25.1597859  77.5560497  51.4041422  26.5101067
  78.7091228  62.3084976  17.6994536  77.8018290  62.0774230  17.8985685
  79.2062260  61.5122596  17.8868518  81.6159307  71.0182483  20.6191223
  80.9421006  71.3214180  21.2276180  82.0025129  71.8211564  20.2696680
  80.8317764  58.5147615  30.1088892  79.9140325  58.7362562  29.9510580
  81.2477907  58.5893925  29.2500599  81.6152811  59.9139030  25.2391572
  82.3624630  60.4260428  24.9298694  81.8844401  59.5923083  26.0995966
  79.8879461  62.4097571  22.2218527  78.9790681  62.1256604  22.3190996
  79.9174545  62.8296650  21.3621833  85.1198729  66.0204161  25.9909694
  84.6661056  65.1795071  26.0474885  84.4892696  66.6565559  26.3284474
  84.0631648  56.9496147  27.2210362  83.3254405  56.4373533  27.5520604
  84.3158422  56.5096528  26.4093638  83.5631668  67.8580657  26.9259512
  83.8554643  68.4185714  26.2071878  84.0730289  68.1509218  27.6812671
  84.1643276  49.7272399  27.8152131  84.4702153  48.8669762  27.5278046
  84.8895881  50.3190019  27.6151125  70.4567632  60.1303085  26.2033729
  70.2592032  59.5372446  25.4784795  69.9014296  59.8255295  26.9209668
  78.4364356  60.0226192  28.3228322  78.4912965  59.0700028  28.2470798
  77.6255558  60.1785631  28.8069620  79.5855549  63.9506315  19.5606605
  79.1474979  63.2342174  19.1012242  80.3265990  64.1782430  18.9991697
  76.3756715  58.6403251  26.0818701  75.5624581  58.9397422  26.4883893
  76.8715710  58.2458940  26.7993183  78.5265293  68.6361008  28.0152965
  78.4841472  68.8621855  27.0861497  79.4427992  68.4024383  28.1638767
  81.9730927  59.1045076  34.9133595  82.3280315  59.3316549  35.7728060
  82.6203058  59.4363453  34.2910850  87.7028664  62.2263512  25.6182924
  87.5646563  62.4165108  24.6904113  87.3464883  62.9882895  26.0750975
  75.8670790  56.2121607  31.6979936  76.5070170  56.0710366  31.0002899
  75.0348321  55.9256120  31.3218538  87.7298044  64.2940039  30.6294195
  88.1634550  64.2015328  31.4777249  88.4429624  64.2697539  29.9914211
  76.6431094  65.5124037  27.8114928  77.4371693  65.0174358  27.6097503
  75.9322786  64.9841901  27.4482634  81.4625939  67.8942133  32.1627296
  81.5162961  68.4633069  32.9305012  80.5940720  68.0644018  31.7981333
  72.9513858  59.6567119  23.8874681  72.0211446  59.5951575  24.1044643
  73.0471330  59.1343072  23.0911322  72.8699407  56.1821932  26.4752923
  73.1306224  57.0967265  26.3662083  73.6916579  55.7146375  26.6249535
  74.3424332  57.5959689  33.6451747  75.0147385  57.3877051  32.9964396
  73.5154118  57.3981775  33.2056979  88.5913593  64.3363739  33.1627081
  88.7849483  65.2409550  33.4086356  88.4914211  63.8771159  33.9965666
  80.2449904  54.2221630  35.6617408  79.5977819  54.9211580  35.5681884
  81.0150919  54.6557774  36.0293656  83.6528702  64.4870482  38.7367961
  83.5014208  64.2581034  37.8198045  83.6433381  65.4441084  38.7499306
  80.4214038  62.0602395  33.7214228  81.3506098  62.2113555  33.5483195
  80.0005068  62.1486416  32.8662874  79.2202370  66.0853059  31.4912765
  79.0813456  65.7171844  32.3638703  78.4316966  66.6000699  31.3196723
  79.8150522  71.1862156  22.8338302  79.9902278  70.7150199  23.6483924
  79.1283310  71.8127922  23.0619563  80.7707585  65.4634662  28.8801603
  80.4357418  65.4235432  29.7759253  80.2711531  64.7979378  28.4072013
  74.7451829  60.8702292  34.4054184  74.6071627  60.1382531  35.0065723
  75.6556753  60.7811192  34.1238372  83.7066777  62.8090696  19.1538663
  83.0895948  62.0837525  19.0571715  83.2383265  63.5700057  18.8105737
  77.3734130  60.5822251  33.8937864  78.0833748  59.9415444  33.8524482
  77.3303438  60.8335146  34.8164045  85.3620909  67.5189605  36.8144443
  85.3033455  66.8348825  36.1475026  85.7640427  68.2608595  36.3625069
  76.0863064  57.5687469  35.7133503  75.5500421  57.1178208  36.3655100
  75.4979772  57.7033378  34.9703968  74.3811607  74.3351519  29.6078162
  74.6208206  74.9670043  30.2857181  73.5380804  73.9839559  29.8943521
  75.4965323  57.0276121  18.2759967  74.6194789  56.9064922  17.9122214
  75.9723076  56.2362199  18.0238856  85.3638316  65.4829189  35.0458423
  84.4765095  65.1455111  35.1684822  85.9336867  64.7512220  35.2827188
  67.0167463  61.8153280  28.3701474  67.7038503  61.5015011  27.7822489
  66.8615592  62.7194645  28.0968726  71.8202185  56.7043477  32.7986498
  71.7360374  56.0969147  32.0636908  70.9984891  57.1952495  32.7995994
  78.8939469  70.1430641  32.0119666  78.8209641  70.9485613  32.5238971
  78.4516862  70.3422607  31.1867687  78.6829249  69.3802411  25.5222487
  77.8996771  69.9224091  25.6160712  79.3821994  69.8976391  25.9216729
  81.9925899  55.1897041  28.1656693  82.4894598  54.4367003  27.8457763
  81.2212880  55.2261357  27.5999902  89.8455656  60.8937406  29.8074984
  89.8345533  61.7762122  29.4368917  88.9773036  60.5408957  29.6129521
  81.3538153  70.0417475  34.1677825  82.0666125  70.6764940  34.0953726
  80.8628181  70.1381341  33.3517826  83.0755680  63.9468728  25.7395116
  82.1411958  64.0670190  25.5699821  83.2532348  63.0441195  25.4755126
  78.5760868  57.3314424  27.8928377  78.2058655  56.7785464  28.5809283
  79.0719960  56.7272557  27.3403378  86.4628231  59.7886047  26.2745150
  86.9288683  60.6214039  26.2005453  86.9135731  59.3231029  26.9790409
  76.4050066  67.7911919  34.9883395  77.1059526  68.4248402  35.1412790
  75.9345181  68.1326650  34.2279035  84.5304462  66.1329868  23.2731302
  84.8064306  66.0186463  24.1825177  83.6608961  65.7347353  23.2343476
  84.4344894  52.1566634  30.3136052  83.5207974  52.3870861  30.4818259
  84.8637995  52.2405078  31.1650084  84.2051352  60.3456526  32.8135946
  83.5522802  60.5932433  32.1588399  84.5831732  59.5320664  32.4798423
  81.1658526  70.3816219  26.9164116  81.3480921  69.5637875  27.3791868
  81.9891512  70.5983911  26.4789006  81.5000692  69.3084404  24.1779165
  82.0288458  68.7976859  23.5649327  81.7628911  68.9926935  25.0424698
  80.2538925  61.0876337  39.3001983  79.5779562  60.9870466  39.9704358
  81.0766559  60.9315551  39.7637980  72.0017784  67.3248274  31.9214498
  72.5871221  66.5791962  32.0542402  71.8042623  67.6352230  32.8051162
  74.8556440  70.3599521  26.9376940  74.1866815  70.8445649  26.4540981
  74.7169309  70.6068741  27.8520319  66.5935439  59.8953874  30.6418941
  66.6319539  59.3617465  31.4356059  66.0875732  59.3689079  30.0229918
  78.9961708  72.3943265  33.5359599  79.5480016  72.5574886  34.3008684
  79.3367902  72.9847702  32.8639624  73.9726201  54.7418414  34.1381484
  74.0367528  55.6033245  33.7258881  73.9093322  54.1292416  33.4053842
  73.4478474  56.8141547  37.7854518  74.0750513  56.4318624  38.3992042
  72.5906393  56.5955749  38.1510210  83.8472582  67.2204522  39.3908253
  84.3912486  67.8334480  38.8963208  83.2659427  67.7784100  39.9075266
  70.2244017  58.6217976  23.7172873  70.5197458  57.7128654  23.6639926
  69.3232052  58.6005715  23.3953875  82.1330095  70.3425240  30.5223281
  82.0081235  69.5414980  30.0134227  82.7909187  70.8371433  30.0337251
  73.7538264  56.6973973  29.7000421  73.0324849  57.3109940  29.5607895
  74.5431519  57.2331737  29.6217067  84.1965004  68.1434260  32.1502831
  83.2495339  68.0239611  32.0781158  84.5447777  67.2556758  32.2329093
  76.5564577  54.0328399  35.9741073  77.0798979  54.2790696  36.7367382
  76.3376910  54.8648434  35.5544210  71.9531858  56.3032074  23.8412198
  71.6244564  55.4229453  23.6587304  72.3071229  56.2479742  24.7288587
  81.2011437  67.9386976  28.3507183  81.0536400  67.0103684  28.5314753
  82.0264931  67.9607067  27.8664259  75.0673681  56.5905043  24.2087675
  75.4069754  57.1190965  23.4866284  75.5145802  56.9285450  24.9846242
  84.8045559  68.7615535  29.4372056  85.7292106  68.5558396  29.2996507
  84.6360862  68.5131936  30.3461398  77.7617122  54.9742094  33.6590744
  77.4213943  54.1749907  34.0611423  77.0556128  55.2743805  33.0867577
  78.4133594  52.0591407  32.1118067  79.2359663  51.5851885  31.9896957
  78.6571658  52.8381890  32.6116753  77.0541829  55.0879665  22.4080968
  77.7750191  55.4660918  21.9044685  76.4307133  55.8068542  22.5115946
  81.1972951  55.7924814  23.3439301  81.4136566  56.6749452  23.0428129
  80.7167019  55.4011027  22.6144943  75.9372173  58.7510527  29.9210045
  75.7916754  59.0650830  30.8134327  75.4597376  59.3695428  29.3680944
  77.7968556  55.7413075  29.9690935  77.7830124  54.8454169  29.6323233
  78.5140984  55.7483739  30.6029221  79.6494686  56.1750415  32.0144062
  79.3912464  57.0967486  32.0128393  79.1179727  55.7780850  32.7044526
  84.5940875  69.2801203  24.7934148  84.7677753  68.7147625  24.0408000
  85.0869766  70.0802097  24.6113637  70.4117835  61.2915872  32.8597706
  69.8671303  62.0675680  32.9917981  71.2897185  61.6386676  32.7016828
  77.2005452  54.6227455  25.2378505  77.3221363  53.6944102  25.4369392
  76.9107494  54.6366141  24.3256820  80.0696642  52.3082366  28.3745225
  80.0918339  52.3721699  27.4197204  80.4864701  51.4686875  28.5685731
  90.4480266  62.0437625  26.4124447  90.8911412  61.2944951  26.0143571
  89.5706777  62.0347762  26.0298179  85.5816048  68.5967967  21.8931046
  86.2766952  69.2174660  22.1118360  85.9239198  67.7463318  22.1683424
  71.1983857  60.4185768  35.7527863  70.4565593  60.5668403  36.3392494
  70.8776601  60.6794034  34.8894613  87.4807471  66.0467672  23.4218377
  88.0058795  66.3854945  22.6967697  87.3929823  65.1114688  23.2381511
  79.1427519  69.9601746  35.5508253  79.4514646  69.7150893  36.4230953
  79.9403001  70.1648385  35.0627123  79.1648132  72.1139656  27.7813630
  78.7253122  71.6216034  28.4746486  79.9156248  71.5712623  27.5405705
  71.6440470  68.3051197  27.7838258  72.4698490  68.0054968  27.4036901
  71.2934522  67.5358819  28.2328047  76.6122004  67.6577665  29.8535931
  75.9902013  66.9948370  29.5538159  77.2826871  67.6838797  29.1709579
  69.8449076  66.2237523  28.7427191  69.0080984  65.7959697  28.5611193
  69.8172721  66.4169966  29.6797983  76.6846531  56.1359453  39.4468437
  76.7334687  57.0121576  39.0646207  77.2269045  55.5936846  38.8740081
  87.1701377  66.6800576  38.7269575  86.3796921  66.6624715  38.1874074
  86.9334731  67.2188870  39.4818611  87.2899252  63.5293042  36.0402303
  87.3397257  63.3643050  36.9817826  87.1813175  62.6620302  35.6500184
  76.1735511  66.2081588  23.3294392  76.3223631  66.8917053  22.6761065
  76.9801954  66.1886678  23.8443848  84.5803014  59.5123971  37.3561610
  85.4812877  59.3730435  37.0645608  84.6550989  59.6778425  38.2959787
  78.9145820  56.8890825  36.2014796  78.0449129  57.1824391  35.9297385
  79.1505300  57.4731270  36.9222060  88.7917449  65.9489984  36.2844325
  88.5002257  66.3119965  37.1207786  88.1789580  65.2356992  36.1057657
  89.9913131  63.5142864  28.8046895  90.8260022  63.9532668  28.9684455
  90.1272260  63.0381517  27.9855141  87.0404637  61.0722599  34.7524383
  87.5158759  61.2650245  33.9443234  86.1170202  61.1281784  34.5067766
  73.9288144  62.2346766  24.3355461  73.6834185  61.3309096  24.5335671
  74.0984058  62.2363916  23.3934939  81.6184853  53.1070442  33.7180217
  82.1366797  53.8431469  33.3926705  81.2639986  53.4134435  34.5526976
  73.1983791  57.9675123  21.8341622  72.5053036  58.0419478  21.1781658
  72.9535543  57.2035467  22.3563139  81.8697448  49.5270725  29.2381113
  82.1499201  48.8593914  29.8641540  82.6548055  49.7199820  28.7255777
  79.6730916  68.7029719  20.8006139  79.1004883  69.3219906  20.3476611
  80.2463710  69.2529080  21.3346061  85.7406306  57.9488359  32.9852688
  86.6923729  58.0486456  33.0064912  85.5709756  57.1566627  33.4950773
  83.7620685  55.0343942  33.1712089  83.1670618  55.3148955  32.4758578
  83.4770382  55.5237843  33.9428830  82.8928176  68.9866869  21.9314722
  83.8258849  68.9212430  22.1347597  82.8051389  69.8223136  21.4729254
  85.5216193  68.3032739  18.8918669  85.4429824  67.9692603  19.7854427
  86.3425859  68.7954507  18.8910142  88.2194384  61.1694478  32.0994988
  88.1870704  60.2310479  32.2854672  88.8295007  61.2478515  31.3660813
  80.0577715  60.0390531  18.1422192  81.0036819  59.9096739  18.2110610
  79.6791960  59.3005193  18.6191620  88.3688872  57.9605522  32.1453271
  87.8527921  57.1763978  31.9583200  89.2528821  57.6324238  32.3099791
  86.0299599  51.7046537  28.1049084  85.8324420  51.3961626  28.9892416
  86.6399305  52.4308176  28.2347014  94.0370934  62.2310485  31.2401025
  94.7674322  61.9695773  31.8008728  93.4277879  61.4939207  31.2803093
  92.1186231  60.3718348  31.8375476  91.3919394  60.2374313  31.2291967
  91.7033518  60.6795176  32.6432194  79.9416407  64.0908278  39.6022849
  80.8619417  64.2686877  39.7962895  79.9065990  63.1464323  39.4502548
  78.2420632  57.9640508  18.0777077  77.3352087  57.6673620  18.1539791
  78.5196613  57.6670326  17.2111363  69.1598572  59.2846871  28.5276124
  68.8401356  58.4312179  28.2350498  68.6132000  59.4995449  29.2834091
  72.9378480  62.0009312  32.2445630  73.1564489  62.9326420  32.2633664
  73.3504254  61.6417287  33.0300434  79.8582697  52.5077397  24.2321318
  79.0483426  52.1624482  24.6076565  80.5467114  52.1984941  24.8208930
  81.7873246  51.5855444  25.8545615  82.3404284  52.0050898  26.5135638
  82.0243332  50.6591192  25.8968571  77.8106345  57.5742518  41.6348379
  77.7103072  58.5236875  41.5660470  77.5927887  57.2460757  40.7624449
  77.0119416  54.8227443  18.2189056  77.8738580  55.1482341  18.4784874
  77.1969761  54.0358939  17.7062122  69.0286832  62.9049783  30.4969245
  68.3350304  62.4903735  29.9839200  69.7759823  62.9470319  29.9002664
  85.1652053  53.6955969  25.3624279  84.5850722  54.3540773  24.9802332
  84.8987986  52.8733314  24.9511697  83.6155619  53.0961027  27.5645600
  84.1155398  53.2077562  26.7559918  84.2591227  52.7922080  28.2046408
  77.6737615  61.0039657  40.4513441  77.1904697  61.8040017  40.6577330
  77.7598554  61.0147602  39.4980885  70.9423575  62.8368036  28.3735260
  70.9194263  62.9355724  27.4217143  71.2524211  63.6833187  28.6952426
  73.6010953  64.8944191  32.4881874  74.5554206  64.8628134  32.4211806
  73.4023476  64.4334815  33.3032100  74.1910335  63.4645308  35.0552672
  75.0103224  63.9589386  35.0787509  74.4647142  62.5477276  35.0270240
  83.9476931  55.8556060  24.4180628  83.0602786  56.1405710  24.2000822
  84.3630920  55.6949823  23.5707904  87.2991467  55.8802581  28.1334967
  88.0751857  56.3699033  28.4059584  86.5739601  56.3060635  28.5906836
  89.7364026  56.5930200  29.1908907  90.3308516  56.3525936  28.4802216
  89.8090609  55.8737331  29.8182444  71.9561181  70.4363811  29.5052072
  71.8215649  69.6764212  28.9390070  71.5393244  71.1604711  29.0380861
  83.0920144  65.6200734  18.5128648  83.7955994  65.8250737  19.1286303
  82.3682793  66.1877496  18.7777731  83.9217955  61.3710596  24.6330918
  83.8653156  61.8279147  23.7938550  84.4746297  60.6101280  24.4553761
  87.7322761  57.1600328  25.4581037  87.4759695  56.7596963  26.2889245
  87.1075629  57.8744122  25.3331176  92.0435098  59.8996401  27.9652329
  91.4834656  59.9689590  28.7383891  91.4378602  59.7237386  27.2451825
  75.1130307  71.3333128  29.7170515  74.9962691  72.2778560  29.6149205
  74.2922753  71.0306690  30.1056314  85.0006842  66.0583264  20.5627108
  85.8352446  65.6264462  20.3804582  84.8391185  65.8865277  21.4904002
  84.6552734  62.5615377  21.9283447  84.6001538  62.3959648  20.9871891
  84.0298789  63.2691410  22.0845637  69.4445249  57.7983441  35.7544869
  70.0904113  57.2882395  36.2432094  69.2362400  58.5352123  36.3288294
  81.9698641  64.8664289  41.2537010  82.8389801  65.0404941  40.8923645
  81.4905393  65.6858706  41.1312739  77.9648859  52.0623486  21.5068765
  77.9527529  53.0065326  21.6637036  78.8572281  51.8793631  21.2128227
  76.1384821  71.9861390  32.9326443  77.0412068  72.0185000  33.2492938
  75.9122191  71.0561841  32.9472779  77.8938423  70.7392376  29.5936522
  76.9434054  70.7394238  29.4800894  78.1970909  69.9925111  29.0772557
  81.7800979  48.6566263  25.7614702  81.0133375  48.1024749  25.9071384
  82.1911684  48.7288131  26.6228854  73.7842740  54.9451058  39.8519883
  74.6474201  54.5887863  40.0623208  73.2108151  54.6064953  40.5395288
  93.6291117  76.5752915  30.6582284  94.2669527  76.4559662  29.9545624
  93.5111960  77.5233759  30.7170237  90.4380823  76.5280343  30.5943809
  90.0999335  76.4121408  29.7064344  91.3070591  76.1271508  30.5744815
  86.2967639  78.3815819  26.5840700  85.7332504  78.2905756  25.8156988
  86.1820034  77.5615724  27.0643193  83.8432071  79.8767011  29.4224920
  84.6353363  79.5357836  29.0071220  84.0828721  79.9861986  30.3427074
  91.8767198  82.0486787  21.8955165  91.2255177  82.6340867  21.5089179
  92.6711560  82.5792982  21.9550202  85.8022825  79.1375924  22.2942299
  86.5753701  78.5904911  22.1555175  86.1548224  80.0020174  22.5056761
  88.5664074  77.8429155  32.0910558  89.1627646  77.6185177  31.3767521
  88.6239046  77.1013900  32.6936006  88.1389103  75.2968590  19.9260749
  88.3914623  74.7750112  19.1644212  87.2013662  75.1334736  20.0287433
  93.1832385  74.3004369  27.7335492  93.9695475  73.8823792  27.3825909
  93.4471090  75.2050461  27.9017141  93.3542463  79.7377219  22.4324149
  92.7188296  79.8111845  23.1445054  93.0239869  80.3270818  21.7543228
  98.5840812  74.2379602  28.6368471  99.3165984  73.6678819  28.8706300
  97.8280168  73.8501202  29.0774977  87.8585391  77.1996696  22.1285124
  87.7421649  76.5241600  22.7966208  87.9687651  76.7129070  21.3117277
  90.2016932  76.6606843  25.8331813  89.8375139  76.1337464  26.5444735
  91.0584048  76.2705312  25.6598299  96.1066233  67.9501176  33.0963080
  95.7749558  68.8196587  32.8724295  95.5111846  67.6337460  33.7757110
  89.8422419  71.6896743  20.8293162  90.0096822  72.5576979  21.1963633
  89.6519588  71.8524025  19.9054451  86.0510234  76.6027519  28.5295697
  85.1260730  76.4703733  28.7373388  86.2994647  77.3821738  29.0265639
  95.9994896  72.6696262  30.1756430  95.0911773  72.6011671  29.8815191
  95.9482492  73.1468207  31.0038255  89.8211640  74.1454401  21.8139829
  89.7011265  74.5911451  22.6525309  89.1264228  74.4939718  21.2553367
  83.4119045  76.2460792  29.3639486  83.5411426  76.4995271  30.2778897
  82.7316496  76.8388500  29.0444141  87.5818532  86.9158042  25.4629960
  87.5042562  87.8665867  25.5418441  86.9780176  86.5703915  26.1204886
  90.0735762  74.0885908  38.1191327  89.2969096  74.6479828  38.1094191
  90.7126325  74.5742691  38.6406197  97.8656543  70.8712701  31.9534304
  97.2230923  71.1645234  31.3074098  97.3611471  70.7565621  32.7587500
  95.5196706  74.6175874  22.6420163  96.4314562  74.8503260  22.4667860
  95.0106353  75.2012918  22.0795241  88.3282134  76.8971361  37.6809294
  89.0696819  77.4356405  37.4044117  87.6219120  77.5237650  37.8380846
  90.1568544  73.9773108  33.6515012  91.0029739  74.4012522  33.7949661
  90.0967182  73.3206733  34.3453575  94.1266288  79.6001692  30.0333744
  93.4975151  79.7647406  29.3309812  93.7391951  80.0143302  30.8044708
  98.0055520  80.5356130  27.3878108  97.3206559  80.9155031  26.8375141
  98.0899370  81.1451457  28.1210056  93.3067989  71.6377477  35.3096186
  93.0628921  72.3919537  34.7730462  93.5827920  72.0162824  36.1443433
  92.8632681  70.7933910  30.8910024  92.0017160  71.0915163  31.1826761
  92.8895116  71.0104309  29.9591056  89.6794250  79.3376100  27.2983829
  90.1432596  79.6163803  26.5088452  89.4151048  78.4359545  27.1156920
  86.5718331  78.8847582  30.2363593  87.1419688  79.3134850  29.5981077
  87.1626443  78.6030167  30.9347778  88.6163136  75.4599253  24.1073394
  89.3187180  75.9120296  24.5747321  88.2843765  74.8183072  24.7353288
  87.0643498  74.0511009  38.4824604  86.4342159  74.7327290  38.7160001
  86.9579586  73.9394091  37.5377742  82.3588470  73.7182805  29.4090528
  81.5687524  73.9740334  28.9330639  82.8499718  74.5331143  29.5142569
  96.3752280  81.0588044  32.1595809  97.1969724  80.6568232  31.8778490
  96.3714683  80.9556279  33.1111925  84.3103216  74.0827385  26.3674005
  83.5134379  74.1946079  26.8857500  84.0828808  74.4214037  25.5014895
  80.6426173  73.9713296  31.8405519  80.8934212  74.8560306  32.1063095
  81.1785722  73.7917897  31.0680611 104.4658273  77.4026793  28.5080780
 103.7121981  76.8334191  28.3524785 104.6005814  77.3689457  29.4551415
  89.8556901  82.2740195  24.1835500  89.7202576  83.1191731  24.6120347
  90.3966714  82.4759473  23.4201433  86.3424241  68.3531775  40.8449855
  85.9491186  67.7997974  41.5197499  87.1590381  68.6642354  41.2356372
  83.3086298  79.7915633  24.7563425  83.8210819  80.5858884  24.9068989
  83.9609011  79.0941924  24.6897026  85.1181183  82.9081390  26.8386178
  85.2947811  83.8299354  26.6507162  85.9138017  82.5939809  27.2680558
  89.2592202  69.7689654  38.4370111  90.0001915  70.3696807  38.3574574
  89.4910124  69.0267292  37.8788154  84.4033540  74.9546021  36.7148341
  84.2887055  74.0531279  37.0155440  83.5478057  75.2009718  36.3633158
  93.2049365  65.7970757  32.7134393  92.8613634  66.6872399  32.6373504
  93.5728327  65.6072415  31.8503978  81.2735215  78.1204288  25.5322995
  82.1110437  78.5301296  25.3156703  81.4513483  77.1803730  25.5023189
  93.1699647  75.7879368  21.2206828  92.6546271  76.5583973  21.4595216
  92.8976956  75.1144504  21.8439890  90.7546758  70.6329069  26.2792067
  89.8988355  70.2435919  26.0997705  91.1673710  70.7121030  25.4191852
  92.2845905  68.1675412  30.6783626  91.7810701  68.1305547  29.8651432
  92.5776512  69.0768155  30.7380283  88.5288791  68.2514142  29.6849808
  89.3941788  68.0556951  29.3255698  88.5966300  68.0224494  30.6119165
  98.1433921  78.5411723  23.1560002  97.3663364  78.2022882  22.7115164
  98.8225402  78.5464346  22.4814967  92.9585951  73.6606460  23.0466609
  92.6536086  73.9752610  23.8976753  93.9116393  73.7387880  23.0893942
  91.4032382  79.8196684  24.6959563  90.8753744  79.0849443  24.3832801
  90.9019885  80.5971360  24.4499532  96.3825228  78.0145704  29.8126610
  95.7248903  78.7044966  29.9006738  97.1865628  78.4042136  30.1560596
  86.1351110  70.4816350  27.0566175  86.7094862  70.2591531  26.3239368
  86.7222092  70.5505044  27.8094776  95.1930687  76.3690077  27.8630551
  95.7062569  77.0020069  28.3652261  95.8431911  75.7691272  27.4973911
  86.4620697  72.5120811  21.0762060  85.6258009  72.8495498  21.3971335
  86.3225467  72.3769791  20.1389197  88.4373778  67.3557599  25.7841244
  87.7838190  67.0406616  25.1597859  88.3954252  66.7333339  26.5101067
  89.5484983  77.6376894  17.6994536  88.6412044  77.4066147  17.8985685
  90.0456015  76.8414513  17.8868518  92.4553061  86.3474401  20.6191223
  91.7814760  86.6506098  21.2276180  92.8418883  87.1503481  20.2696680
  91.6711518  73.8439532  30.1088892  90.7534079  74.0654479  29.9510580
  92.0871662  73.9185843  29.2500599  92.4546566  75.2430948  25.2391572
  93.2018385  75.7552345  24.9298694  92.7238155  74.9215001  26.0995966
  90.7273216  77.7389489  22.2218527  89.8184435  77.4548522  22.3190996
  90.7568300  78.1588567  21.3621833  95.9592483  81.3496078  25.9909694
  95.5054810  80.5086988  26.0474885  95.3286450  81.9857477  26.3284474
  94.9025403  72.2788064  27.2210362  94.1648160  71.7665451  27.5520604
  95.1552176  71.8388446  26.4093638  94.4025423  83.1872575  26.9259512
  94.6948397  83.7477632  26.2071878  94.9124043  83.4801136  27.6812671
  95.0037030  65.0564316  27.8152131  95.3095907  64.1961680  27.5278046
  95.7289635  65.6481937  27.6151125  81.2961386  75.4595003  26.2033729
  81.0985786  74.8664364  25.4784795  80.7408050  75.1547213  26.9209668
  89.2758110  75.3518109  28.3228322  89.3306720  74.3991946  28.2470798
  88.4649312  75.5077548  28.8069620  90.4249304  79.2798232  19.5606605
  89.9868734  78.5634091  19.1012242  91.1659745  79.5074347  18.9991697
  87.2150470  73.9695169  26.0818701  86.4018335  74.2689340  26.4883893
  87.7109464  73.5750858  26.7993183  89.3659048  83.9652926  28.0152965
  89.3235227  84.1913772  27.0861497  90.2821747  83.7316301  28.1638767
  92.8124682  74.4336994  34.9133595  93.1674069  74.6608467  35.7728060
  93.4596813  74.7655370  34.2910850  98.5422419  77.5555430  25.6182924
  98.4040317  77.7457025  24.6904113  98.1858637  78.3174812  26.0750975
  86.7064545  71.5413525  31.6979936  87.3463924  71.4002284  31.0002899
  85.8742075  71.2548038  31.3218538  98.5691798  79.6231957  30.6294195
  99.0028305  79.5307246  31.4777249  99.2823379  79.5989457  29.9914211
  87.4824849  80.8415955  27.8114928  88.2765447  80.3466275  27.6097503
  86.7716541  80.3133818  27.4482634  92.3019693  83.2234051  32.1627296
  92.3556715  83.7924987  32.9305012  91.4334474  83.3935936  31.7981333
  83.7907612  74.9859037  23.8874681  82.8605200  74.9243492  24.1044643
  83.8865084  74.4634990  23.0911322  83.7093161  71.5113850  26.4752923
  83.9699978  72.4259183  26.3662083  84.5310333  71.0438292  26.6249535
  85.1818086  72.9251607  33.6451747  85.8541140  72.7168969  32.9964396
  84.3547873  72.7273693  33.2056979  91.0843658  69.5513548  35.6617408
  90.4371573  70.2503497  35.5681884  91.8544674  69.9849692  36.0293656
  91.2607793  77.3894313  33.7214228  92.1899853  77.5405472  33.5483195
  90.8398823  77.4778333  32.8662874  90.0596125  81.4144977  31.4912765
  89.9207210  81.0463761  32.3638703  89.2710721  81.9292617  31.3196723
  90.6544277  86.5154074  22.8338302  90.8296032  86.0442117  23.6483924
  89.9677065  87.1419840  23.0619563  91.6101340  80.7926580  28.8801603
  91.2751172  80.7527350  29.7759253  91.1105285  80.1271296  28.4072013
  85.5845584  76.1994210  34.4054184  85.4465382  75.4674449  35.0065723
  86.4950507  76.1103110  34.1238372  94.5460531  78.1382614  19.1538663
  93.9289702  77.4129442  19.0571715  94.0777020  78.8991974  18.8105737
  88.2127884  75.9114169  33.8937864  88.9227503  75.2707361  33.8524482
  88.1697193  76.1627064  34.8164045  86.9256818  72.8979387  35.7133503
  86.3894175  72.4470125  36.3655100  86.3373527  73.0325296  34.9703968
  85.2205362  89.6643436  29.6078162  85.4601960  90.2961960  30.2857181
  84.3774558  89.3131476  29.8943521  86.3359077  72.3568038  18.2759967
  85.4588544  72.2356839  17.9122214  86.8116830  71.5654117  18.0238856
  77.8561217  77.1445198  28.3701474  78.5432257  76.8306928  27.7822489
  77.7009346  78.0486563  28.0968726  82.6595940  72.0335395  32.7986498
  82.5754128  71.4261064  32.0636908  81.8378646  72.5244413  32.7995994
  89.5223003  84.7094329  25.5222487  88.7390525  85.2516009  25.6160712
  90.2215749  85.2268308  25.9216729  92.8319653  70.5188958  28.1656693
  93.3288353  69.7658921  27.8457763  92.0606635  70.5553275  27.5999902
  93.9149434  79.2760645  25.7395116  92.9805713  79.3962108  25.5699821
  94.0926103  78.3733112  25.4755126  89.4154622  72.6606341  27.8928377
  89.0452410  72.1077382  28.5809283  89.9113715  72.0564475  27.3403378
  97.3021985  75.1177965  26.2745150  97.7682438  75.9505956  26.2005453
  97.7529486  74.6522946  26.9790409  95.3698217  81.4621786  23.2731302
  95.6458060  81.3478381  24.1825177  94.5002715  81.0639271  23.2343476
  95.2738648  67.4858552  30.3136052  94.3601728  67.7162779  30.4818259
  95.7031750  67.5696996  31.1650084  95.0445107  75.6748444  32.8135946
  94.3916557  75.9224351  32.1588399  95.4225487  74.8612582  32.4798423
  92.0052281  85.7108137  26.9164116  92.1874675  84.8929793  27.3791868
  92.8285267  85.9275829  26.4789006  92.3394446  84.6376322  24.1779165
  92.8682213  84.1268777  23.5649327  92.6022666  84.3218852  25.0424698
  91.0932680  76.4168255  39.3001983  90.4173317  76.3162384  39.9704358
  91.9160314  76.2607468  39.7637980  85.6950194  85.6891439  26.9376940
  85.0260569  86.1737566  26.4540981  85.5563064  85.9360659  27.8520319
  77.4329194  75.2245792  30.6418941  77.4713293  74.6909382  31.4356059
  76.9269486  74.6980997  30.0229918  84.8119956  70.0710332  34.1381484
  84.8761282  70.9325163  33.7258881  84.7487076  69.4584334  33.4053842
  84.2872228  72.1433465  37.7854518  84.9144267  71.7610542  38.3992042
  83.4300147  71.9247666  38.1510210  81.0637771  73.9509894  23.7172873
  81.3591212  73.0420572  23.6639926  80.1625807  73.9297633  23.3953875
  92.9723850  85.6717158  30.5223281  92.8474989  84.8706898  30.0134227
  93.6302941  86.1663351  30.0337251  84.5932018  72.0265890  29.7000421
  83.8718604  72.6401858  29.5607895  85.3825274  72.5623655  29.6217067
  95.0358758  83.4726178  32.1502831  94.0889094  83.3531529  32.0781158
  95.3841531  82.5848676  32.2329093  87.3958332  69.3620317  35.9741073
  87.9192733  69.6082613  36.7367382  87.1770665  70.1940352  35.5544210
  82.7925613  71.6323991  23.8412198  82.4638319  70.7521370  23.6587304
  83.1464983  71.5771660  24.7288587  92.0405192  83.2678894  28.3507183
  91.8930154  82.3395601  28.5314753  92.8658685  83.2898985  27.8664259
  85.9067436  71.9196961  24.2087675  86.2463508  72.4482882  23.4866284
  86.3539556  72.2577367  24.9846242  95.6439313  84.0907453  29.4372056
  96.5685861  83.8850314  29.2996507  95.4754617  83.8423854  30.3461398
  88.6010877  70.3034012  33.6590744  88.2607697  69.5041825  34.0611423
  87.8949883  70.6035723  33.0867577  89.2527349  67.3883324  32.1118067
  90.0753418  66.9143802  31.9896957  89.4965412  68.1673808  32.6116753
  87.8935583  70.4171583  22.4080968  88.6143946  70.7952835  21.9044685
  87.2700887  71.1360460  22.5115946  92.0366706  71.1216732  23.3439301
  92.2530320  72.0041370  23.0428129  91.5560773  70.7302945  22.6144943
  86.7765927  74.0802445  29.9210045  86.6310508  74.3942748  30.8134327
  86.2991131  74.6987345  29.3680944  88.6362310  71.0704993  29.9690935
  88.6223879  70.1746086  29.6323233  89.3534738  71.0775657  30.6029221
  90.4888441  71.5042333  32.0144062  90.2306219  72.4259404  32.0128393
  89.9573481  71.1072768  32.7044526  95.4334630  84.6093120  24.7934148
  95.6071507  84.0439543  24.0408000  95.9263521  85.4094015  24.6113637
  81.2511589  76.6207789  32.8597706  80.7065058  77.3967597  32.9917981
  82.1290939  76.9678594  32.7016828  88.0399206  69.9519373  25.2378505
  88.1615117  69.0236019  25.4369392  87.7501248  69.9658059  24.3256820
  90.9090396  67.6374284  28.3745225  90.9312093  67.7013617  27.4197204
  91.3258455  66.7978792  28.5685731 101.2874021  77.3729543  26.4124447
 101.7305167  76.6236868  26.0143571 100.4100531  77.3639680  26.0298179
  96.4209802  83.9259885  21.8931046  97.1160707  84.5466577  22.1118360
  96.7632952  83.0755236  22.1683424  82.0377611  75.7477686  35.7527863
  81.2959347  75.8960321  36.3392494  81.7170356  76.0085951  34.8894613
  98.3201225  81.3759590  23.4218377  98.8452549  81.7146863  22.6967697
  98.2323578  80.4406605  23.2381511  90.0041886  87.4431573  27.7813630
  89.5646876  86.9507952  28.4746486  90.7550003  86.9004541  27.5405705
  82.4834225  83.6343114  27.7838258  83.3092245  83.3346886  27.4036901
  82.1328277  82.8650737  28.2328047  87.4515758  82.9869583  29.8535931
  86.8295767  82.3240288  29.5538159  88.1220625  83.0130714  29.1709579
  80.6842830  81.5529441  28.7427191  79.8474738  81.1251615  28.5611193
  80.6566475  81.7461884  29.6797983  87.5240286  71.4651371  39.4468437
  87.5728441  72.3413493  39.0646207  88.0662800  70.9228764  38.8740081
  87.0129265  81.5373506  23.3294392  87.1617385  82.2208970  22.6761065
  87.8195709  81.5178596  23.8443848  95.4196769  74.8415888  37.3561610
  96.3206632  74.7022353  37.0645608  95.4944743  75.0070343  38.2959787
  89.7539574  72.2182743  36.2014796  88.8842883  72.5116309  35.9297385
  89.9899054  72.8023188  36.9222060 100.8306886  78.8434781  28.8046895
 101.6653777  79.2824586  28.9684455 100.9666014  78.3673435  27.9855141
  84.7681898  77.5638683  24.3355461  84.5227940  76.6601013  24.5335671
  84.9377813  77.5655834  23.3934939  92.4578608  68.4362360  33.7180217
  92.9760552  69.1723387  33.3926705  92.1033741  68.7426353  34.5526976
  84.0377546  73.2967041  21.8341622  83.3446791  73.3711396  21.1781658
  83.7929297  72.5327385  22.3563139  92.7091202  64.8562642  29.2381113
  92.9892956  64.1885831  29.8641540  93.4941809  65.0491738  28.7255777
  90.5124671  84.0321636  20.8006139  89.9398638  84.6511823  20.3476611
  91.0857464  84.5820998  21.3346061  94.6014440  70.3635860  33.1712089
  94.0064372  70.6440872  32.4758578  94.3164137  70.8529761  33.9428830
  93.7321930  84.3158786  21.9314722  94.6652604  84.2504348  22.1347597
  93.6445143  85.1515053  21.4729254  96.3609947  83.6324657  18.8918669
  96.2823579  83.2984520  19.7854427  97.1819614  84.1246425  18.8910142
  90.8971469  75.3682449  18.1422192  91.8430574  75.2388657  18.2110610
  90.5185714  74.6297111  18.6191620  96.8693354  67.0338455  28.1049084
  96.6718175  66.7253543  28.9892416  97.4793059  67.7600094  28.2347014
 104.8764688  77.5602403  31.2401025 105.6068077  77.2987691  31.8008728
 104.2671634  76.8231125  31.2803093  90.7810162  79.4200195  39.6022849
  91.7013171  79.5978794  39.7962895  90.7459745  78.4756241  39.4502548
  89.0814386  73.2932425  18.0777077  88.1745842  72.9965538  18.1539791
  89.3590367  72.9962244  17.2111363  79.9992327  74.6138789  28.5276124
  79.6795111  73.7604097  28.2350498  79.4525755  74.8287367  29.2834091
  83.7772234  77.3301230  32.2445630  83.9958244  78.2618338  32.2633664
  84.1898008  76.9709204  33.0300434  90.6976452  67.8369315  24.2321318
  89.8877180  67.4916400  24.6076565  91.3860869  67.5276859  24.8208930
  92.6267000  66.9147362  25.8545615  93.1798039  67.3342815  26.5135638
  92.8637087  65.9883110  25.8968571  88.6500099  72.9034436  41.6348379
  88.5496826  73.8528793  41.5660470  88.4321642  72.5752675  40.7624449
  87.8513171  70.1519361  18.2189056  88.7132335  70.4774259  18.4784874
  88.0363515  69.3650857  17.7062122  79.8680587  78.2341700  30.4969245
  79.1744058  77.8195653  29.9839200  80.6153578  78.2762237  29.9002664
  96.0045807  69.0247887  25.3624279  95.4244476  69.6832691  24.9802332
  95.7381740  68.2025232  24.9511697  94.4549374  68.4252945  27.5645600
  94.9549152  68.5369479  26.7559918  95.0984982  68.1213998  28.2046408
  88.5131370  76.3331574  40.4513441  88.0298451  77.1331935  40.6577330
  88.5992309  76.3439519  39.4980885  81.7817329  78.1659954  28.3735260
  81.7588017  78.2647641  27.4217143  82.0917966  79.0125105  28.6952426
  94.7870685  71.1847978  24.4180628  93.8996540  71.4697628  24.2000822
  95.2024674  71.0241741  23.5707904  98.1385222  71.2094498  28.1334967
  98.9145612  71.6990951  28.4059584  97.4133356  71.6352553  28.5906836
 100.5757780  71.9222118  29.1908907 101.1702271  71.6817854  28.4802216
 100.6484364  71.2029248  29.8182444  82.7954936  85.7655729  29.5052072
  82.6609404  85.0056130  28.9390070  82.3786998  86.4896629  29.0380861
  93.9313899  80.9492652  18.5128648  94.6349749  81.1542655  19.1286303
  93.2076548  81.5169414  18.7777731  94.7611709  76.7002513  24.6330918
  94.7046911  77.1571065  23.7938550  95.3140052  75.9393198  24.4553761
  98.5716515  72.4892245  25.4581037  98.3153449  72.0888881  26.2889245
  97.9469383  73.2036039  25.3331176 102.8828853  75.2288319  27.9652329
 102.3228411  75.2981508  28.7383891 102.2772356  75.0529303  27.2451825
  85.9524062  86.6625046  29.7170515  85.8356446  87.6070478  29.6149205
  85.1316508  86.3598607  30.1056314  95.8400596  81.3875181  20.5627108
  96.6746200  80.9556380  20.3804582  95.6784939  81.2157195  21.4904002
  95.4946488  77.8907295  21.9283447  95.4395292  77.7251566  20.9871891
  94.8692544  78.5983328  22.0845637  80.2839003  73.1275359  35.7544869
  80.9297867  72.6174313  36.2432094  80.0756155  73.8644041  36.3288294
  88.8042614  67.3915404  21.5068765  88.7921284  68.3357244  21.6637036
  89.6966036  67.2085549  21.2128227  88.7332178  86.0684294  29.5936522
  87.7827809  86.0686156  29.4800894  89.0364664  85.3217029  29.0772557
  92.6194733  63.9858180  25.7614702  91.8527129  63.4316667  25.9071384
  93.0305438  64.0580049  26.6228854  84.6236494  70.2742976  39.8519883
  85.4867956  69.9179781  40.0623208  84.0501905  69.9356871  40.5395288
 104.4684871  91.9044832  30.6582284 105.1063281  91.7851580  29.9545624
 104.3505714  92.8525676  30.7170237 101.2774578  91.8572261  30.5943809
 100.9393089  91.7413325  29.7064344 102.1464346  91.4563426  30.5744815
  97.1361393  93.7107737  26.5840700  96.5726258  93.6197674  25.8156988
  97.0213788  92.8907641  27.0643193 101.7594361  93.0107112  36.5530015
 101.7483001  92.6159911  35.6810518 101.9215000  92.2773185  37.1463786
  94.6825825  95.2058929  29.4224920  95.4747117  94.8649753  29.0071220
  94.9222475  95.3153904  30.3427074 102.7160952  97.3778705  21.8955165
 102.0648932  97.9632785  21.5089179 103.5105315  97.9084900  21.9550202
  96.6416579  94.4667842  22.2942299  97.4147455  93.9196829  22.1555175
  96.9941978  95.3312091  22.5056761  98.4801622  95.7944224  35.5009199
  98.1891488  96.6989855  35.3855865  99.1158606  95.8360752  36.2153268
  99.4057829  93.1721073  32.0910558 100.0021401  92.9477095  31.3767521
  99.4632800  92.4305818  32.6936006  98.9782857  90.6260508  19.9260749
  99.2308378  90.1042029  19.1644212  98.0407416  90.4626653  20.0287433
 104.0226140  89.6296286  27.7335492 104.8089229  89.2115710  27.3825909
 104.2864844  90.5342379  27.9017141 104.1936217  95.0669137  22.4324149
 103.5582050  95.1403763  23.1445054 103.8633624  95.6562735  21.7543228
 109.4234567  89.5671520  28.6368471 110.1559739  88.9970736  28.8706300
 108.6673923  89.1793120  29.0774977  98.6979146  92.5288614  22.1285124
  98.5815404  91.8533517  22.7966208  98.8081406  92.0420988  21.3117277
 101.0410687  91.9898761  25.8331813 100.6768894  91.4629382  26.5444735
 101.8977803  91.5997230  25.6598299 106.9459987  83.2793094  33.0963080
 106.6143312  84.1488505  32.8724295 106.3505601  82.9629378  33.7757110
 100.6816174  87.0188661  20.8293162 100.8490576  87.8868897  21.1963633
 100.4913343  87.1815942  19.9054451 103.4391507  95.4805640  32.4958992
 103.1392230  96.3830678  32.3874799 103.0942566  95.2137823  33.3480145
  96.8903988  91.9319436  28.5295697  95.9654485  91.7995651  28.7373388
  97.1388402  92.7113656  29.0265639 106.8388651  87.9988180  30.1756430
 105.9305528  87.9303588  29.8815191 106.7876246  88.4760125  31.0038255
 100.6605395  89.4746318  21.8139829 100.5405020  89.9203369  22.6525309
  99.9657983  89.8231636  21.2553367  94.2512799  91.5752710  29.3639486
  94.3805181  91.8287189  30.2778897  93.5710251  92.1680418  29.0444141
  98.4212287 102.2449960  25.4629960  98.3436316 103.1957785  25.5418441
  97.8173930 101.8995832  26.1204886 100.9129516  89.4177825  38.1191327
 100.1362850  89.9771746  38.1094191 101.5520079  89.9034608  38.6406197
 108.7050297  86.2004618  31.9534304 108.0624677  86.4937151  31.3074098
 108.2005226  86.0857539  32.7587500 106.3590461  89.9467791  22.6420163
 107.2708317  90.1795178  22.4667860 105.8500108  90.5304836  22.0795241
  99.1675889  92.2263279  37.6809294  99.9090573  92.7648323  37.4044117
  98.4612874  92.8529568  37.8380846 104.6431228  94.3692419  36.2781455
 105.0514584  93.9274830  35.5336088 103.9208490  93.7945047  36.5315648
 100.9962298  89.3065026  33.6515012 101.8423494  89.7304440  33.7949661
 100.9360936  88.6498650  34.3453575 104.9660043  94.9293610  30.0333744
 104.3368905  95.0939324  29.3309812 104.5785705  95.3435219  30.8044708
 108.8449275  95.8648048  27.3878108 108.1600313  96.2446949  26.8375141
 108.9293124  96.4743374  28.1210056 104.1461744  86.9669394  35.3096186
 103.9022676  87.7211455  34.7730462 104.4221674  87.3454742  36.1443433
 106.1000206  93.5108007  33.9873452 106.3117102  94.1539767  33.3107833
 106.0529955  92.6770323  33.5195382 103.7026435  86.1225827  30.8910024
 102.8410914  86.4207081  31.1826761 103.7288870  86.3396226  29.9591056
 100.5188005  94.6668018  27.2983829 100.9826350  94.9455721  26.5088452
 100.2544803  93.7651463  27.1156920  97.4112086  94.2139499  30.2363593
  97.9813443  94.6426768  29.5981077  98.0020198  93.9322084  30.9347778
  99.4556891  90.7891170  24.1073394 100.1580934  91.2412214  24.5747321
  99.1237519  90.1474989  24.7353288  93.1982225  89.0474723  29.4090528
  92.4081279  89.3032252  28.9330639  93.6893472  89.8623061  29.5142569
 107.2146034  96.3879962  32.1595809 108.0363478  95.9860149  31.8778490
 107.2108437  96.2848196  33.1111925  95.1496970  89.4119302  26.3674005
  94.3528134  89.5237996  26.8857500  94.9222562  89.7505954  25.5014895
 100.9802638  95.9364005  34.3156519 101.0447070  96.3984413  35.1514691
 100.2713562  95.3061370  34.4438829 115.3052027  92.7318711  28.5080780
 114.5515736  92.1626109  28.3524785 115.4399569  92.6981375  29.4551415
 100.6950656  97.6032113  24.1835500 100.5596330  98.4483649  24.6120347
 101.2360468  97.8051391  23.4201433  94.1480053  95.1207551  24.7563425
  94.6604573  95.9150801  24.9068989  94.8002766  94.4233841  24.6897026
  95.9574938  98.2373307  26.8386178  96.1341566  99.1591272  26.6507162
  96.7531771  97.9231726  27.2680558 102.3219132  98.2255679  38.3135842
 101.8782986  97.4392058  37.9956746 102.9836345  98.4134830  37.6479733
  97.0806253  99.7551481  32.8396520  97.6313678  99.6268544  32.0673514
  96.2417729 100.0546370  32.4891413 104.4200370  98.5058479  36.3417243
 104.4018845  99.3267360  35.8497512 105.3420290  98.3812555  36.5667384
 100.8773424  96.0202609  37.1840751 101.4101761  95.2590897  36.9540059
 100.3487505  95.7276261  37.9264906 104.0443119  81.1262675  32.7134393
 103.7007388  82.0164317  32.6373504 104.4122082  80.9364332  31.8503978
  92.1128970  93.4496205  25.5322995  92.9504192  93.8593214  25.3156703
  92.2907237  92.5095647  25.5023189 104.0093402  91.1171286  21.2206828
 103.4940025  91.8875891  21.4595216 103.7370710  90.4436422  21.8439890
 101.5940513  85.9620987  26.2792067 100.7382109  85.5727837  26.0997705
 102.0067465  86.0412948  25.4191852 103.1239659  83.4967330  30.6783626
 102.6204455  83.4597465  29.8651432 103.4170266  84.4060073  30.7380283
  99.3682545  83.5806060  29.6849808 100.2335542  83.3848868  29.3255698
  99.4360054  83.3516411  30.6119165 108.9827676  93.8703641  23.1560002
 108.2057119  93.5314800  22.7115164 109.6619157  93.8756264  22.4814967
 103.7979705  88.9898378  23.0466609 103.4929841  89.3044527  23.8976753
 104.7510147  89.0679798  23.0893942 102.2426137  95.1488601  24.6959563
 101.7147498  94.4141361  24.3832801 101.7413640  95.9263278  24.4499532
 107.2218983  93.3437622  29.8126610 106.5642657  94.0336883  29.9006738
 108.0259382  93.7334054  30.1560596  96.9744864  85.8108268  27.0566175
  97.5488616  85.5883449  26.3239368  97.5615847  85.8796962  27.8094776
 106.0324442  91.6981995  27.8630551 106.5456323  92.3311986  28.3652261
 106.6825666  91.0983190  27.4973911  97.3014452  87.8412729  21.0762060
  96.4651764  88.1787415  21.3971335  97.1619221  87.7061708  20.1389197
  99.2767532  82.6849517  25.7841244  98.6231945  82.3698534  25.1597859
  99.2348006  82.0625257  26.5101067 100.3878737  92.9668812  17.6994536
  99.4805799  92.7358065  17.8985685 100.8849769  92.1706431  17.8868518
 103.2946816 101.6766319  20.6191223 102.6208515 101.9798016  21.2276180
 103.6812638 102.4795399  20.2696680 102.5105273  89.1731450  30.1088892
 101.5927834  89.3946397  29.9510580 102.9265416  89.2477761  29.2500599
 103.2940320  90.5722866  25.2391572 104.0412139  91.0844263  24.9298694
 103.5631910  90.2506918  26.0995966 101.5666970  93.0681406  22.2218527
 100.6578190  92.7840439  22.3190996 101.5962054  93.4880485  21.3621833
 106.7986238  96.6787996  25.9909694 106.3448565  95.8378906  26.0474885
 106.1680205  97.3149394  26.3284474 105.7419157  87.6079982  27.2210362
 105.0041914  87.0957368  27.5520604 105.9945931  87.1680364  26.4093638
 105.2419177  98.5164493  26.9259512 105.5342151  99.0769550  26.2071878
 105.7517798  98.8093054  27.6812671 105.8430785  80.3856234  27.8152131
 106.1489662  79.5253597  27.5278046 106.5683390  80.9773854  27.6151125
  92.1355141  90.7886921  26.2033729  91.9379541  90.1956281  25.4784795
  91.5801805  90.4839131  26.9209668 100.1151864  90.6810027  28.3228322
 100.1700474  89.7283863  28.2470798  99.3043067  90.8369466  28.8069620
 101.2643058  94.6090150  19.5606605 100.8262488  93.8926009  19.1012242
 102.0053499  94.8366265  18.9991697  98.0544224  89.2987087  26.0818701
  97.2412090  89.5981257  26.4883893  98.5503219  88.9042776  26.7993183
 100.2052802  99.2944844  28.0152965 100.1628981  99.5205690  27.0861497
 101.1215501  99.0608218  28.1638767 103.6518436  89.7628911  34.9133595
 104.0067824  89.9900384  35.7728060 104.2990567  90.0947288  34.2910850
 109.3816173  92.8847347  25.6182924 109.2434072  93.0748943  24.6904113
 109.0252392  93.6466730  26.0750975  97.5458299  86.8705442  31.6979936
  98.1857679  86.7294201  31.0002899  96.7135830  86.5839956  31.3218538
 109.4085553  94.9523874  30.6294195 109.8422059  94.8599163  31.4777249
 110.1217133  94.9281375  29.9914211  98.3218603  96.1707873  27.8114928
  99.1159202  95.6758193  27.6097503  97.6110295  95.6425736  27.4482634
 103.1413448  98.5525968  32.1627296 103.1950470  99.1216905  32.9305012
 102.2728229  98.7227853  31.7981333  94.6301367  90.3150955  23.8874681
  93.6998955  90.2535410  24.1044643  94.7258839  89.7926907  23.0911322
  94.5486916  86.8405767  26.4752923  94.8093733  87.7551101  26.3662083
  95.3704088  86.3730210  26.6249535  96.0211841  88.2543525  33.6451747
  96.6934894  88.0460887  32.9964396  95.1941627  88.0565611  33.2056979
 110.2701102  94.9947575  33.1627081 110.4636992  95.8993385  33.4086356
 110.1701720  94.5354994  33.9965666 101.9237413  84.8805465  35.6617408
 101.2765328  85.5795415  35.5681884 102.6938428  85.3141609  36.0293656
 105.3316211  95.1454318  38.7367961 105.1801717  94.9164869  37.8198045
 105.3220890  96.1024919  38.7499306 102.1001547  92.7186230  33.7214228
 103.0293607  92.8697390  33.5483195 101.6792577  92.8070251  32.8662874
 100.8989879  96.7436895  31.4912765 100.7600965  96.3755679  32.3638703
 100.1104475  97.2584534  31.3196723 101.4938031 101.8445991  22.8338302
 101.6689787 101.3734034  23.6483924 100.8070819 102.4711757  23.0619563
 102.4495094  96.1218497  28.8801603 102.1144927  96.0819267  29.7759253
 101.9499040  95.4563213  28.4072013  96.4239338  91.5286127  34.4054184
  96.2859136  90.7966366  35.0065723  97.3344262  91.4395028  34.1238372
 105.3854286  93.4674532  19.1538663 104.7683457  92.7421360  19.0571715
 104.9170774  94.2283892  18.8105737  99.0521639  91.2406087  33.8937864
  99.7621257  90.5999279  33.8524482  99.0090947  91.4918982  34.8164045
 107.0408418  98.1773440  36.8144443 106.9820964  97.4932660  36.1475026
 107.4427936  98.9192430  36.3625069  96.0599116 104.9935354  29.6078162
  96.2995715 105.6253878  30.2857181  95.2168313 104.6423394  29.8943521
  97.1752832  87.6859956  18.2759967  96.2982298  87.5648757  17.9122214
  97.6510585  86.8946034  18.0238856 107.0425825  96.1413024  35.0458423
 106.1552604  95.8038946  35.1684822 107.6124376  95.4096055  35.2827188
  88.6954972  92.4737116  28.3701474  89.3826012  92.1598846  27.7822489
  88.5403101  93.3778480  28.0968726  93.4989694  87.3627312  32.7986498
  93.4147883  86.7552982  32.0636908  92.6772400  87.8536331  32.7995994
 100.5726978 100.8014476  32.0119666 100.4997150 101.6069448  32.5238971
 100.1304371 101.0006442  31.1867687 100.3616758 100.0386246  25.5222487
  99.5784280 100.5807927  25.6160712 101.0609503 100.5560226  25.9216729
 103.6713408  85.8480876  28.1656693 104.1682107  85.0950838  27.8457763
 102.9000389  85.8845193  27.5999902 111.5243165  91.5521241  29.8074984
 111.5133042  92.4345957  29.4368917 110.6560545  91.1992792  29.6129521
 103.0325662 100.7001310  34.1677825 103.7453634 101.3348775  34.0953726
 102.5415690 100.7965176  33.3517826 104.7543189  94.6052563  25.7395116
 103.8199467  94.7254026  25.5699821 104.9319857  93.7025030  25.4755126
 100.2548377  87.9898259  27.8928377  99.8846164  87.4369299  28.5809283
 100.7507469  87.3856392  27.3403378 108.1415740  90.4469882  26.2745150
 108.6076192  91.2797874  26.2005453 108.5923240  89.9814864  26.9790409
  98.0837575  98.4495754  34.9883395  98.7847035  99.0832237  35.1412790
  97.6132690  98.7910485  34.2279035 106.2091971  96.7913704  23.2731302
 106.4851815  96.6770298  24.1825177 105.3396470  96.3931189  23.2343476
 106.1132403  82.8150469  30.3136052 105.1995483  83.0454696  30.4818259
 106.5425504  82.8988913  31.1650084 105.8838861  91.0040361  32.8135946
 105.2310311  91.2516269  32.1588399 106.2619241  90.1904500  32.4798423
 102.8446035 101.0400055  26.9164116 103.0268430 100.2221710  27.3791868
 103.6679021 101.2567747  26.4789006 103.1788201  99.9668240  24.1779165
 103.7075967  99.4560694  23.5649327 103.4416420  99.6510770  25.0424698
 101.9326434  91.7460172  39.3001983 101.2567071  91.6454302  39.9704358
 102.7554068  91.5899386  39.7637980  93.6805293  97.9832109  31.9214498
  94.2658730  97.2375797  32.0542402  93.4830132  98.2936066  32.8051162
  96.5343949 101.0183356  26.9376940  95.8654324 101.5029484  26.4540981
  96.3956818 101.2652577  27.8520319  88.2722948  90.5537709  30.6418941
  88.3107048  90.0201300  31.4356059  87.7663241  90.0272915  30.0229918
 100.6749217 103.0527100  33.5359599 101.2267525 103.2158721  34.3008684
 101.0155411 103.6431538  32.8639624  95.6513710  85.4002250  34.1381484
  95.7155037  86.2617081  33.7258881  95.5880831  84.7876251  33.4053842
 105.5260091  97.8788357  39.3908253 106.0699995  98.4918316  38.8963208
 104.9446936  98.4367936  39.9075266  91.9031526  89.2801811  23.7172873
  92.1984967  88.3712490  23.6639926  91.0019561  89.2589551  23.3953875
 103.8117604 101.0009075  30.5223281 103.6868744 100.1998815  30.0134227
 104.4696696 101.4955269  30.0337251  95.4325773  87.3557808  29.7000421
  94.7112358  87.9693776  29.5607895  96.2219028  87.8915573  29.6217067
 105.8752513  98.8018095  32.1502831 104.9282848  98.6823447  32.0781158
 106.2235286  97.9140594  32.2329093  93.6319367  86.9615909  23.8412198
  93.3032073  86.0813288  23.6587304  93.9858738  86.9063578  24.7288587
 102.8798946  98.5970812  28.3507183 102.7323909  97.6687519  28.5314753
 103.7052440  98.6190902  27.8664259  96.7461190  87.2488879  24.2087675
  97.0857263  87.7774800  23.4866284  97.1933311  87.5869285  24.9846242
 106.4833068  99.4199370  29.4372056 107.4079615  99.2142232  29.2996507
 106.3148371  99.1715772  30.3461398  99.4404631  85.6325930  33.6590744
  99.1001452  84.8333743  34.0611423  98.7343637  85.9327640  33.0867577
 100.0921103  82.7175242  32.1118067 100.9147172  82.2435720  31.9896957
 100.3359167  83.4965726  32.6116753  98.7329338  85.7463500  22.4080968
  99.4537700  86.1244753  21.9044685  98.1094642  86.4652377  22.5115946
 102.8760460  86.4508649  23.3439301 103.0924075  87.3333287  23.0428129
 102.3954528  86.0594863  22.6144943  97.6159682  89.4094363  29.9210045
  97.4704262  89.7234666  30.8134327  97.1384885  90.0279263  29.3680944
  99.4756065  86.3996911  29.9690935  99.4617633  85.5038004  29.6323233
 100.1928493  86.4067574  30.6029221 101.3282195  86.8334251  32.0144062
 101.0699973  87.7551321  32.0128393 100.7967236  86.4364685  32.7044526
 106.2728384  99.9385038  24.7934148 106.4465262  99.3731460  24.0408000
 106.7657275 100.7385933  24.6113637  98.8792961  85.2811291  25.2378505
  99.0008872  84.3527937  25.4369392  98.5895003  85.2949977  24.3256820
 101.7484151  82.9666201  28.3745225 101.7705848  83.0305534  27.4197204
 102.1652210  82.1270710  28.5685731 112.1267775  92.7021461  26.4124447
 112.5698921  91.9528786  26.0143571 111.2494286  92.6931597  26.0298179
 107.2603557  99.2551802  21.8931046 107.9554461  99.8758495  22.1118360
 107.6026707  98.4047154  22.1683424 109.1594980  96.7051508  23.4218377
 109.6846304  97.0438781  22.6967697 109.0717332  95.7698523  23.2381511
 100.8215028 100.6185581  35.5508253 101.1302155 100.3734728  36.4230953
 101.6190510 100.8232220  35.0627123 100.8435640 102.7723491  27.7813630
 100.4040631 102.2799870  28.4746486 101.5943757 102.2296459  27.5405705
  93.3227979  98.9635032  27.7838258  94.1485999  98.6638804  27.4036901
  92.9722031  98.1942654  28.2328047  98.2909513  98.3161500  29.8535931
  97.6689522  97.6532205  29.5538159  98.9614380  98.3422632  29.1709579
  91.5236585  96.8821358  28.7427191  90.6868493  96.4543533  28.5611193
  91.4960230  97.0753802  29.6797983 108.8488886  97.3384411  38.7269575
 108.0584430  97.3208550  38.1874074 108.6122240  97.8772705  39.4818611
 108.9686761  94.1876878  36.0402303 109.0184766  94.0226885  36.9817826
 108.8600684  93.3204137  35.6500184  97.8523020  96.8665424  23.3294392
  98.0011140  97.5500888  22.6761065  98.6589463  96.8470514  23.8443848
 106.2590523  90.1707806  37.3561610 107.1600386  90.0314271  37.0645608
 106.3338498  90.3362261  38.2959787 100.5933329  87.5474661  36.2014796
  99.7236638  87.8408227  35.9297385 100.8292809  88.1315106  36.9222060
 110.4704958  96.6073819  36.2844325 110.1789766  96.9703800  37.1207786
 109.8577089  95.8940828  36.1057657 111.6700640  94.1726699  28.8046895
 112.5047531  94.6116503  28.9684455 111.8059769  93.6965352  27.9855141
 108.7192146  91.7306434  34.7524383 109.1946268  91.9234080  33.9443234
 107.7957711  91.7865620  34.5067766  95.6075653  92.8930601  24.3355461
  95.3621694  91.9892931  24.5335671  95.7771567  92.8947752  23.3934939
 103.2972362  83.7654278  33.7180217 103.8154306  84.5015304  33.3926705
 102.9427495  84.0718271  34.5526976  94.8771300  88.6258959  21.8341622
  94.1840545  88.7003314  21.1781658  94.6323052  87.8619302  22.3563139
 103.5484957  80.1854560  29.2381113 103.8286710  79.5177749  29.8641540
 104.3335564  80.3783656  28.7255777 101.3518425  99.3613554  20.8006139
 100.7792392  99.9803741  20.3476611 101.9251219  99.9112916  21.3346061
 107.4193815  88.6072194  32.9852688 108.3711238  88.7070292  33.0064912
 107.2497265  87.8150463  33.4950773 105.4408194  85.6927777  33.1712089
 104.8458127  85.9732790  32.4758578 105.1557891  86.1821678  33.9428830
 104.5715685  99.6450704  21.9314722 105.5046358  99.5796266  22.1347597
 104.4838898 100.4806971  21.4729254 107.2003702  98.9616574  18.8918669
 107.1217333  98.6276438  19.7854427 108.0213368  99.4538342  18.8910142
 109.8981893  91.8278314  32.0994988 109.8658213  90.8894314  32.2854672
 110.5082516  91.9062350  31.3660813 101.7365224  90.6974367  18.1422192
 102.6824328  90.5680575  18.2110610 101.3579469  89.9589029  18.6191620
 110.0476381  88.6189357  32.1453271 109.5315430  87.8347814  31.9583200
 110.9316330  88.2908074  32.3099791 107.7087108  82.3630373  28.1049084
 107.5111929  82.0545461  28.9892416 108.3186814  83.0892012  28.2347014
 115.7158443  92.8894321  31.2401025 116.4461831  92.6279609  31.8008728
 115.1065388  92.1523043  31.2803093 113.7973740  91.0302183  31.8375476
 113.0706903  90.8958148  31.2291967 113.3821027  91.3379012  32.6432194
 101.6203916  94.7492113  39.6022849 102.5406926  94.9270712  39.7962895
 101.5853499  93.8048158  39.4502548  99.9208141  88.6224343  18.0777077
  99.0139596  88.3257456  18.1539791 100.1984122  88.3254161  17.2111363
  94.6165989  92.6593148  32.2445630  94.8351998  93.5910255  32.2633664
  95.0291762  92.3001122  33.0300434 101.5370206  83.1661233  24.2321318
 100.7270935  82.8208318  24.6076565 102.2254623  82.8568777  24.8208930
 103.4660755  82.2439280  25.8545615 104.0191793  82.6634733  26.5135638
 103.7030841  81.3175028  25.8968571  98.6906925  85.4811278  18.2189056
  99.5526089  85.8066177  18.4784874  98.8757270  84.6942774  17.7062122
  90.7074341  93.5633618  30.4969245  90.0137813  93.1487571  29.9839200
  91.4547332  93.6054155  29.9002664 106.8439562  84.3539805  25.3624279
 106.2638231  85.0124609  24.9802332 106.5775495  83.5317149  24.9511697
 105.2943128  83.7544863  27.5645600 105.7942907  83.8661397  26.7559918
 105.9378736  83.4505915  28.2046408  99.3525124  91.6623492  40.4513441
  98.8692206  92.4623852  40.6577330  99.4386063  91.6731437  39.4980885
  92.6211084  93.4951872  28.3735260  92.5981772  93.5939559  27.4217143
  92.9311720  94.3417023  28.6952426  95.2798462  95.5528027  32.4881874
  96.2341715  95.5211969  32.4211806  95.0810985  95.0918651  33.3032100
  95.8697844  94.1229143  35.0552672  96.6890733  94.6173222  35.0787509
  96.1434651  93.2061111  35.0270240 105.6264440  86.5139895  24.4180628
 104.7390295  86.7989546  24.2000822 106.0418429  86.3533659  23.5707904
 108.9778976  86.5386416  28.1334967 109.7539366  87.0282869  28.4059584
 108.2527110  86.9644470  28.5906836 111.4151535  87.2514035  29.1908907
 112.0096025  87.0109771  28.4802216 111.4878118  86.5321166  29.8182444
  93.6348690 101.0947646  29.5052072  93.5003158 100.3348047  28.9390070
  93.2180753 101.8188546  29.0380861 104.7707653  96.2784570  18.5128648
 105.4743503  96.4834572  19.1286303 104.0470302  96.8461332  18.7777731
 105.6005464  92.0294431  24.6330918 105.5440665  92.4862983  23.7938550
 106.1533806  91.2685116  24.4553761 109.4110270  87.8184163  25.4581037
 109.1547204  87.4180799  26.2889245 108.7863138  88.5327957  25.3331176
 113.7222607  90.5580236  27.9652329 113.1622165  90.6273426  28.7383891
 113.1166111  90.3821221  27.2451825  96.7917816 101.9916963  29.7170515
  96.6750200 102.9362396  29.6149205  95.9710262 101.6890525  30.1056314
 106.6794351  96.7167099  20.5627108 107.5139955  96.2848298  20.3804582
 106.5178694  96.5449113  21.4904002 106.3340243  93.2199212  21.9283447
 106.2789047  93.0543484  20.9871891 105.7086298  93.9275245  22.0845637
 103.6486150  95.5248124  41.2537010 104.5177310  95.6988777  40.8923645
 103.1692902  96.3442541  41.1312739  99.6436368  82.7207321  21.5068765
  99.6315038  83.6649161  21.6637036 100.5359790  82.5377467  21.2128227
  97.8172330 102.6445225  32.9326443  98.7199577 102.6768836  33.2492938
  97.5909700 101.7145676  32.9472779  99.5725932 101.3976212  29.5936522
  98.6221563 101.3978073  29.4800894  99.8758418 100.6508946  29.0772557
 103.4588488  79.3150098  25.7614702 102.6920884  78.7608585  25.9071384
 103.8699193  79.3871967  26.6228854 115.3078626 107.2336750  30.6582284
 115.9457036 107.1143498  29.9545624 115.1899469 108.1817594  30.7170237
 112.1168332 107.1864178  30.5943809 111.7786844 107.0705243  29.7064344
 112.9858100 106.7855343  30.5744815 107.9755148 109.0399655  26.5840700
 107.4120013 108.9489592  25.8156988 107.8607543 108.2199559  27.0643193
 112.5988115 108.3399030  36.5530015 112.5876756 107.9451828  35.6810518
 112.7608755 107.6065103  37.1463786 105.5219580 110.5350846  29.4224920
 106.3140872 110.1941671  29.0071220 105.7616230 110.6445821  30.3427074
 109.3195376 111.1236142  35.5009199 109.0285242 112.0281773  35.3855865
 109.9552361 111.1652669  36.2153268 110.2451583 108.5012990  32.0910558
 110.8415155 108.2769013  31.3767521 110.3026555 107.7597736  32.6936006
 114.8619894 104.9588204  27.7335492 115.6482984 104.5407627  27.3825909
 115.1258599 105.8634296  27.9017141 120.2628321 104.8963437  28.6368471
 120.9953493 104.3262654  28.8706300 119.5067677 104.5085038  29.0774977
 111.8804441 107.3190679  25.8331813 111.5162648 106.7921300  26.5444735
 112.7371557 106.9289148  25.6598299 117.7853742  98.6085011  33.0963080
 117.4537067  99.4780422  32.8724295 117.1899355  98.2921295  33.7757110
 114.2785261 110.8097557  32.4958992 113.9785984 111.7122596  32.3874799
 113.9336321 110.5429741  33.3480145 107.7297743 107.2611354  28.5295697
 106.8048239 107.1287568  28.7373388 107.9782156 108.0405573  29.0265639
 117.6782405 103.3280098  30.1756430 116.7699282 103.2595506  29.8815191
 117.6270001 103.8052042  31.0038255 105.0906554 106.9044628  29.3639486
 105.2198935 107.1579107  30.2778897 104.4104005 107.4972336  29.0444141
 111.7523271 104.7469743  38.1191327 110.9756605 105.3063663  38.1094191
 112.3913834 105.2326526  38.6406197 119.5444052 101.5296536  31.9534304
 118.9018432 101.8229069  31.3074098 119.0398980 101.4149456  32.7587500
 110.0069643 107.5555196  37.6809294 110.7484328 108.0940240  37.4044117
 109.3006629 108.1821485  37.8380846 115.4824983 109.6984337  36.2781455
 115.8908339 109.2566747  35.5336088 114.7602244 109.1236964  36.5315648
 111.8356053 104.6356944  33.6515012 112.6817248 105.0596357  33.7949661
 111.7754691 103.9790568  34.3453575 115.8053797 110.2585528  30.0333744
 115.1762660 110.4231242  29.3309812 115.4179460 110.6727137  30.8044708
 114.9855498 102.2961312  35.3096186 114.7416430 103.0503373  34.7730462
 115.2615429 102.6746660  36.1443433 116.9393961 108.8399924  33.9873452
 117.1510856 109.4831684  33.3107833 116.8923709 108.0062241  33.5195382
 114.5420190 101.4517745  30.8910024 113.6804669 101.7498999  31.1826761
 114.5682625 101.6688144  29.9591056 111.3581759 109.9959936  27.2983829
 111.8220105 110.2747639  26.5088452 111.0938557 109.0943380  27.1156920
 108.2505840 109.5431417  30.2363593 108.8207197 109.9718686  29.5981077
 108.8413952 109.2614002  30.9347778 110.2950645 106.1183088  24.1073394
 110.9974689 106.5704132  24.5747321 109.9631274 105.4766907  24.7353288
 108.7431007 104.7094845  38.4824604 108.1129668 105.3911125  38.7160001
 108.6367095 104.5977926  37.5377742 104.0375979 104.3766641  29.4090528
 103.2475033 104.6324169  28.9330639 104.5287227 105.1914979  29.5142569
 118.0539789 111.7171880  32.1595809 118.8757233 111.3152067  31.8778490
 118.0502192 111.6140114  33.1111925 105.9890725 104.7411220  26.3674005
 105.1921888 104.8529914  26.8857500 105.7616317 105.0797872  25.5014895
 111.8196392 111.2655923  34.3156519 111.8840825 111.7276330  35.1514691
 111.1107316 110.6353288  34.4438829 102.3213682 104.6297131  31.8405519
 102.5721721 105.5144141  32.1063095 102.8573231 104.4501733  31.0680611
 108.0211750  99.0115610  40.8449855 107.6278695  98.4581809  41.5197499
 108.8377890  99.3226189  41.2356372 104.9873807 110.4499469  24.7563425
 105.4998328 111.2442719  24.9068989 105.6396520 109.7525759  24.6897026
 110.9379711 100.4273490  38.4370111 111.6789424 101.0280643  38.3574574
 111.1697633  99.6851127  37.8788154 106.0821049 105.6129857  36.7148341
 105.9674564 104.7115114  37.0155440 105.2265566 105.8593554  36.3633158
 113.1612886 113.5547597  38.3135842 112.7176741 112.7683976  37.9956746
 113.8230100 113.7426748  37.6479733 107.9200008 115.0843399  32.8396520
 108.4707433 114.9560462  32.0673514 107.0811483 115.3838288  32.4891413
 115.2594124 113.8350397  36.3417243 115.2412600 114.6559278  35.8497512
 116.1814045 113.7104472  36.5667384 111.7167179 111.3494527  37.1840751
 112.2495515 110.5882815  36.9540059 111.1881260 111.0568178  37.9264906
 114.8836874  96.4554593  32.7134393 114.5401143  97.3456234  32.6373504
 115.2515836  96.2656250  31.8503978 102.9522724 108.7788123  25.5322995
 103.7897946 109.1885131  25.3156703 103.1300992 107.8387565  25.5023189
 112.4334267 101.2912904  26.2792067 111.5775864 100.9019755  26.0997705
 112.8461219 101.3704865  25.4191852 113.9633414  98.8259248  30.6783626
 113.4598210  98.7889383  29.8651432 114.2564021  99.7351990  30.7380283
 110.2076300  98.9097977  29.6849808 111.0729297  98.7140786  29.3255698
 110.2753809  98.6808329  30.6119165 118.0612737 108.6729540  29.8126610
 117.4036412 109.3628801  29.9006738 118.8653137 109.0625971  30.1560596
 107.8138619 101.1400185  27.0566175 108.3882371 100.9175367  26.3239368
 108.4009601 101.2088880  27.8094776 116.8718196 107.0273912  27.8630551
 117.3850078 107.6603904  28.3652261 117.5219420 106.4275108  27.4973911
 110.1161287  98.0141434  25.7841244 109.4625699  97.6990451  25.1597859
 110.0741761  97.3917175  26.5101067 113.3499027 104.5023368  30.1088892
 112.4321588 104.7238315  29.9510580 113.7659171 104.5769678  29.2500599
 116.5812912 102.9371900  27.2210362 115.8435669 102.4249286  27.5520604
 116.8339685 102.4972281  26.4093638 116.6824539  95.7148152  27.8152131
 116.9883416  94.8545515  27.5278046 117.4077144  96.3065772  27.6151125
 102.9748895 106.1178838  26.2033729 102.7773295 105.5248199  25.4784795
 102.4195559 105.8131048  26.9209668 110.9545619 106.0101945  28.3228322
 111.0094229 105.0575781  28.2470798 110.1436821 106.1661384  28.8069620
 108.8937979 104.6279004  26.0818701 108.0805844 104.9273175  26.4883893
 109.3896973 104.2334693  26.7993183 114.4912191 105.0920829  34.9133595
 114.8461578 105.3192302  35.7728060 115.1384322 105.4239206  34.2910850
 108.3852054 102.1997360  31.6979936 109.0251433 102.0586119  31.0002899
 107.5529584 101.9131873  31.3218538 109.1612358 111.4999790  27.8114928
 109.9552956 111.0050111  27.6097503 108.4504050 110.9717654  27.4482634
 113.9807202 113.8817886  32.1627296 114.0344224 114.4508822  32.9305012
 113.1121983 114.0519771  31.7981333 105.4695121 105.6442872  23.8874681
 104.5392709 105.5827328  24.1044643 105.5652593 105.1218825  23.0911322
 105.3880670 102.1697685  26.4752923 105.6487487 103.0843018  26.3662083
 106.2097842 101.7022128  26.6249535 106.8605595 103.5835442  33.6451747
 107.5328649 103.3752804  32.9964396 106.0335382 103.3857528  33.2056979
 121.1094857 110.3239493  33.1627081 121.3030747 111.2285303  33.4086356
 121.0095475 109.8646912  33.9965666 112.7631167 100.2097383  35.6617408
 112.1159082 100.9087333  35.5681884 113.5332183 100.6433527  36.0293656
 116.1709965 110.4746235  38.7367961 116.0195472 110.2456787  37.8198045
 116.1614645 111.4316837  38.7499306 112.9395302 108.0478148  33.7214228
 113.8687362 108.1989308  33.5483195 112.5186332 108.1362169  32.8662874
 111.7383634 112.0728812  31.4912765 111.5994719 111.7047597  32.3638703
 110.9498230 112.5876452  31.3196723 113.2888849 111.4510415  28.8801603
 112.9538681 111.4111185  29.7759253 112.7892794 110.7855131  28.4072013
 107.2633093 106.8578045  34.4054184 107.1252891 106.1258284  35.0065723
 108.1738016 106.7686945  34.1238372 109.8915393 106.5698004  33.8937864
 110.6015012 105.9291197  33.8524482 109.8484702 106.8210899  34.8164045
 117.8802172 113.5065358  36.8144443 117.8214718 112.8224578  36.1475026
 118.2821690 114.2484348  36.3625069 108.6044327 103.5563222  35.7133503
 108.0681684 103.1053961  36.3655100 108.0161036 103.6909131  34.9703968
 117.8819579 111.4704942  35.0458423 116.9946358 111.1330864  35.1684822
 118.4518130 110.7387973  35.2827188  99.5348726 107.8029033  28.3701474
 100.2219766 107.4890764  27.7822489  99.3796855 108.7070398  28.0968726
 104.3383449 102.6919230  32.7986498 104.2541637 102.0844900  32.0636908
 103.5166155 103.1828248  32.7995994 111.4120733 116.1306394  32.0119666
 111.3390904 116.9361366  32.5238971 110.9698126 116.3298360  31.1867687
 114.5107162 101.1772794  28.1656693 115.0075862 100.4242756  27.8457763
 113.7394144 101.2137110  27.5999902 122.3636920 106.8813159  29.8074984
 122.3526796 107.7637875  29.4368917 121.4954299 106.5284710  29.6129521
 113.8719416 116.0293228  34.1677825 114.5847388 116.6640693  34.0953726
 113.3809445 116.1257094  33.3517826 111.0942131 103.3190177  27.8928377
 110.7239919 102.7661217  28.5809283 111.5901224 102.7148310  27.3403378
 108.9231330 113.7787672  34.9883395 109.6240789 114.4124155  35.1412790
 108.4526445 114.1202403  34.2279035 116.9526157  98.1442387  30.3136052
 116.0389237  98.3746614  30.4818259 117.3819259  98.2280831  31.1650084
 116.7232616 106.3332279  32.8135946 116.0704066 106.5808186  32.1588399
 117.1012996 105.5196417  32.4798423 112.7720189 107.0752090  39.3001983
 112.0960826 106.9746219  39.9704358 113.5947823 106.9191304  39.7637980
 104.5199048 113.3124027  31.9214498 105.1052485 112.5667715  32.0542402
 104.3223886 113.6227983  32.8051162  99.1116703 105.8829627  30.6418941
  99.1500802 105.3493218  31.4356059  98.6056995 105.3564832  30.0229918
 111.5142972 118.3819018  33.5359599 112.0661280 118.5450639  34.3008684
 111.8549165 118.9723455  32.8639624 106.4907465 100.7294167  34.1381484
 106.5548791 101.5908998  33.7258881 106.4274585 100.1168169  33.4053842
 105.9659737 102.8017300  37.7854518 106.5931776 102.4194377  38.3992042
 105.1087656 102.5831502  38.1510210 116.3653846 113.2080275  39.3908253
 116.9093750 113.8210233  38.8963208 115.7840691 113.7659853  39.9075266
 102.7425280 104.6093729  23.7172873 103.0378721 103.7004407  23.6639926
 101.8413316 104.5881468  23.3953875 106.2719527 102.6849726  29.7000421
 105.5506113 103.2985693  29.5607895 107.0612783 103.2207490  29.6217067
 116.7146267 114.1310013  32.1502831 115.7676603 114.0115364  32.0781158
 117.0629040 113.2432511  32.2329093 109.0745841 100.0204152  35.9741073
 109.5980242 100.2666449  36.7367382 108.8558174 100.8524187  35.5544210
 104.4713122 102.2907827  23.8412198 104.1425828 101.4105206  23.6587304
 104.8252492 102.2355495  24.7288587 107.5854945 102.5780796  24.2087675
 107.9251017 103.1066718  23.4866284 108.0327065 102.9161203  24.9846242
 110.2798386 100.9617847  33.6590744 109.9395206 100.1625660  34.0611423
 109.5737392 101.2619558  33.0867577 110.9314858  98.0467160  32.1118067
 111.7540927  97.5727638  31.9896957 111.1752921  98.8257643  32.6116753
 109.5723092 101.0755418  22.4080968 110.2931454 101.4536671  21.9044685
 108.9488396 101.7944295  22.5115946 113.7154215 101.7800567  23.3439301
 113.9317829 102.6625205  23.0428129 113.2348282 101.3886780  22.6144943
 108.4553436 104.7386280  29.9210045 108.3098017 105.0526583  30.8134327
 107.9778640 105.3571181  29.3680944 110.3149819 101.7288828  29.9690935
 110.3011388 100.8329922  29.6323233 111.0322247 101.7359492  30.6029221
 112.1675950 102.1626168  32.0144062 111.9093728 103.0843239  32.0128393
 111.6360990 101.7656603  32.7044526 102.9299098 107.2791625  32.8597706
 102.3852567 108.0551433  32.9917981 103.8078448 107.6262429  32.7016828
 109.7186715 100.6103209  25.2378505 109.8402626  99.6819855  25.4369392
 109.4288757 100.6241894  24.3256820 112.5877905  98.2958119  28.3745225
 112.6099602  98.3597452  27.4197204 113.0045964  97.4562628  28.5685731
 103.7165120 106.4061521  35.7527863 102.9746856 106.5544156  36.3392494
 103.3957865 106.6669787  34.8894613 111.6608783 115.9477499  35.5508253
 111.9695909 115.7026646  36.4230953 112.4584265 116.1524138  35.0627123
 104.1621734 114.2926950  27.7838258 104.9879754 113.9930722  27.4036901
 103.8115786 113.5234572  28.2328047 109.1303267 113.6453418  29.8535931
 108.5083276 112.9824123  29.5538159 109.8008134 113.6714550  29.1709579
 102.3630339 112.2113276  28.7427191 101.5262247 111.7835450  28.5611193
 102.3353984 112.4045719  29.6797983 109.2027795 102.1235206  39.4468437
 109.2515950 102.9997329  39.0646207 109.7450309 101.5812599  38.8740081
 119.6882640 112.6676329  38.7269575 118.8978184 112.6500468  38.1874074
 119.4515995 113.2064623  39.4818611 119.8080515 109.5168796  36.0402303
 119.8578520 109.3518803  36.9817826 119.6994439 108.6496055  35.6500184
 117.0984278 105.4999724  37.3561610 117.9994140 105.3606188  37.0645608
 117.1732252 105.6654178  38.2959787 111.4327083 102.8766578  36.2014796
 110.5630392 103.1700144  35.9297385 111.6686563 103.4607023  36.9222060
 121.3098712 111.9365737  36.2844325 121.0183520 112.2995718  37.1207786
 120.6970843 111.2232745  36.1057657 119.5585900 107.0598352  34.7524383
 120.0340022 107.2525998  33.9443234 118.6351466 107.1157537  34.5067766
 106.4469407 108.2222519  24.3355461 106.2015449 107.3184849  24.5335671
 106.6165322 108.2239669  23.3934939 114.1366117  99.0946195  33.7180217
 114.6548061  99.8307222  33.3926705 113.7821250  99.4010189  34.5526976
 105.7165055 103.9550876  21.8341622 105.0234299 104.0295231  21.1781658
 105.4716806 103.1911220  22.3563139 114.3878711  95.5146478  29.2381113
 114.6680465  94.8469667  29.8641540 115.1729318  95.7075573  28.7255777
 118.2587569 103.9364112  32.9852688 119.2104992 104.0362209  33.0064912
 118.0891020 103.1442380  33.4950773 116.2801949 101.0219695  33.1712089
 115.6851881 101.3024708  32.4758578 115.9951646 101.5113596  33.9428830
 120.7375647 107.1570231  32.0994988 120.7051967 106.2186232  32.2854672
 121.3476271 107.2354268  31.3660813 120.8870136 103.9481275  32.1453271
 120.3709184 103.1639732  31.9583200 121.7710084 103.6199991  32.3099791
 118.5480863  97.6922290  28.1049084 118.3505684  97.3837379  28.9892416
 119.1580568  98.4183929  28.2347014 126.5552197 108.2186238  31.2401025
 127.2855586 107.9571526  31.8008728 125.9459143 107.4814960  31.2803093
 124.6367494 106.3594101  31.8375476 123.9100658 106.2250066  31.2291967
 124.2214781 106.6670929  32.6432194 112.4597671 110.0784031  39.6022849
 113.3800680 110.2562630  39.7962895 112.4247254 109.1340076  39.4502548
 101.6779836 105.2722624  28.5276124 101.3582620 104.4187932  28.2350498
 101.1313264 105.4871202  29.2834091 105.4559743 107.9885065  32.2445630
 105.6745753 108.9202173  32.2633664 105.8685517 107.6293040  33.0300434
 112.3763961  98.4953151  24.2321318 111.5664689  98.1500235  24.6076565
 113.0648378  98.1860694  24.8208930 114.3054509  97.5731197  25.8545615
 114.8585548  97.9926651  26.5135638 114.5424596  96.6466945  25.8968571
 110.3287608 103.5618271  41.6348379 110.2284335 104.5112628  41.5660470
 110.1109151 103.2336510  40.7624449 101.5468096 108.8925536  30.4969245
 100.8531567 108.4779488  29.9839200 102.2941087 108.9346072  29.9002664
 117.6833316  99.6831722  25.3624279 117.1031985 100.3416527  24.9802332
 117.4169249  98.8609067  24.9511697 116.1336883  99.0836780  27.5645600
 116.6336661  99.1953315  26.7559918 116.7772491  98.7797833  28.2046408
 110.1918879 106.9915410  40.4513441 109.7085960 107.7915770  40.6577330
 110.2779818 107.0023355  39.4980885 103.4604838 108.8243789  28.3735260
 103.4375526 108.9231477  27.4217143 103.7705475 109.6708940  28.6952426
 106.1192216 110.8819945  32.4881874 107.0735470 110.8503887  32.4211806
 105.9204740 110.4210568  33.3032100 106.7091598 109.4521061  35.0552672
 107.5284487 109.9465139  35.0787509 106.9828406 108.5353029  35.0270240
 116.4658194 101.8431813  24.4180628 115.5784049 102.1281463  24.2000822
 116.8812183 101.6825576  23.5707904 119.8172730 101.8678334  28.1334967
 120.5933121 102.3574786  28.4059584 119.0920865 102.2936388  28.5906836
 122.2545289 102.5805953  29.1908907 122.8489780 102.3401689  28.4802216
 122.3271873 101.8613084  29.8182444 104.4742445 116.4239564  29.5052072
 104.3396913 115.6639965  28.9390070 104.0574507 117.1480464  29.0380861
 107.6311571 117.3208881  29.7170515 107.5143955 118.2654314  29.6149205
 106.8104017 117.0182443  30.1056314 101.9626512 103.7859194  35.7544869
 102.6085376 103.2758148  36.2432094 101.7543663 104.5227876  36.3288294
 114.4879905 110.8540042  41.2537010 115.3571064 111.0280694  40.8923645
 114.0086656 111.6734459  41.1312739 110.4830123  98.0499239  21.5068765
 110.4708793  98.9941079  21.6637036 111.3753545  97.8669384  21.2128227
 108.6566085 117.9737143  32.9326443 109.5593332 118.0060753  33.2492938
 108.4303455 117.0437594  32.9472779 114.2982242  94.6442016  25.7614702
 113.5314638  94.0900502  25.9071384 114.7092947  94.7163884  26.6228854
 106.3024003 100.9326811  39.8519883 107.1655465 100.5763616  40.0623208
 105.7289414 100.5940706  40.5395288 122.5917025 120.0761661  38.1191327
 121.8150359 120.6355581  38.1094191 123.2307588 120.5618444  38.6406197
 119.5824761 120.0386762  38.4824604 118.9523422 120.7203043  38.7160001
 119.4760849 119.9269844  37.5377742 118.8605504 114.3407528  40.8449855
 118.4672450 113.7873727  41.5197499 119.6771644 114.6518107  41.2356372
 121.7773465 115.7565407  38.4370111 122.5183179 116.3572560  38.3574574
 122.0091388 115.0143045  37.8788154 116.9214803 120.9421775  36.7148341
 116.8068318 120.0407032  37.0155440 116.0659321 121.1885471  36.3633158
 123.6024922 115.5389301  35.6617408 122.9552837 116.2379250  35.5681884
 124.3725937 115.9725445  36.0293656 119.4438082 118.8855140  35.7133503
 118.9075439 118.4345878  36.3655100 118.8554790 119.0201049  34.9703968
 115.1777203 118.0211148  32.7986498 115.0935392 117.4136817  32.0636908
 114.3559909 118.5120166  32.7995994 123.6113943 122.4044008  39.3001983
 122.9354580 122.3038137  39.9704358 124.4341577 122.2483222  39.7637980
 117.3301219 116.0586085  34.1381484 117.3942546 116.9200916  33.7258881
 117.2668340 115.4460087  33.4053842 116.8053492 118.1309218  37.7854518
 117.4325531 117.7486295  38.3992042 115.9481411 117.9123420  38.1510210
 119.9139595 115.3496070  35.9741073 120.4373997 115.5958366  36.7367382
 119.6951928 116.1816105  35.5544210 114.5558875 121.7353439  35.7527863
 113.8140611 121.8836074  36.3392494 114.2351619 121.9961704  34.8894613
 120.0421549 117.4527124  39.4468437 120.0909705 118.3289246  39.0646207
 120.5844063 116.9104517  38.8740081 122.2720838 118.2058496  36.2014796
 121.4024147 118.4992062  35.9297385 122.5080318 118.7898941  36.9222060
 121.1681363 118.8910189  41.6348379 121.0678090 119.8404546  41.5660470
 120.9502905 118.5628428  40.7624449 121.0312633 122.3207327  40.4513441
 120.5479715 123.1207688  40.6577330 121.1173572 122.3315272  39.4980885
 112.8020267 119.1151112  35.7544869 113.4479130 118.6050066  36.2432094
 112.5937418 119.8519794  36.3288294 117.1417758 116.2618729  39.8519883
 118.0049219 115.9055534  40.0623208 116.5683169 115.9232624  40.5395288
  58.9644115  13.9150131  25.0381148  58.5207969  13.1286510  24.7202053
  59.6261329  14.1029282  24.3725039  61.0625353  14.1952931  23.0662550
  61.0443829  15.0161812  22.5742819  61.9845273  14.0707006  23.2912691
  57.5198407  11.7097061  23.9086058  58.0526744  10.9485349  23.6785366
  56.9912489  11.4170713  24.6510213  66.9126086  10.6842027  19.8872387
  67.1061976  11.5887837  20.1331662  66.8126704  10.2249446  20.7210972
  61.9741194  10.8348769  25.4613268  61.8226701  10.6059321  24.5443352
  61.9645874  11.7919371  25.4744613  63.6833401  13.8667892  23.5389750
  63.6245947  13.1827112  22.8720333  64.0852919  14.6086882  23.0870376
  63.6850808  11.8307476  21.7703729  62.7977587  11.4933398  21.8930128
  64.2549359  11.0990507  22.0072495  59.6750645  16.3895762  20.8923131
  60.3878617  17.0243227  20.8199033  59.1840674  16.4859628  20.0763133
  58.5751418   7.4354624  26.0247290  57.8992055   7.3348754  26.6949665
  59.3979051   7.2793838  26.4883287  57.3174200  18.7421552  20.2604905
  57.8692508  18.9053173  21.0253991  57.6580394  19.3325990  19.5884930
  62.1685075  13.5682809  26.1153560  62.7124979  14.1812768  25.6208515
  61.5871920  14.1262388  26.6320573  57.4640012  16.3080033  22.2753560
  57.7727138  16.0629180  23.1476259  58.2615494  16.5126672  21.7872430
  65.4913869  13.0278863  25.4514881  64.7009413  13.0103002  24.9119381
  65.2547224  13.5667157  26.2063918  65.6111744   9.8771330  22.7647610
  65.6609749   9.7121337  23.7063133  65.5025668   9.0098589  22.3745490
  62.9015507   5.8602258  24.0806916  63.8025369   5.7208723  23.7890914
  62.9763481   6.0256713  25.0205094  67.1129941  12.2968271  23.0089631
  66.8214749  12.6598252  23.8453092  66.5002072  11.5835280  22.8302963
  58.2628899  10.4386565  26.3268156  59.1831909  10.6165164  26.5208202
  58.2278482   9.4942610  26.1747855  55.9950107   7.3517944  27.1758747
  55.5117189   8.1518304  27.3822636  56.0811046   7.3625889  26.2226191
  60.2911133  11.2142576  27.9782316  61.1602293  11.3883228  27.6168951
  59.8117885  12.0336993  27.8558046  71.9503609  22.9231202  17.3827591
  72.5882019  22.8037949  16.6790931  71.8324452  23.8712046  17.4415543
  68.7593315  22.8758630  17.3189116  68.4211827  22.7599695  16.4309651
  69.6283084  22.4749795  17.2990122  69.2413098  24.0293482  23.2775321
  69.2301739  23.6346280  22.4055825  69.4033738  23.2959555  23.8709093
  62.1644563  26.2245298  16.1470227  62.9565855  25.8836123  15.7316526
  62.4041213  26.3340273  17.0672380  70.1979690  28.3965074   8.6200472
  69.5467670  28.9819155   8.2334485  70.9924053  28.9271269   8.6795509
  65.9620360  26.8130594  22.2254505  65.6710226  27.7176225  22.1101172
  66.5977344  26.8547121  22.9398575  66.8876566  24.1907442  18.8155865
  67.4840139  23.9663465  18.1012828  66.9451538  23.4492188  19.4181313
  71.5044878  20.6482656  14.4580799  72.2907967  20.2302079  14.1071216
  71.7683582  21.5528748  14.6262447  76.9053305  20.5857889  15.3613778
  77.6378477  20.0157106  15.5951607  76.1492660  20.1979490  15.8020283
  68.5229424  23.0085131  12.5577120  68.1587632  22.4815752  13.2690041
  69.3796540  22.6183600  12.3843605  74.4278725  14.2979463  19.8208386
  74.0962050  15.1674874  19.5969601  73.8324338  13.9815747  20.5002417
  70.9210245  26.4992009  19.2204299  70.6210968  27.4017048  19.1120106
  70.5761304  26.2324192  20.0725452  64.3722726  22.9505806  15.2541003
  63.4473223  22.8182020  15.4618695  64.6207139  23.7300025  15.7510946
  74.3207388  19.0174549  16.9001736  73.4124266  18.9489958  16.6060497
  74.2694984  19.4946494  17.7283562  61.7331537  22.5939080  16.0884792
  61.8623918  22.8473559  17.0024204  61.0528988  23.1866788  15.7689447
  65.9031024  33.2636330  12.1875267  65.8255054  34.2144155  12.2663747
  65.2992668  32.9182202  12.8450193  68.3948254  20.4364195  24.8436633
  67.6181588  20.9958115  24.8339498  69.0338817  20.9220978  25.3651504
  76.1869035  17.2190988  18.6779610  75.5443415  17.5123521  18.0319405
  75.6823963  17.1043908  19.4832807  66.6494626  23.2449648  24.4054600
  67.3909311  23.7834692  24.1289424  65.9431612  23.8715937  24.5626152
  72.1249966  25.3878789  23.0026762  72.5333322  24.9461199  22.2581394
  71.4027228  24.8131416  23.2560955  68.4781036  20.3251396  20.3760319
  69.3242231  20.7490809  20.5194968  68.4179674  19.6685020  21.0698882
  72.4478781  25.9479979  16.7579051  71.8187643  26.1125694  16.0555119
  72.0604443  26.3621589  17.5290015  76.3268013  26.8834417  14.1123415
  75.6419051  27.2633319  13.5620448  76.4111862  27.4929744  14.8455362
  71.6280482  17.9855764  22.0341493  71.3841413  18.7397824  21.4975768
  71.9040412  18.3641112  22.8688740  73.5818944  24.5294376  20.7118758
  73.7935840  25.1726136  20.0353139  73.5348693  23.6956693  20.2440688
  71.1845173  17.1412197  17.6155330  70.3229652  17.4393451  17.9072068
  71.2107608  17.3582596  16.6836363  68.0006743  25.6854388  14.0229136
  68.4645088  25.9642091  13.2333758  67.7363541  24.7837832  13.8402227
  64.8930824  25.2325869  16.9608899  65.4632181  25.6613137  16.3226384
  65.4838936  24.9508454  17.6593085  65.3855990  20.3989297  25.2069910
  64.7554651  21.0805577  25.4405307  65.2792078  20.2872378  24.2623049
  74.6964772  27.4066332  18.8841115  75.5182216  27.0046519  18.6023797
  74.6927175  27.3034566  19.8357231  68.4621376  26.9550375  21.0401826
  68.5265808  27.4170782  21.8759998  67.7532300  26.3247740  21.1684136
  58.9638666  20.3191583  18.5650825  59.2146704  21.2038593  18.8308401
  59.4998214  20.1396185  17.7925917  82.7870765  23.7505080  15.2326087
  82.0334474  23.1812478  15.0770091  82.9218306  23.7167745  16.1796722
  68.1769393  28.6218483  10.9080806  68.0415068  29.4670018  11.3365654
  68.7179206  28.8237760  10.1446740  64.6636733  14.7010062  27.5695162
  64.2703679  14.1476261  28.2442806  65.4802873  15.0120641  27.9601679
  63.4393675  29.2559677  13.5631485  63.6160304  30.1777642  13.3752468
  64.2350509  28.9418096  13.9925864  67.5804694  16.1167941  25.1615418
  68.3214407  16.7175095  25.0819881  67.8122617  15.3745579  24.6033461
  62.7246032  21.3024309  23.4393648  62.6099547  20.4009566  23.7400747
  61.8690550  21.5488005  23.0878464  69.8037870  29.2442049  25.0381148
  69.3601724  28.4578428  24.7202053  70.4655083  29.4321200  24.3725039
  64.5624991  30.7737851  19.5641827  65.1132416  30.6454914  18.7918821
  63.7236467  31.0732740  19.2136720  71.9019108  29.5244849  23.0662550
  71.8837583  30.3453730  22.5742819  72.8239028  29.3998924  23.2912691
  68.3592162  27.0388978  23.9086058  68.8920499  26.2777267  23.6785366
  67.8306243  26.7462630  24.6510213  71.5261857  12.1449044  19.4379700
  71.1826126  13.0350686  19.3618810  71.8940819  11.9550702  18.5749285
  70.6058397  14.5153700  17.4028933  70.1023193  14.4783835  16.5896738
  70.8989004  15.4246442  17.4625590  76.4646414  24.8890010   9.8805308
  75.6875857  24.5501170   9.4360470  77.1437895  24.8942633   9.2060273
  69.7244875  26.1674971  11.4204870  69.1966236  25.4327730  11.1078108
  69.2232377  26.9449647  11.1744838  74.7037721  24.3623991  16.5371916
  74.0461395  25.0523253  16.6252045  75.5078120  24.7520423  16.8805903
  73.5143179  22.7168364  14.5875858  74.0275061  23.3498356  15.0897568
  74.1644403  22.1169560  14.2219218  70.7765554  32.6952688   7.3436529
  70.1027252  32.9984385   7.9521487  71.1631376  33.4981769   6.9941986
  69.9924010  20.1917820  16.8334199  69.0746572  20.4132767  16.6755887
  70.4084154  20.2664130  15.9745906  70.7759058  21.5909235  11.9636879
  71.5230877  22.1030633  11.6544001  71.0450648  21.2693288  12.8241272
  74.2804976  27.6974366  12.7155001  73.8267303  26.8565275  12.7720191
  73.6498942  28.3335764  13.0529781  73.2237895  18.6266352  13.9455668
  72.4860652  18.1143738  14.2765911  73.4764669  18.1866733  13.1338945
  72.7237915  29.5350862  13.6504819  73.0160889  30.0955919  12.9317185
  73.2336535  29.8279423  14.4057978  67.5970602  21.6996397  15.0473629
  67.6519212  20.7470233  14.9716105  66.7861804  21.8555836  15.5314927
  67.6871540  30.3131213  14.7398272  67.6447719  30.5392060  13.8106804
  68.6034239  30.0794588  14.8884073  71.1337174  20.7815281  21.6378901
  71.4886562  21.0086754  22.4973367  71.7809305  21.1133658  21.0156157
  76.8634911  23.9033717  12.3428230  76.7252809  24.0935313  11.4149420
  76.5071130  24.6653100  12.7996281  65.0277037  17.8891812  18.4225242
  65.6676416  17.7480571  17.7248206  64.1954568  17.6026325  18.0463844
  76.8904290  25.9710244  17.3539502  77.3240797  25.8785533  18.2022556
  77.6035871  25.9467744  16.7159518  65.8037341  27.1894242  14.5360235
  66.5977939  26.6944562  14.3342810  65.0929033  26.6612105  14.1727940
  70.6232185  29.5712338  18.8872602  70.6769208  30.1403274  19.6550318
  69.7546967  29.7414223  18.5226640  63.5030579  19.2729894  20.3697054
  64.1753632  19.0647256  19.7209703  62.6760365  19.0751980  19.9302286
  77.7519840  26.0133944  19.8872387  77.9455730  26.9179755  20.1331662
  77.6520458  25.5541363  20.7210972  69.4056151  15.8991835  22.3862715
  68.7584066  16.5981785  22.2927191  70.1757166  16.3327979  22.7538963
  72.8134949  26.1640687  25.4613268  72.6620455  25.9351239  24.5443352
  72.8039628  27.1211289  25.4744613  69.5820285  23.7372600  20.4459534
  70.5112345  23.8883760  20.2728502  69.1611315  23.8256621  19.5908181
  68.3808617  27.7623264  18.2158072  68.2419703  27.3942049  19.0884010
  67.5923213  28.2770904  18.0442030  68.9756769  32.8632361   9.5583608
  69.1508525  32.3920404  10.3729231  68.2889557  33.4898127   9.7864869
  69.9313832  27.1404867  15.6046910  69.5963665  27.1005637  16.5004560
  69.4317778  26.4749583  15.1317320  63.9058076  22.5472497  21.1299491
  63.7677874  21.8152736  21.7311030  64.8162999  22.4581397  20.8483679
  66.5340377  22.2592456  20.6183171  67.2439995  21.6185649  20.5769789
  66.4909685  22.5105351  21.5409351  74.5227155  29.1959810  23.5389750
  74.4639701  28.5119030  22.8720333  74.9246674  29.9378800  23.0870376
  65.2469311  19.2457674  22.4378810  64.7106668  18.7948413  23.0900406
  64.6586019  19.3803583  21.6949274  63.5417854  36.0121724  16.3323469
  63.7814452  36.6440248  17.0102487  62.6987051  35.6609764  16.6188828
  74.5244563  27.1599394  21.7703729  73.6371341  26.8225315  21.8930128
  75.0943114  26.4282425  22.0072495  60.9808432  18.3813682  19.5231804
  60.8966621  17.7739352  18.7882214  60.1591138  18.8722700  19.5241301
  68.0545716  31.8200846  18.7364973  67.9815887  32.6255817  19.2484277
  67.6123109  32.0192812  17.9112994  67.8435496  31.0572616  12.2467794
  67.0603018  31.5994296  12.3406019  68.5428241  31.5746596  12.6462035
  79.0061903  22.5707611  16.5320291  78.9951779  23.4532326  16.1614224
  78.1379283  22.2179162  16.3374828  70.5144400  31.7187680  20.8923131
  71.2272372  32.3535145  20.8199033  70.0234428  31.8151546  20.0763133
  72.2361926  25.6238933  12.4640423  71.3018205  25.7440395  12.2945127
  72.4138595  24.7211399  12.2000433  75.6234478  21.4656252  12.9990457
  76.0894930  22.2984244  12.9250760  76.0741978  21.0001234  13.7035716
  65.5656313  29.4682123  21.7128702  66.2665773  30.1018606  21.8658096
  65.0951428  29.8096855  20.9524341  73.6910709  27.8100073   9.9976609
  73.9670553  27.6956668  10.9070483  72.8215208  27.4117558   9.9588782
  73.5951141  13.8336839  17.0381358  72.6814220  14.0641066  17.2063565
  74.0244242  13.9175283  17.8895391  73.3657599  22.0226731  19.5381252
  72.7129049  22.2702638  18.8833705  73.7437979  21.2090869  19.2043730
  70.3264773  32.0586424  13.6409423  70.5087167  31.2408080  14.1037175
  71.1497759  32.2754116  13.2034313  70.6606938  30.9854609  10.9024471
  71.1894705  30.4747064  10.2894633  70.9235158  30.6697139  11.7670004
  69.4145172  22.7646542  26.0247290  68.7385809  22.6640671  26.6949665
  70.2372806  22.6085756  26.4883287  61.1624031  29.0018479  18.6459805
  61.7477468  28.2562166  18.7787709  60.9648870  29.3122435  19.5296469
  64.0162686  32.0369726  13.6622247  63.3473062  32.5215854  13.1786287
  63.8775556  32.2838946  14.5765626  68.1567955  34.0713469  20.2604905
  68.7086263  34.2345091  21.0253991  68.4974148  34.6617907  19.5884930
  63.1332448  16.4188619  20.8626790  63.1973775  17.2803450  20.4504188
  63.0699568  15.8062621  20.1299149  62.6084721  18.4911752  24.5099824
  63.2356759  18.1088829  25.1237349  61.7512640  18.2725954  24.8755517
  73.0078829  28.8974727  26.1153560  73.5518733  29.5104685  25.6208515
  72.4265674  29.4554305  26.6320573  71.2936342  32.0195445  17.2468588
  71.1687482  31.2185185  16.7379533  71.9515433  32.5141638  16.7582558
  73.3571251  29.8204465  18.8748138  72.4101586  29.7009816  18.8026464
  73.7054024  28.9326963  18.9574399  65.7170824  15.7098604  22.6986380
  66.2405226  15.9560901  23.4612689  65.4983157  16.5418639  22.2789517
  70.3617684  29.6157181  15.0752490  70.2142646  28.6873889  15.2560060
  71.1871177  29.6377272  14.5909565  73.9651806  30.4385740  16.1617363
  74.8898353  30.2328601  16.0241814  73.7967109  30.1902141  17.0706704
  66.9223369  16.6512299  20.3836050  66.5820189  15.8520112  20.7856730
  66.2162375  16.9514010  19.8112883  67.5739841  13.7361611  18.8363373
  68.3965910  13.2622090  18.7142264  67.8177904  14.5152095  19.3362059
  65.0978420  20.4280732  16.6455352  64.9523000  20.7421035  17.5379633
  64.6203623  21.0465632  16.0926250  66.9574802  17.4183280  16.6936241
  66.9436371  16.5224373  16.3568539  67.6747231  17.4253944  17.3274527
  68.8100933  17.8520620  18.7389369  68.5518711  18.7737691  18.7373699
  68.2785974  17.4551055  19.4289833  73.7547122  30.9571407  11.5179454
  73.9283999  30.3917830  10.7653307  74.2476013  31.7572302  11.3358944
  59.5724082  22.9686077  19.5843013  59.0277550  23.7445885  19.7163287
  60.4503432  23.3156881  19.4262134  79.6086513  23.7207830  13.1369754
  80.0517659  22.9715156  12.7388877  78.7313023  23.7117967  12.7543486
  74.7422294  30.2738172   8.6176352  75.4373199  30.8944865   8.8363667
  75.0845445  29.4233523   8.8928730  60.3590104  22.0955973  22.4773170
  59.6171840  22.2438608  23.0637800  60.0382848  22.3564238  21.6139919
  76.6413718  27.7237877  10.1463683  77.1665042  28.0625150   9.4213003
  76.5536070  26.7884893   9.9626818  68.3033766  31.6371951  22.2753560
  68.6120893  31.3921098  23.1476259  69.1009248  31.8418590  21.7872430
  68.3254378  33.7909861  14.5058936  67.8859369  33.2986239  15.1991793
  69.0762495  33.2482828  14.2651012  60.8046717  29.9821402  14.5083564
  61.6304737  29.6825173  14.1282208  60.4540769  29.2129024  14.9573353
  65.7728250  29.3347870  16.5781238  65.1508260  28.6718575  16.2783466
  66.4433117  29.3609002  15.8954886  59.0055322  27.9007728  15.4672498
  58.1687231  27.4729902  15.2856499  58.9778968  28.0940171  16.4043289
  65.8452778  17.8129658  26.1713744  65.8940933  18.6891781  25.7891514
  66.3875292  17.2707051  25.5985387  76.3307624  28.3570781  25.4514881
  75.5403167  28.3394920  24.9119381  76.0940978  28.8959075  26.2063918
  76.4505499  25.2063247  22.7647610  76.5003504  25.0413255  23.7063133
  76.3419422  24.3390506  22.3745490  73.7409261  21.1894175  24.0806916
  74.6419124  21.0500640  23.7890914  73.8157236  21.3548630  25.0205094
  68.0752066  18.5661030  22.9260103  67.2055376  18.8594596  22.6542691
  68.3111547  19.1501475  23.6467366  77.9523695  27.6260189  23.0089631
  77.6608504  27.9890169  23.8453092  77.3395827  26.9127197  22.8302963
  79.1519378  25.1913069  15.5292201  79.9866269  25.6302873  15.6929762
  79.2878507  24.7151722  14.7100447  76.2010884  22.7492804  21.4769689
  76.6765005  22.9420450  20.6688541  75.2776449  22.8051989  21.2313073
  70.7791100  14.7840647  20.4425523  71.2973044  15.5201674  20.1172012
  70.4246233  15.0904640  21.2772282  74.9012553  19.6258564  19.7097995
  75.8529976  19.7256661  19.7310219  74.7316003  18.8336832  20.2196079
  72.9226932  16.7114147  19.8957396  72.3276864  16.9919160  19.2003884
  72.6376629  17.2008048  20.6674137  72.0534423  30.6637074   8.6560028
  72.9865096  30.5982635   8.8592904  71.9657635  31.4993341   8.1974561
  74.6822439  29.9802944   5.6163976  74.6036071  29.6462808   6.5099734
  75.5032106  30.4724712   5.6155448  77.3800631  22.8464683  18.8240294
  77.3476951  21.9080684  19.0099978  77.9901254  22.9248720  18.0906119
  77.5295119  19.6375727  18.8698578  77.0134168  18.8534183  18.6828507
  78.4135068  19.3094443  19.0345097  75.1905846  13.3816742  14.8294390
  74.9930667  13.0731831  15.7137722  75.8005551  14.1078381  14.9592320
  83.1977180  23.9080690  17.9646331  83.9280569  23.6465978  18.5254035
  82.5884126  23.1709412  18.0048399  81.2792477  22.0488553  18.5620782
  80.5525641  21.9144518  17.9537274  80.8639764  22.3565381  19.3677501
  69.1022654  25.7678482  26.3268156  70.0225663  25.9457081  26.5208202
  69.0672237  24.8234528  26.1747855  62.0984726  23.6779517  18.9690937
  62.3170736  24.6096625  18.9878970  62.5110500  23.3187491  19.7545741
  66.9712592  19.2512723  28.3593686  66.8709319  20.2007080  28.2905777
  66.7534134  18.9230962  27.4869756  58.1893079  24.5819988  17.2214552
  57.4956550  24.1673940  16.7084506  58.9366070  24.6240524  16.6247971
  66.8343862  22.6809862  27.1758747  66.3510944  23.4810222  27.3822636
  66.9204801  22.6917807  26.2226191  62.7617199  26.5714396  19.2127181
  63.7160453  26.5398339  19.1457113  62.5629723  26.1105020  20.0277407
  63.3516581  25.1415512  21.7797979  64.1709470  25.6359591  21.8032816
  63.6253389  24.2247481  21.7515546  76.4597714  17.5572786  14.8580273
  77.2358104  18.0469238  15.1304890  75.7345848  17.9830840  15.3152143
  78.8970272  18.2700405  15.9154214  79.4914763  18.0296141  15.2047522
  78.9696856  17.5507536  16.5427750  61.1167428  32.1134016  16.2297379
  60.9821896  31.3534417  15.6635377  60.6999490  32.8374916  15.7626168
  73.0824201  23.0480801  11.3576224  73.0259403  23.5049352  10.5183857
  73.6352544  22.2871485  11.1799067  76.8929007  18.8370533  12.1826344
  76.6365942  18.4367168  13.0134552  76.2681875  19.5514326  12.0576483
  81.2041345  21.5766606  14.6897635  80.6440903  21.6459795  15.4629197
  80.5984849  21.4007590  13.9697132  64.2736554  33.0103333  16.4415822
  64.1568938  33.9548765  16.3394512  63.4529000  32.7076894  16.8301621
  74.1613089  27.7353469   7.2872414  74.9958692  27.3034667   7.1049889
  73.9997431  27.5635482   8.2149309  58.6051496  19.4753646  22.4790176
  59.2510359  18.9652600  22.9677401  58.3968647  20.2122328  23.0533601
  71.1304888  26.5434494  27.9782316  71.9996048  26.7175146  27.6168951
  70.6511639  27.3628911  27.8558046  65.2991068  33.6631595  19.6571750
  66.2018315  33.6955205  19.9738245  65.0728438  32.7332046  19.6718086
  67.0544670  32.4162581  16.3181829  66.1040301  32.4164443  16.2046201
  67.3577156  31.6695316  15.8017863  62.9448987  16.6221263  26.5765190
  63.8080448  16.2658068  26.7868515  62.3714397  16.2835158  27.2640594
  82.7897364  38.2523120  17.3827591  83.4275774  38.1329867  16.6790931
  82.6718206  39.2003964  17.4415543  79.5987070  38.2050548  17.3189116
  79.2605581  38.0891613  16.4309651  80.4676838  37.8041713  17.2990122
  75.4573886  40.0586024  13.3086007  74.8938751  39.9675961  12.5402294
  75.3426281  39.2385929  13.7888499  80.0806853  39.3585400  23.2775321
  80.0695494  38.9638198  22.4055825  80.2427492  38.6251472  23.8709093
  73.0038318  41.5537216  16.1470227  73.7959609  41.2128040  15.7316526
  73.2434968  41.6632191  17.0672380  81.0373444  43.7256992   8.6200472
  80.3861424  44.3111072   8.2334485  81.8317807  44.2563187   8.6795509
  74.9629071  40.8146129   9.0187606  75.7359947  40.2675116   8.8800482
  75.3154470  41.6790378   9.2302067  76.8014114  42.1422511  22.2254505
  76.5103980  43.0468142  22.1101172  77.4371098  42.1839039  22.9398575
  77.7270321  39.5199360  18.8155865  78.3233893  39.2955382  18.1012828
  77.7845292  38.7784105  19.4181313  77.2995349  36.9738795   6.6506056
  77.5520870  36.4520316   5.8889519  76.3619908  36.8104941   6.7532739
  82.3438632  35.9774574  14.4580799  83.1301721  35.5593997  14.1071216
  82.6077336  36.8820666  14.6262447  82.5148709  41.4147424   9.1569456
  81.8794542  41.4882050   9.8690361  82.1846116  42.0041023   8.4788535
  87.7447059  35.9149807  15.3613778  88.4772231  35.3449024  15.5951607
  86.9886415  35.5271407  15.8020283  77.0191638  38.8766901   8.8530431
  76.9027896  38.2011805   9.5211515  77.1293898  38.3899275   8.0362584
  79.3623179  38.3377048  12.5577120  78.9981386  37.8107669  13.2690041
  80.2190295  37.9475517  12.3843605  85.2672480  29.6271381  19.8208386
  84.9355804  30.4966792  19.5969601  84.6718093  29.3107665  20.5002417
  79.0028666  33.3666948   7.5538469  79.1703068  34.2347184   7.9208940
  78.8125835  33.5294230   6.6299758  81.7603999  41.8283927  19.2204299
  81.4604722  42.7308966  19.1120106  81.4155059  41.5616110  20.0725452
  75.2116481  38.2797724  15.2541003  74.2866977  38.1473938  15.4618695
  75.4600894  39.0591943  15.7510946  85.1601143  34.3466467  16.9001736
  84.2518020  34.2781875  16.6060497  85.1088739  34.8238412  17.7283562
  78.9817887  35.8224605   8.5385135  78.8617512  36.2681656   9.3770616
  78.2870475  36.1709923   7.9798673  72.5725292  37.9230997  16.0884792
  72.7017673  38.1765476  17.0024204  71.8922743  38.5158705  15.7689447
  76.7424779  48.5928247  12.1875267  76.6648809  49.5436072  12.2663747
  76.1386422  48.2474120  12.8450193  79.2342009  35.7656113  24.8436633
  78.4575343  36.3250033  24.8339498  79.8732572  36.2512896  25.3651504
  87.0262789  32.5482905  18.6779610  86.3837170  32.8415439  18.0319405
  86.5217718  32.4335826  19.4832807  84.6802953  36.2946079   9.3665469
  85.5920809  36.5273465   9.1913167  84.1712600  36.8783123   8.8040548
  77.4888381  38.5741566  24.4054600  78.2303065  39.1126610  24.1289424
  76.7825366  39.2007855  24.5626152  82.9643721  40.7170706  23.0026762
  83.3727077  40.2753117  22.2581394  82.2420982  40.1423334  23.2560955
  79.3174791  35.6543313  20.3760319  80.1635986  36.0782727  20.5194968
  79.2573428  34.9976938  21.0698882  83.2872535  41.2771897  16.7579051
  82.6581398  41.4417611  16.0555119  82.8998197  41.6913507  17.5290015
  87.1661767  42.2126335  14.1123415  86.4812805  42.5925236  13.5620448
  87.2505616  42.8221662  14.8455362  82.4674236  33.3147682  22.0341493
  82.2235168  34.0689742  21.4975768  82.7434167  33.6933029  22.8688740
  84.4212699  39.8586294  20.7118758  84.6329594  40.5018054  20.0353139
  84.3742447  39.0248611  20.2440688  82.0238928  32.4704115  17.6155330
  81.1623407  32.7685368  17.9072068  82.0501362  32.6874514  16.6836363
  78.8400497  41.0146305  14.0229136  79.3038843  41.2934008  13.2333758
  78.5757295  40.1129750  13.8402227  75.7324578  40.5617787  16.9608899
  76.3025935  40.9905055  16.3226384  76.3232690  40.2800371  17.6593085
  77.7769383  37.1369458  10.8318701  78.4793427  37.5890501  11.2992627
  77.4450012  36.4953276  11.4598594  76.2249745  35.7281214  25.2069910
  75.5948405  36.4097495  25.4405307  76.1185833  35.6164296  24.2623049
  71.5194717  35.3953010  16.1335835  70.7293771  35.6510539  15.6575945
  72.0105965  36.2101348  16.2387875  85.5358527  42.7358249  18.8841115
  86.3575970  42.3338437  18.6023797  85.5320930  42.6326484  19.8357231
  73.4709463  35.7597589  13.0919311  72.6740626  35.8716284  13.6102807
  73.2435055  36.0984242  12.2260202  79.3015130  42.2842293  21.0401826
  79.3659563  42.7462700  21.8759998  78.5926054  41.6539658  21.1684136
  69.8032420  35.6483501  18.5650825  70.0540459  36.5330511  18.8308401
  70.3391969  35.4688102  17.7925917  93.6264520  39.0796998  15.2326087
  92.8728228  38.5104396  15.0770091  93.7612061  39.0459662  16.1796722
  79.0163148  43.9510400  10.9080806  78.8808823  44.7961936  11.3365654
  79.5572960  44.1529678  10.1446740  75.5030487  30.0301980  27.5695162
  75.1097433  29.4768179  28.2442806  76.3196628  30.3412559  27.9601679
  72.4692545  41.4685838  11.4808731  72.9817066  42.2629088  11.6314296
  73.1215258  40.7712129  11.4142333  74.2787430  44.5851595  13.5631485
  74.4554058  45.5069559  13.3752468  75.0744263  44.2710014  13.9925864
  78.4198448  31.4459859  25.1615418  79.1608162  32.0467012  25.0819881
  78.6516371  30.7037497  24.6033461  73.5639786  36.6316226  23.4393648
  73.4493302  35.7301484  23.7400747  72.7084304  36.8779923  23.0878464
  80.6431624  44.5733967  25.0381148  80.1995478  43.7870345  24.7202053
  81.3048838  44.7613117  24.3725039  75.4018745  46.1029768  19.5641827
  75.9526170  45.9746832  18.7918821  74.5630221  46.4024657  19.2136720
  82.7412862  44.8536767  23.0662550  82.7231338  45.6745648  22.5742819
  83.6632782  44.7290842  23.2912691  79.1985916  42.3680896  23.9086058
  79.7314253  41.6069184  23.6785366  78.6699998  42.0754548  24.6510213
  82.3655611  27.4740962  19.4379700  82.0219881  28.3642604  19.3618810
  82.7334574  27.2842620  18.5749285  70.4341462  39.7974493  12.2568302
  71.2716684  40.2071501  12.0402010  70.6119730  38.8573935  12.2268496
  82.3305894  37.4649573   7.9452135  81.8152518  38.2354178   8.1840522
  82.0583203  36.7914709   8.5685196  79.9153005  32.3099274  13.0037373
  79.0594601  31.9206124  12.8243012  80.3279957  32.3891235  12.1437159
  81.4452152  29.8445617  17.4028933  80.9416947  29.8075752  16.5896738
  81.7382759  30.7538360  17.4625590  77.6895038  29.9284347  16.4095115
  78.5548034  29.7327156  16.0501004  77.7572547  29.6994699  17.3364472
  87.3040168  40.2181928   9.8805308  86.5269611  39.8793087   9.4360470
  87.9831649  40.2234551   9.2060273  82.1192197  35.3376665   9.7711916
  81.8142333  35.6522814  10.6222059  83.0722639  35.4158085   9.8139249
  80.5638629  41.4966889  11.4204870  80.0359991  40.7619648  11.1078108
  80.0626132  42.2741565  11.1744838  85.5431475  39.6915909  16.5371916
  84.8855150  40.3815170  16.6252045  86.3471874  40.0812341  16.8805903
  75.2957357  32.1586555  13.7811482  75.8701109  31.9361736  13.0484675
  75.8828339  32.2275249  14.5340083  84.3536934  38.0460282  14.5875858
  84.8668816  38.6790274  15.0897568  85.0038158  37.4461477  14.2219218
  75.6226944  34.1891016   7.8007367  74.7864256  34.5265702   8.1216642
  75.4831713  34.0539996   6.8634504  77.5980024  29.0327804  12.5086551
  76.9444437  28.7176821  11.8843166  77.5560499  28.4103544  13.2346374
  78.7091229  39.3147099   4.4239843  77.8018291  39.0836352   4.6230992
  79.2062261  38.5184718   4.6113825  81.6159308  48.0244606   7.3436529
  80.9421007  48.3276303   7.9521487  82.0025130  48.8273686   6.9941986
  80.8317765  35.5209737  16.8334199  79.9140326  35.7424684  16.6755887
  81.2477908  35.5956048  15.9745906  81.6152813  36.9201153  11.9636879
  82.3624632  37.4322550  11.6544001  81.8844402  36.5985206  12.8241272
  79.8879463  39.4159694   8.9463833  78.9790682  39.1318727   9.0436303
  79.9174547  39.8358772   8.0867140  85.1198730  43.0266283  12.7155001
  84.6661057  42.1857193  12.7720191  84.4892697  43.6627682  13.0529781
  84.0631650  33.9558269  13.9455668  83.3254407  33.4435655  14.2765911
  84.3158423  33.5158651  13.1338945  83.5631669  44.8642780  13.6504819
  83.8554644  45.4247837  12.9317185  84.0730290  45.1571341  14.4057978
  84.1643277  26.7334521  14.5397437  84.4702154  25.8731885  14.2523353
  84.8895882  27.3252141  14.3396431  70.4567633  37.1365208  12.9279035
  70.2592033  36.5434569  12.2030102  69.9014297  36.8317418  13.6454974
  78.4364357  37.0288314  15.0473629  78.4912967  36.0762151  14.9716105
  77.6255559  37.1847753  15.5314927  79.5855551  40.9568437   6.2851912
  79.1474980  40.2404296   5.8257549  80.3265991  41.1844552   5.7237003
  76.3756717  35.6465374  12.8064007  75.5624582  35.9459545  13.2129200
  76.8715711  35.2521063  13.5238490  78.5265295  45.6423131  14.7398272
  78.4841473  45.8683977  13.8106804  79.4427993  45.4086506  14.8884073
  81.9730928  36.1107199  21.6378901  82.3280316  36.3378672  22.4973367
  82.6203060  36.4425575  21.0156157  87.7028665  39.2325634  12.3428230
  87.5646564  39.4227230  11.4149420  87.3464884  39.9945017  12.7996281
  75.8670791  33.2183730  18.4225242  76.5070171  33.0772489  17.7248206
  75.0348322  32.9318243  18.0463844  87.7298045  41.3002161  17.3539502
  88.1634552  41.2077451  18.2022556  88.4429626  41.2759662  16.7159518
  76.6431095  42.5186160  14.5360235  77.4371694  42.0236480  14.3342810
  75.9322788  41.9904023  14.1727940  81.4625940  44.9004256  18.8872602
  81.5162962  45.4695192  19.6550318  80.5940721  45.0706141  18.5226640
  72.9513859  36.6629242  10.6119987  72.0211447  36.6013697  10.8289950
  73.0471331  36.1405195   9.8156629  72.8699408  33.1884055  13.1998229
  73.1306225  34.1029388  13.0907390  73.6916580  32.7208497  13.3494842
  74.3424333  34.6021812  20.3697054  75.0147387  34.3939174  19.7209703
  73.5154120  34.4043898  19.9302286  88.5913594  41.3425862  19.8872387
  88.7849485  42.2471673  20.1331662  88.4914213  40.8833281  20.7210972
  80.2449905  31.2283753  22.3862715  79.5977820  31.9273702  22.2927191
  81.0150921  31.6619897  22.7538963  83.6528703  41.4932605  25.4613268
  83.5014210  41.2643157  24.5443352  83.6433383  42.4503206  25.4744613
  80.4214040  39.0664518  20.4459534  81.3506100  39.2175677  20.2728502
  80.0005070  39.1548538  19.5908181  79.2202371  43.0915182  18.2158072
  79.0813457  42.7233966  19.0884010  78.4316968  43.6062821  18.0442030
  79.8150523  48.1924278   9.5583608  79.9902279  47.7212322  10.3729231
  79.1283311  48.8190045   9.7864869  80.7707587  42.4696785  15.6046910
  80.4357419  42.4297555  16.5004560  80.2711532  41.8041501  15.1317320
  74.7451830  37.8764415  21.1299491  74.6071628  37.1444654  21.7311030
  75.6556754  37.7873315  20.8483679  83.7066778  39.8152819   5.8783969
  83.0895949  39.0899647   5.7817022  83.2383267  40.5762179   5.5351044
  77.3734131  37.5884374  20.6183171  78.0833750  36.9477566  20.5769789
  77.3303439  37.8397269  21.5409351  85.3620910  44.5251727  23.5389750
  85.3033456  43.8410948  22.8720333  85.7640428  45.2670717  23.0870376
  76.0863065  34.5749592  22.4378810  75.5500422  34.1240330  23.0900406
  75.4979774  34.7095501  21.6949274  74.3811609  51.3413641  16.3323469
  74.6208207  51.9732165  17.0102487  73.5380805  50.9901681  16.6188828
  75.4965324  34.0338243   5.0005274  74.6194790  33.9127044   4.6367520
  75.9723077  33.2424322   4.7484162  85.3638317  42.4891311  21.7703729
  84.4765096  42.1517233  21.8930128  85.9336868  41.7574343  22.0072495
  67.0167464  38.8215403  15.0946781  67.7038504  38.5077133  14.5067796
  66.8615593  39.7256768  14.8214032  71.8202186  33.7105600  19.5231804
  71.7360375  33.1031269  18.7882214  70.9984893  34.2014618  19.5241301
  78.8939470  47.1492764  18.7364973  78.8209642  47.9547735  19.2484277
  78.4516864  47.3484729  17.9112994  78.6829250  46.3864534  12.2467794
  77.8996772  46.9286214  12.3406019  79.3821995  46.9038513  12.6462035
  81.9925900  32.1959163  14.8902000  82.4894600  31.4429125  14.5703070
  81.2212882  32.2323480  14.3245209  89.8455658  37.8999529  16.5320291
  89.8345534  38.7824244  16.1614224  88.9773037  37.5471080  16.3374828
  81.3538154  47.0479598  20.8923131  82.0666126  47.6827063  20.8199033
  80.8628183  47.1443464  20.0763133  83.0755681  40.9530850  12.4640423
  82.1411960  41.0732313  12.2945127  83.2532349  40.0503317  12.2000433
  78.5760869  34.3376546  14.6173684  78.2058656  33.7847587  15.3054590
  79.0719961  33.7334680  14.0648684  86.4628232  36.7948170  12.9990457
  86.9288684  37.6276161  12.9250760  86.9135733  36.3293151  13.7035716
  76.4050068  44.7974041  21.7128702  77.1059527  45.4310524  21.8658096
  75.9345183  45.1388773  20.9524341  84.5304463  43.1391991   9.9976609
  84.8064307  43.0248586  10.9070483  83.6608962  42.7409476   9.9588782
  84.4344895  29.1628757  17.0381358  83.5207975  29.3932983  17.2063565
  84.8637996  29.2467201  17.8895391  84.2051354  37.3518649  19.5381252
  83.5522804  37.5994556  18.8833705  84.5831733  36.5382787  19.2043730
  81.1658527  47.3878342  13.6409423  81.3480922  46.5699998  14.1037175
  81.9891513  47.6046034  13.2034313  81.5000693  46.3146527  10.9024471
  82.0288459  45.8038982  10.2894633  81.7628912  45.9989057  11.7670004
  80.2538927  38.0938460  26.0247290  79.5779564  37.9932589  26.6949665
  81.0766560  37.9377673  26.4883287  72.0017786  44.3310396  18.6459805
  72.5871222  43.5854084  18.7787709  71.8042624  44.6414353  19.5296469
  74.8556441  47.3661644  13.6622247  74.1866816  47.8507771  13.1786287
  74.7169311  47.6130864  14.5765626  66.5935440  36.9015996  17.3664248
  66.6319540  36.3679587  18.1601366  66.0875733  36.3751202  16.7475225
  78.9961709  49.4005387  20.2604905  79.5480017  49.5637009  21.0253991
  79.3367903  49.9909825  19.5884930  73.9726203  31.7480537  20.8626790
  74.0367529  32.6095368  20.4504188  73.9093323  31.1354539  20.1299149
  73.4478475  33.8203669  24.5099824  74.0750514  33.4380747  25.1237349
  72.5906394  33.6017871  24.8755517  83.8472584  44.2266645  26.1153560
  84.3912488  44.8396603  25.6208515  83.2659429  44.7846223  26.6320573
  70.2244018  35.6280099  10.4418179  70.5197459  34.7190777  10.3885233
  69.3232054  35.6067838  10.1199182  82.1330097  47.3487363  17.2468588
  82.0081236  46.5477102  16.7379533  82.7909188  47.8433556  16.7582558
  73.7538265  33.7036095  16.4245728  73.0324851  34.3172063  16.2853201
  74.5431521  34.2393860  16.3462374  84.1965005  45.1496383  18.8748138
  83.2495341  45.0301734  18.8026464  84.5447778  44.2618881  18.9574399
  76.5564578  31.0390522  22.6986380  77.0798980  31.2852818  23.4612689
  76.3376912  31.8710556  22.2789517  71.9531860  33.3094196  10.5657504
  71.6244566  32.4291575  10.3832610  72.3071230  33.2541865  11.4533894
  81.2011438  44.9449099  15.0752490  81.0536401  44.0165806  15.2560060
  82.0264932  44.9669190  14.5909565  75.0673683  33.5967166  10.9332982
  75.4069755  34.1253087  10.2111590  75.5145803  33.9347572  11.7091549
  84.8045560  45.7677658  16.1617363  85.7292108  45.5620519  16.0241814
  84.6360864  45.5194059  17.0706704  77.7617123  31.9804217  20.3836050
  77.4213944  31.1812030  20.7856730  77.0556130  32.2805928  19.8112883
  78.4133595  29.0653529  18.8363373  79.2359665  28.5914007  18.7142264
  78.6571659  29.8444013  19.3362059  77.0541830  32.0941788   9.1326275
  77.7750192  32.4723040   8.6289992  76.4307134  32.8130664   9.2361253
  81.1972953  32.7986937  10.0684607  81.4136567  33.6811574   9.7673435
  80.7167020  32.4073150   9.3390249  75.9372174  35.7572650  16.6455352
  75.7916755  36.0712953  17.5379633  75.4597378  36.3757550  16.0926250
  77.7968557  32.7475198  16.6936241  77.7830126  31.8516291  16.3568539
  78.5140985  32.7545862  17.3274527  79.6494688  33.1812538  18.7389369
  79.3912465  34.1029609  18.7373699  79.1179728  32.7842973  19.4289833
  84.5940876  46.2863325  11.5179454  84.7677754  45.7209748  10.7653307
  85.0869768  47.0864220  11.3358944  70.4117836  38.2977994  19.5843013
  69.8671304  39.0737802  19.7163287  71.2897186  38.6448799  19.4262134
  77.2005453  31.6289578  11.9623811  77.3221364  30.7006224  12.1614699
  76.9107495  31.6428264  11.0502127  80.0696643  29.3144489  15.0990531
  80.0918340  29.3783822  14.1442511  80.4864702  28.4748997  15.2931038
  90.4480268  39.0499748  13.1369754  90.8911414  38.3007073  12.7388877
  89.5706778  39.0409884  12.7543486  85.5816049  45.6030090   8.6176352
  86.2766954  46.2236782   8.8363667  85.9239199  44.7525441   8.8928730
  71.1983858  37.4247890  22.4773170  70.4565594  37.5730526  23.0637800
  70.8776602  37.6856156  21.6139919  87.4807472  43.0529795  10.1463683
  88.0058796  43.3917068   9.4213003  87.3929825  42.1176810   9.9626818
  79.1427521  46.9663869  22.2753560  79.4514647  46.7213015  23.1476259
  79.9403003  47.1710507  21.7872430  79.1648133  49.1201778  14.5058936
  78.7253123  48.6278157  15.1991793  79.9156250  48.5774746  14.2651012
  71.6440472  45.3113319  14.5083564  72.4698492  45.0117091  14.1282208
  71.2934524  44.5420942  14.9573353  76.6122005  44.6639787  16.5781238
  75.9902014  44.0010492  16.2783466  77.2826872  44.6900919  15.8954886
  69.8449077  43.2299646  15.4672498  69.0080985  42.8021820  15.2856499
  69.8172722  43.4232089  16.4043289  76.6846532  33.1421575  26.1713744
  76.7334688  34.0183698  25.7891514  77.2269047  32.5998969  25.5985387
  87.1701378  43.6862699  25.4514881  86.3796922  43.6686838  24.9119381
  86.9334733  44.2250992  26.2063918  87.2899253  40.5355165  22.7647610
  87.3397258  40.3705173  23.7063133  87.1813176  39.6682424  22.3745490
  76.1735512  43.2143711  10.0539699  76.3223632  43.8979175   9.4006371
  76.9801955  43.1948801  10.5689154  84.5803016  36.5186093  24.0806916
  85.4812878  36.3792558  23.7890914  84.6550990  36.6840548  25.0205094
  78.9145821  33.8952948  22.9260103  78.0449130  34.1886514  22.6542691
  79.1505301  34.4793393  23.6467366  88.7917450  42.9552107  23.0089631
  88.5002258  43.3182087  23.8453092  88.1789581  42.2419115  22.8302963
  89.9913132  40.5204986  15.5292201  90.8260024  40.9594790  15.6929762
  90.1272261  40.0443640  14.7100447  87.0404638  38.0784721  21.4769689
  87.5158760  38.2712368  20.6688541  86.1170204  38.1343907  21.2313073
  73.9288145  39.2408888  11.0600768  73.6834187  38.3371218  11.2580978
  74.0984059  39.2426039  10.1180246  81.6184855  30.1132565  20.4425523
  82.1366799  30.8493592  20.1172012  81.2639987  30.4196558  21.2772282
  73.1983792  34.9737246   8.5586929  72.5053037  35.0481601   7.9026965
  72.9535544  34.2097590   9.0808446  81.8697449  26.5332847  15.9626420
  82.1499203  25.8656036  16.5886846  82.6548056  26.7261943  15.4501084
  79.6730917  45.7091841   7.5251446  79.1004884  46.3282028   7.0721918
  80.2463711  46.2591203   8.0591368  85.7406307  34.9550481  19.7097995
  86.6923730  35.0548579  19.7310219  85.5709758  34.1628750  20.2196079
  83.7620687  32.0406065  19.8957396  83.1670619  32.3211077  19.2003884
  83.4770383  32.5299965  20.6674137  82.8928177  45.9928991   8.6560028
  83.8258850  45.9274553   8.8592904  82.8051390  46.8285258   8.1974561
  85.5216194  45.3094862   5.6163976  85.4429825  44.9754725   6.5099734
  86.3425861  45.8016630   5.6155448  88.2194385  38.1756601  18.8240294
  88.1870705  37.2372602  19.0099978  88.8295009  38.2540638  18.0906119
  80.0577716  37.0452654   4.8667499  81.0036821  36.9158862   4.9355917
  79.6791961  36.3067316   5.3436927  88.3688873  34.9667644  18.8698578
  87.8527922  34.1826101  18.6828507  89.2528822  34.6386361  19.0345097
  86.0299600  28.7108660  14.8294390  85.8324422  28.4023748  15.7137722
  86.6399306  29.4370299  14.9592320  94.0370935  39.2372608  17.9646331
  94.7674323  38.9757896  18.5254035  93.4277880  38.5001330  18.0048399
  92.1186232  37.3780470  18.5620782  91.3919396  37.2436435  17.9537274
  91.7033519  37.6857299  19.3677501  79.9416408  41.0970400  26.3268156
  80.8619418  41.2748999  26.5208202  79.9065991  40.1526445  26.1747855
  78.2420633  34.9702630   4.8022384  77.3352088  34.6735743   4.8785097
  78.5196614  34.6732448   3.9356670  69.1598573  36.2908994  15.2521430
  68.8401358  35.4374302  14.9595804  68.6132002  36.5057572  16.0079397
  72.9378481  39.0071435  18.9690937  73.1564491  39.9388543  18.9878970
  73.3504255  38.6479409  19.7545741  79.8582699  29.5139520  10.9566625
  79.0483427  29.1686605  11.3321871  80.5467116  29.2047064  11.5454237
  81.7873247  28.5917567  12.5790922  82.3404286  29.0113020  13.2380945
  82.0243333  27.6653315  12.6213878  77.8106346  34.5804641  28.3593686
  77.7103073  35.5298997  28.2905777  77.5927888  34.2522879  27.4869756
  77.0119418  31.8289566   4.9434363  77.8738582  32.1544464   5.2030180
  77.1969762  31.0421061   4.4307429  69.0286833  39.9111905  17.2214552
  68.3350305  39.4965858  16.7084506  69.7759824  39.9532442  16.6247971
  85.1652054  30.7018092  12.0869586  84.5850723  31.3602896  11.7047638
  84.8987987  29.8795437  11.6757003  83.6155620  30.1023150  14.2890906
  84.1155399  30.2139684  13.4805225  84.2591228  29.7984203  14.9291715
  77.6737616  38.0101779  27.1758747  77.1904698  38.8102139  27.3822636
  77.7598555  38.0209724  26.2226191  70.9423576  39.8430159  15.0980567
  70.9194264  39.9417846  14.1462450  71.2524212  40.6895310  15.4197733
  73.6010954  41.9006314  19.2127181  74.5554207  41.8690256  19.1457113
  73.4023477  41.4396938  20.0277407  74.1910336  40.4707430  21.7797979
  75.0103225  40.9651509  21.8032816  74.4647144  39.5539398  21.7515546
  83.9476932  32.8618182  11.1425934  83.0602787  33.1467833  10.9246129
  84.3630921  32.7011946  10.2953211  87.2991468  32.8864703  14.8580273
  88.0751858  33.3761156  15.1304890  86.5739602  33.3122758  15.3152143
  89.7364027  33.5992323  15.9154214  90.3308518  33.3588059  15.2047522
  89.8090611  32.8799453  16.5427750  71.9561183  47.4425934  16.2297379
  71.8215651  46.6826334  15.6635377  71.5393245  48.1666833  15.7626168
  83.0920146  42.6262857   5.2373954  83.7955996  42.8312860   5.8531610
  82.3682794  43.1939619   5.5023038  83.9217956  38.3772718  11.3576224
  83.8653157  38.8341270  10.5183857  84.4746298  37.6163403  11.1799067
  87.7322762  34.1662450  12.1826344  87.4759696  33.7659086  13.0134552
  87.1075630  34.8806244  12.0576483  92.0435100  36.9058523  14.6897635
  91.4834658  36.9751713  15.4629197  91.4378603  36.7299508  13.9697132
  75.1130308  48.3395251  16.4415822  74.9962693  49.2840683  16.3394512
  74.2922755  48.0368812  16.8301621  85.0006843  43.0645386   7.2872414
  85.8352447  42.6326585   7.1049889  84.8391186  42.8927400   8.2149309
  84.6552735  39.5677500   8.6528754  84.6001539  39.4021771   7.7117198
  84.0298790  40.2753533   8.8090943  69.4445250  34.8045564  22.4790176
  70.0904114  34.2944518  22.9677401  69.2362401  35.5414246  23.0533601
  81.9698642  41.8726411  27.9782316  82.8389802  42.0467064  27.6168951
  81.4905394  42.6920828  27.8558046  77.9648861  29.0685609   8.2314072
  77.9527530  30.0127449   8.3882343  78.8572283  28.8855754   7.9373533
  76.1384823  48.9923512  19.6571750  77.0412069  49.0247123  19.9738245
  75.9122193  48.0623963  19.6718086  77.8938425  47.7454499  16.3181829
  76.9434056  47.7456361  16.2046201  78.1970911  46.9987234  15.8017863
  81.7800980  25.6628385  12.4860009  81.0133376  25.1086872  12.6316691
  82.1911685  25.7350254  13.3474160  73.7842741  31.9513181  26.5765190
  74.6474203  31.5949986  26.7868515  73.2108152  31.6127076  27.2640594
  93.6291118  53.5815037  17.3827591  94.2669528  53.4621785  16.6790931
  93.5111961  54.5295881  17.4415543  90.4380824  53.5342466  17.3189116
  90.0999336  53.4183530  16.4309651  91.3070593  53.1333631  17.2990122
  86.2967640  55.3877942  13.3086007  85.7332505  55.2967879  12.5402294
  86.1820035  54.5677846  13.7888499  90.9200607  54.6877317  23.2775321
  90.9089248  54.2930116  22.4055825  91.0821247  53.9543390  23.8709093
  83.8432072  56.8829134  16.1470227  84.6353364  56.5419958  15.7316526
  84.0828722  56.9924109  17.0672380  91.8767199  59.0548910   8.6200472
  91.2255179  59.6402990   8.2334485  92.6711562  59.5855105   8.6795509
  85.8022826  56.1438047   9.0187606  86.5753702  55.5967034   8.8800482
  86.1548225  57.0082296   9.2302067  87.6407869  57.4714429  22.2254505
  87.3497734  58.3760060  22.1101172  88.2764853  57.5130957  22.9398575
  88.5664075  54.8491278  18.8155865  89.1627648  54.6247300  18.1012828
  88.6239047  54.1076023  19.4181313  88.1389104  52.3030713   6.6506056
  88.3914624  51.7812234   5.8889519  87.2013663  52.1396858   6.7532739
  93.1832387  51.3066491  14.4580799  93.9695476  50.8885914  14.1071216
  93.4471091  52.2112583  14.6262447  93.3542464  56.7439342   9.1569456
  92.7188297  56.8173968   9.8690361  93.0239870  57.3332940   8.4788535
  98.5840814  51.2441724  15.3613778  99.3165986  50.6740941  15.5951607
  97.8280169  50.8563325  15.8020283  87.8585393  54.2058819   8.8530431
  87.7421651  53.5303722   9.5211515  87.9687652  53.7191193   8.0362584
  90.2016933  53.6668966  12.5577120  89.8375141  53.1399587  13.2690041
  91.0584049  53.2767435  12.3843605  96.1066234  44.9563299  19.8208386
  95.7749559  45.8258710  19.5969601  95.5111847  44.6399583  20.5002417
  89.8422420  48.6958866   7.5538469  90.0096823  49.5639102   7.9208940
  89.6519589  48.8586147   6.6299758  92.5997754  57.1575845  19.2204299
  92.2998477  58.0600883  19.1120106  92.2548813  56.8908028  20.0725452
  86.0510235  53.6089641  15.2541003  85.1260732  53.4765856  15.4618695
  86.2994648  54.3883861  15.7510946  95.9994897  49.6758385  16.9001736
  95.0911775  49.6073793  16.6060497  95.9482493  50.1530330  17.7283562
  89.8211641  51.1516523   8.5385135  89.7011266  51.5973574   9.3770616
  89.1264230  51.5001841   7.9798673  83.4119046  53.2522915  16.0884792
  83.5411427  53.5057394  17.0024204  82.7316497  53.8450623  15.7689447
  87.5818533  63.9220165  12.1875267  87.5042563  64.8727990  12.2663747
  86.9780177  63.5766037  12.8450193  90.0735763  51.0948030  24.8436633
  89.2969097  51.6541950  24.8339498  90.7126326  51.5804813  25.3651504
  97.8656544  47.8774823  18.6779610  97.2230924  48.1707356  18.0319405
  97.3611472  47.7627743  19.4832807  95.5196707  51.6237996   9.3665469
  96.4314564  51.8565383   9.1913167  95.0106355  52.2075041   8.8040548
  88.3282135  53.9033484  24.4054600  89.0696820  54.4418528  24.1289424
  87.6219121  54.5299772  24.5626152  93.8037475  56.0462624  23.0026762
  94.2120831  55.6045035  22.2581394  93.0814737  55.4715252  23.2560955
  90.1568545  50.9835231  20.3760319  91.0029740  51.4074644  20.5194968
  90.0967183  50.3268855  21.0698882  94.1266290  56.6063815  16.7579051
  93.4975152  56.7709529  16.0555119  93.7391952  57.0205424  17.5290015
  98.0055522  57.5418253  14.1123415  97.3206560  57.9217154  13.5620448
  98.0899371  58.1513579  14.8455362  93.3067990  48.6439599  22.0341493
  93.0628922  49.3981660  21.4975768  93.5827921  49.0224947  22.8688740
  95.2606453  55.1878212  20.7118758  95.4723348  55.8309972  20.0353139
  95.2136202  54.3540528  20.2440688  92.8632682  47.7996032  17.6155330
  92.0017161  48.0977286  17.9072068  92.8895117  48.0166431  16.6836363
  89.6794252  56.3438223  14.0229136  90.1432597  56.6225926  13.2333758
  89.4151050  55.4421667  13.8402227  86.5718333  55.8909704  16.9608899
  87.1419690  56.3196973  16.3226384  87.1626445  55.6092289  17.6593085
  88.6163138  52.4661375  10.8318701  89.3187181  52.9182419  11.2992627
  88.2843766  51.8245194  11.4598594  87.0643499  51.0573132  25.2069910
  86.4342160  51.7389413  25.4405307  86.9579587  50.9456213  24.2623049
  82.3588472  50.7244928  16.1335835  81.5687526  50.9802456  15.6575945
  82.8499719  51.5393266  16.2387875  96.3752281  58.0650167  18.8841115
  97.1969725  57.6630354  18.6023797  96.3714684  57.9618401  19.8357231
  84.3103217  51.0889507  13.0919311  83.5134380  51.2008201  13.6102807
  84.0828809  51.4276159  12.2260202  90.1408885  57.6134210  21.0401826
  90.2053317  58.0754618  21.8759998  89.4319809  56.9831575  21.1684136
  80.6426175  50.9775418  18.5650825  80.8934213  51.8622428  18.8308401
  81.1785723  50.7980020  17.7925917 104.4658274  54.4088916  15.2326087
 103.7121983  53.8396314  15.0770091 104.6005815  54.3751580  16.1796722
  89.8556902  59.2802318  10.9080806  89.7202577  60.1253854  11.3365654
  90.3966715  59.4821596  10.1446740  86.3424242  45.3593898  27.5695162
  85.9491188  44.8060096  28.2442806  87.1590382  45.6704476  27.9601679
  83.3086300  56.7977756  11.4808731  83.8210820  57.5921006  11.6314296
  83.9609013  56.1004046  11.4142333  85.1181184  59.9143512  13.5631485
  85.2947813  60.8361477  13.3752468  85.9138018  59.6001931  13.9925864
  89.2592203  46.7751777  25.1615418  90.0001916  47.3758930  25.0819881
  89.4910126  46.0329415  24.6033461  84.4033541  51.9608144  23.4393648
  84.2887056  51.0593401  23.7400747  83.5478059  52.2071841  23.0878464
  91.4825379  59.9025884  25.0381148  91.0389233  59.1162263  24.7202053
  92.1442592  60.0905035  24.3725039  86.2412500  61.4321686  19.5641827
  86.7919925  61.3038749  18.7918821  85.4023976  61.7316575  19.2136720
  93.5806617  60.1828684  23.0662550  93.5625092  61.0037565  22.5742819
  94.5026537  60.0582760  23.2912691  90.0379671  57.6972814  23.9086058
  90.5708008  56.9361102  23.6785366  89.5093752  57.4046466  24.6510213
  93.2049366  42.8032880  19.4379700  92.8613635  43.6934521  19.3618810
  93.5728328  42.6134537  18.5749285  81.2735216  55.1266410  12.2568302
  82.1110438  55.5363419  12.0402010  81.4513484  54.1865852  12.2268496
  93.1699649  52.7941491   7.9452135  92.6546272  53.5646095   8.1840522
  92.8976957  52.1206627   8.5685196  90.7546760  47.6391192  13.0037373
  89.8988356  47.2498042  12.8243012  91.1673711  47.7183152  12.1437159
  92.2845906  45.1737535  17.4028933  91.7810702  45.1367670  16.5896738
  92.5776513  46.0830278  17.4625590  88.5288792  45.2576265  16.4095115
  89.3941789  45.0619073  16.0501004  88.5966301  45.0286616  17.3364472
  98.1433923  55.5473846   9.8805308  97.3663365  55.2085005   9.4360470
  98.8225404  55.5526469   9.2060273  92.9585952  50.6668583   9.7711916
  92.6536087  50.9814732  10.6222059  93.9116394  50.7450003   9.8139249
  91.4032384  56.8258806  11.4204870  90.8753745  56.0911566  11.1078108
  90.9019886  57.6033483  11.1744838  96.3825230  55.0207827  16.5371916
  95.7248904  55.7107088  16.6252045  97.1865629  55.4104259  16.8805903
  86.1351111  47.4878473  13.7811482  86.7094863  47.2653654  13.0484675
  86.7222094  47.5567167  14.5340083  95.1930688  53.3752199  14.5875858
  95.7062570  54.0082191  15.0897568  95.8431912  52.7753395  14.2219218
  86.4620698  49.5182934   7.8007367  85.6258011  49.8557620   8.1216642
  86.3225468  49.3831913   6.8634504  88.4373779  44.3619721  12.5086551
  87.7838191  44.0468739  11.8843166  88.3954253  43.7395462  13.2346374
  89.5484984  54.6439017   4.4239843  88.6412046  54.4128270   4.6230992
  90.0456016  53.8476636   4.6113825  92.4553063  63.3536524   7.3436529
  91.7814761  63.6568220   7.9521487  92.8418885  64.1565604   6.9941986
  91.6711519  50.8501655  16.8334199  90.7534081  51.0716602  16.6755887
  92.0871663  50.9247965  15.9745906  92.4546567  52.2493071  11.9636879
  93.2018386  52.7614468  11.6544001  92.7238157  51.9277123  12.8241272
  90.7273217  54.7451611   8.9463833  89.8184436  54.4610644   9.0436303
  90.7568301  55.1650690   8.0867140  95.9592485  58.3558201  12.7155001
  95.5054812  57.5149111  12.7720191  95.3286451  58.9919599  13.0529781
  94.9025404  49.2850187  13.9455668  94.1648161  48.7727573  14.2765911
  95.1552178  48.8450569  13.1338945  94.4025424  60.1934698  13.6504819
  94.6948398  60.7539755  12.9317185  94.9124044  60.4863259  14.4057978
  95.0037032  42.0626439  14.5397437  95.3095908  41.2023802  14.2523353
  95.7289636  42.6544059  14.3396431  81.2961388  52.4657126  12.9279035
  81.0985787  51.8726486  12.2030102  80.7408052  52.1609336  13.6454974
  89.2758111  52.3580232  15.0473629  89.3306721  51.4054068  14.9716105
  88.4649313  52.5139671  15.5314927  90.4249305  56.2860355   6.2851912
  89.9868735  55.5696214   5.8257549  91.1659746  56.5136470   5.7237003
  87.2150471  50.9757292  12.8064007  86.4018337  51.2751462  13.2129200
  87.7109465  50.5812981  13.5238490  89.3659049  60.9715049  14.7398272
  89.3235228  61.1975895  13.8106804  90.2821748  60.7378423  14.8884073
  92.8124683  51.4399116  21.6378901  93.1674071  51.6670589  22.4973367
  93.4596814  51.7717493  21.0156157  98.5422420  54.5617552  12.3428230
  98.4040318  54.7519148  11.4149420  98.1858639  55.3236935  12.7996281
  86.7064546  48.5475647  18.4225242  87.3463925  48.4064406  17.7248206
  85.8742076  48.2610161  18.0463844  98.5691799  56.6294079  17.3539502
  99.0028306  56.5369368  18.2022556  99.2823380  56.6051580  16.7159518
  87.4824850  57.8478078  14.5360235  88.2765448  57.3528398  14.3342810
  86.7716542  57.3195941  14.1727940  92.3019694  60.2296173  18.8872602
  92.3556717  60.7987110  19.6550318  91.4334476  60.3998058  18.5226640
  83.7907613  51.9921159  10.6119987  82.8605201  51.9305615  10.8289950
  83.8865085  51.4697112   9.8156629  83.7093162  48.5175972  13.1998229
  83.9699980  49.4321306  13.0907390  84.5310335  48.0500415  13.3494842
  85.1818088  49.9313729  20.3697054  85.8541141  49.7231092  19.7209703
  84.3547874  49.7335815  19.9302286  99.4307349  56.6717780  19.8872387
  99.6243239  57.5763590  20.1331662  99.3307967  56.2125199  20.7210972
  91.0843660  46.5575670  22.3862715  90.4371575  47.2565620  22.2927191
  91.8544675  46.9911814  22.7538963  94.4922458  56.8224523  25.4613268
  94.3407964  56.5935074  24.5443352  94.4827137  57.7795124  25.4744613
  91.2607794  54.3956435  20.4459534  92.1899854  54.5467595  20.2728502
  90.8398824  54.4840456  19.5908181  90.0596126  58.4207100  18.2158072
  89.9207212  58.0525884  19.0884010  89.2710722  58.9354739  18.0442030
  90.6544278  63.5216196   9.5583608  90.8296034  63.0504239  10.3729231
  89.9677066  64.1481962   9.7864869  91.6101341  57.7988702  15.6046910
  91.2751174  57.7589472  16.5004560  91.1105287  57.1333418  15.1317320
  85.5845585  53.2056332  21.1299491  85.4465383  52.4736571  21.7311030
  86.4950508  53.1165233  20.8483679  94.5460533  55.1444737   5.8783969
  93.9289703  54.4191565   5.7817022  94.0777021  55.9054097   5.5351044
  88.2127886  52.9176292  20.6183171  88.9227504  52.2769484  20.5769789
  88.1697194  53.1689187  21.5409351  96.2014664  59.8543645  23.5389750
  96.1427210  59.1702865  22.8720333  96.6034183  60.5962635  23.0870376
  86.9256820  49.9041510  22.4378810  86.3894177  49.4532248  23.0900406
  86.3373528  50.0387418  21.6949274  85.2205363  66.6705559  16.3323469
  85.4601961  67.3024083  17.0102487  84.3774560  66.3193599  16.6188828
  86.3359079  49.3630161   5.0005274  85.4588545  49.2418962   4.6367520
  86.8116832  48.5716239   4.7484162  96.2032072  57.8183229  21.7703729
  95.3158850  57.4809151  21.8930128  96.7730623  57.0866260  22.0072495
  77.8561219  54.1507321  15.0946781  78.5432259  53.8369051  14.5067796
  77.7009347  55.0548685  14.8214032  82.6595941  49.0397517  19.5231804
  82.5754130  48.4323187  18.7882214  81.8378647  49.5306536  19.5241301
  89.7333225  62.4784681  18.7364973  89.6603396  63.2839653  19.2484277
  89.2910618  62.6776647  17.9112994  89.5223005  61.7156451  12.2467794
  88.7390526  62.2578132  12.3406019  90.2215750  62.2330431  12.6462035
  92.8319655  47.5251081  14.8902000  93.3288354  46.7721043  14.5703070
  92.0606636  47.5615397  14.3245209 100.6849412  53.2291446  16.5320291
 100.6739288  54.1116162  16.1614224  99.8166792  52.8762997  16.3374828
  92.1931908  62.3771515  20.8923131  92.9059881  63.0118980  20.8199033
  91.7021937  62.4735381  20.0763133  93.9149435  56.2822768  12.4640423
  92.9805714  56.4024231  12.2945127  94.0926104  55.3795235  12.2000433
  89.4154623  49.6668464  14.6173684  89.0452411  49.1139504  15.3054590
  89.9113716  49.0626597  14.0648684  97.3021987  52.1240087  12.9990457
  97.7682439  52.9568079  12.9250760  97.7529487  51.6585069  13.7035716
  87.2443822  60.1265959  21.7128702  87.9453282  60.7602442  21.8658096
  86.7738937  60.4680690  20.9524341  95.3698218  58.4683909   9.9976609
  95.6458062  58.3540503  10.9070483  94.5002717  58.0701393   9.9588782
  95.2738649  44.4920674  17.0381358  94.3601729  44.7224901  17.2063565
  95.7031751  44.5759118  17.8895391  95.0445108  52.6810566  19.5381252
  94.3916558  52.9286474  18.8833705  95.4225488  51.8674704  19.2043730
  92.0052282  62.7170259  13.6409423  92.1874676  61.8991915  14.1037175
  92.8285268  62.9337952  13.2034313  92.3394447  61.6438445  10.9024471
  92.8682214  61.1330899  10.2894633  92.6022667  61.3280975  11.7670004
  91.0932681  53.4230377  26.0247290  90.4173318  53.3224507  26.6949665
  91.9160315  53.2669591  26.4883287  82.8411540  59.6602314  18.6459805
  83.4264977  58.9146002  18.7787709  82.6436379  59.9706271  19.5296469
  85.6950195  62.6953561  13.6622247  85.0260571  63.1799689  13.1786287
  85.5563065  62.9422782  14.5765626  77.4329195  52.2307914  17.3664248
  77.4713294  51.6971505  18.1601366  76.9269488  51.7043120  16.7475225
  89.8355464  64.7297305  20.2604905  90.3873772  64.8928926  21.0253991
  90.1761657  65.3201743  19.5884930  84.8119957  47.0772455  20.8626790
  84.8761284  47.9387286  20.4504188  84.7487077  46.4646456  20.1299149
  84.2872230  49.1495587  24.5099824  84.9144268  48.7672664  25.1237349
  83.4300149  48.9309789  24.8755517  94.6866338  59.5558562  26.1153560
  95.2306242  60.1688521  25.6208515  94.1053183  60.1138141  26.6320573
  81.0637772  50.9572016  10.4418179  81.3591213  50.0482695  10.3885233
  80.1625808  50.9359756  10.1199182  92.9723851  62.6779280  17.2468588
  92.8474991  61.8769020  16.7379533  93.6302942  63.1725474  16.7582558
  84.5932019  49.0328013  16.4245728  83.8718605  49.6463981  16.2853201
  85.3825275  49.5685778  16.3462374  95.0358760  60.4788300  18.8748138
  94.0889095  60.3593652  18.8026464  95.3841533  59.5910798  18.9574399
  87.3958333  46.3682439  22.6986380  87.9192735  46.6144736  23.4612689
  87.1770666  47.2002474  22.2789517  82.7925614  48.6386114  10.5657504
  82.4638320  47.7583493  10.3832610  83.1464985  48.5833783  11.4533894
  92.0405193  60.2741017  15.0752490  91.8930155  59.3457724  15.2560060
  92.8658686  60.2961107  14.5909565  85.9067437  48.9259084  10.9332982
  86.2463510  49.4545005  10.2111590  86.3539558  49.2639490  11.7091549
  95.6439315  61.0969575  16.1617363  96.5685862  60.8912437  16.0241814
  95.4754618  60.8485977  17.0706704  88.6010878  47.3096134  20.3836050
  88.2607698  46.5103948  20.7856730  87.8949884  47.6097845  19.8112883
  89.2527350  44.3945447  18.8363373  90.0753419  43.9205925  18.7142264
  89.4965413  45.1735931  19.3362059  87.8935584  47.4233705   9.1326275
  88.6143947  47.8014958   8.6289992  87.2700888  48.1422582   9.2361253
  92.0366707  48.1278854  10.0684607  92.2530322  49.0103492   9.7673435
  91.5560774  47.7365068   9.3390249  86.7765929  51.0864568  16.6455352
  86.6310509  51.4004871  17.5379633  86.2991132  51.7049468  16.0926250
  88.6362311  48.0767115  16.6936241  88.6223880  47.1808209  16.3568539
  89.3534740  48.0837779  17.3274527  90.4888442  48.5104456  18.7389369
  90.2306220  49.4321526  18.7373699  89.9573483  48.1134890  19.4289833
  95.4334631  61.6155243  11.5179454  95.6071508  61.0501665  10.7653307
  95.9263522  62.4156138  11.3358944  81.2511591  53.6269912  19.5843013
  80.7065059  54.4029720  19.7163287  82.1290941  53.9740716  19.4262134
  88.0399207  46.9581496  11.9623811  88.1615119  46.0298142  12.1614699
  87.7501250  46.9720182  11.0502127  90.9090398  44.6436406  15.0990531
  90.9312095  44.7075739  14.1442511  91.3258457  43.8040915  15.2931038
 101.2874022  54.3791666  13.1369754 101.7305168  53.6298991  12.7388877
 100.4100532  54.3701802  12.7543486  96.4209803  60.9322007   8.6176352
  97.1160708  61.5528700   8.8363667  96.7632954  60.0817358   8.8928730
  82.0377613  52.7539808  22.4773170  81.2959349  52.9022444  23.0637800
  81.7170357  53.0148074  21.6139919  98.3201227  58.3821713  10.1463683
  98.8452551  58.7208986   9.4213003  98.2323579  57.4468728   9.9626818
  89.9821275  62.2955786  22.2753560  90.2908402  62.0504933  23.1476259
  90.7796757  62.5002425  21.7872430  90.0041887  64.4493696  14.5058936
  89.5646878  63.9570075  15.1991793  90.7550004  63.9066664  14.2651012
  82.4834226  60.6405237  14.5083564  83.3092246  60.3409009  14.1282208
  82.1328278  59.8712859  14.9573353  87.4515759  59.9931705  16.5781238
  86.8295769  59.3302410  16.2783466  88.1220626  60.0192837  15.8954886
  80.6842831  58.5591563  15.4672498  79.8474740  58.1313738  15.2856499
  80.6566477  58.7524007  16.4043289  87.5240287  48.4713493  26.1713744
  87.5728442  49.3475616  25.7891514  88.0662801  47.9290886  25.5985387
  98.0095133  59.0154616  25.4514881  97.2190676  58.9978755  24.9119381
  97.7728487  59.5542910  26.2063918  98.1293008  55.8647083  22.7647610
  98.1791013  55.6997090  23.7063133  98.0206931  54.9974342  22.3745490
  87.0129266  58.5435628  10.0539699  87.1617387  59.2271093   9.4006371
  87.8195710  58.5240719  10.5689154  95.4196770  51.8478011  24.0806916
  96.3206633  51.7084476  23.7890914  95.4944745  52.0132466  25.0205094
  89.7539575  49.2244866  22.9260103  88.8842885  49.5178432  22.6542691
  89.9899056  49.8085311  23.6467366  99.6311204  58.2844024  23.0089631
  99.3396013  58.6474005  23.8453092  99.0183336  57.5711033  22.8302963
 100.8306887  55.8496904  15.5292201 101.6653778  56.2886708  15.6929762
 100.9666016  55.3735557  14.7100447  97.8798393  53.4076639  21.4769689
  98.3552514  53.6004285  20.6688541  96.9563958  53.4635825  21.2313073
  84.7681899  54.5700806  11.0600768  84.5227941  53.6663136  11.2580978
  84.9377814  54.5717957  10.1180246  92.4578609  45.4424482  20.4425523
  92.9760553  46.1785509  20.1172012  92.1033742  45.7488476  21.2772282
  84.0377547  50.3029164   8.5586929  83.3446792  50.3773519   7.9026965
  83.7929299  49.5389507   9.0808446  92.7091203  41.8624765  15.9626420
  92.9892957  41.1947954  16.5886846  93.4941810  42.0553861  15.4501084
  90.5124672  61.0383759   7.5251446  89.9398639  61.6573946   7.0721918
  91.0857466  61.5883121   8.0591368  96.5800062  50.2842399  19.7097995
  97.5317485  50.3840497  19.7310219  96.4103512  49.4920668  20.2196079
  94.6014441  47.3697982  19.8957396  94.0064373  47.6502995  19.2003884
  94.3164138  47.8591883  20.6674137  93.7321932  61.3220909   8.6560028
  94.6652605  61.2566471   8.8592904  93.6445144  62.1577176   8.1974561
  96.3609948  60.6386779   5.6163976  96.2823580  60.3046643   6.5099734
  97.1819615  61.1308547   5.6155448  99.0588139  53.5048519  18.8240294
  99.0264460  52.5664519  19.0099978  99.6688763  53.5832555  18.0906119
  90.8971470  52.3744572   4.8667499  91.8430575  52.2450780   4.9355917
  90.5185715  51.6359234   5.3436927  99.2082628  50.2959562  18.8698578
  98.6921677  49.5118019  18.6828507 100.0922576  49.9678279  19.0345097
  96.8693355  44.0400578  14.8294390  96.6718176  43.7315666  15.7137722
  97.4793060  44.7662217  14.9592320 104.8764689  54.5664526  17.9646331
 105.6068078  54.3049814  18.5254035 104.2671635  53.8293247  18.0048399
 102.9579986  52.7072388  18.5620782 102.2313150  52.5728353  17.9537274
 102.5427273  53.0149217  19.3677501  90.7810163  56.4262318  26.3268156
  91.7013172  56.6040917  26.5208202  90.7459746  55.4818363  26.1747855
  89.0814388  50.2994548   4.8022384  88.1745843  50.0027661   4.8785097
  89.3590369  50.0024366   3.9356670  79.9992328  51.6200911  15.2521430
  79.6795112  50.7666220  14.9595804  79.4525756  51.8349490  16.0079397
  83.7772235  54.3363352  18.9690937  83.9958245  55.2680460  18.9878970
  84.1898009  53.9771327  19.7545741  90.6976453  44.8431438  10.9566625
  89.8877182  44.4978523  11.3321871  91.3860870  44.5338981  11.5454237
  92.6267002  43.9209485  12.5790922  93.1798040  44.3404938  13.2380945
  92.8637088  42.9945233  12.6213878  88.6500101  49.9096558  28.3593686
  88.5496828  50.8590915  28.2905777  88.4321643  49.5814797  27.4869756
  87.8513172  47.1581483   4.9434363  88.7132336  47.4836382   5.2030180
  88.0363516  46.3712979   4.4307429  79.8680588  55.2403823  17.2214552
  79.1744059  54.8257776  16.7084506  80.6153579  55.2824359  16.6247971
  96.0045809  46.0310010  12.0869586  95.4244478  46.6894814  11.7047638
  95.7381741  45.2087354  11.6757003  94.4549375  45.4315067  14.2890906
  94.9549153  45.5431602  13.4805225  95.0984983  45.1276120  14.9291715
  88.5131371  53.3393697  27.1758747  88.0298453  54.1394057  27.3822636
  88.5992310  53.3501642  26.2226191  81.7817330  55.1722077  15.0980567
  81.7588019  55.2709764  14.1462450  82.0917967  56.0187228  15.4197733
  84.4404708  57.2298232  19.2127181  85.3947962  57.1982174  19.1457113
  84.2417232  56.7688855  20.0277407  85.0304090  55.7999348  21.7797979
  85.8496979  56.2943426  21.8032816  85.3040898  54.8831316  21.7515546
  94.7870687  48.1910100  11.1425934  93.8996542  48.4759751  10.9246129
  95.2024676  48.0303863  10.2953211  98.1385223  48.2156621  14.8580273
  98.9145613  48.7053074  15.1304890  97.4133357  48.6414675  15.3152143
 100.5757781  48.9284240  15.9154214 101.1702272  48.6879976  15.2047522
 100.6484365  48.2091371  16.5427750  82.7954937  62.7717851  16.2297379
  82.6609405  62.0118252  15.6635377  82.3786999  63.4958751  15.7626168
  93.9313900  57.9554775   5.2373954  94.6349750  58.1604777   5.8531610
  93.2076549  58.5231537   5.5023038  94.7611710  53.7064636  11.3576224
  94.7046912  54.1633187  10.5183857  95.3140053  52.9455321  11.1799067
  98.5716516  49.4954368  12.1826344  98.3153451  49.0951004  13.0134552
  97.9469384  50.2098162  12.0576483 102.8828854  52.2350441  14.6897635
 102.3228412  52.3043630  15.4629197 102.2772357  52.0591426  13.9697132
  85.9524063  63.6687168  16.4415822  85.8356447  64.6132601  16.3394512
  85.1316509  63.3660730  16.8301621  95.8400597  58.3937304   7.2872414
  96.6746201  57.9618502   7.1049889  95.6784940  58.2219318   8.2149309
  95.4946490  54.8969417   8.6528754  95.4395293  54.7313689   7.7117198
  94.8692545  55.6045450   8.8090943  80.2839005  50.1337482  22.4790176
  80.9297868  49.6236436  22.9677401  80.0756156  50.8706163  23.0533601
  92.8092397  57.2018329  27.9782316  93.6783556  57.3758981  27.6168951
  92.3299148  58.0212746  27.8558046  88.8042615  44.3977526   8.2314072
  88.7921285  45.3419366   8.3882343  89.6966037  44.2147672   7.9373533
  86.9778577  64.3215430  19.6571750  87.8805824  64.3539040  19.9738245
  86.7515947  63.3915881  19.6718086  88.7332179  63.0746417  16.3181829
  87.7827810  63.0748278  16.2046201  89.0364665  62.3279151  15.8017863
  92.6194735  40.9920303  12.4860009  91.8527130  40.4378790  12.6316691
  93.0305440  41.0642172  13.3474160  84.6236496  47.2805099  26.5765190
  85.4867957  46.9241904  26.7868515  84.0501906  46.9418994  27.2640594
 104.4684873  68.9106955  17.3827591 105.1063283  68.7913702  16.6790931
 104.3505715  69.8587799  17.4415543 101.2774579  68.8634383  17.3189116
 100.9393090  68.7475448  16.4309651 102.1464347  68.4625548  17.2990122
  97.1361395  70.7169860  13.3086007  96.5726260  70.6259797  12.5402294
  97.0213790  69.8969764  13.7888499 101.7594362  70.0169235  23.2775321
 101.7483003  69.6222033  22.4055825 101.9215001  69.2835308  23.8709093
  94.6825826  72.2121051  16.1470227  95.4747118  71.8711876  15.7316526
  94.9222477  72.3216026  17.0672380 102.7160953  74.3840827   8.6200472
 102.0648933  74.9694908   8.2334485 103.5105316  74.9147022   8.6795509
  96.6416580  71.4729964   9.0187606  97.4147456  70.9258952   8.8800482
  96.9941979  72.3374214   9.2302067  98.4801623  72.8006347  22.2254505
  98.1891489  73.7051978  22.1101172  99.1158607  72.8422874  22.9398575
  99.4057830  70.1783195  18.8155865 100.0021402  69.9539218  18.1012828
  99.4632801  69.4367941  19.4181313  98.9782858  67.6322631   6.6506056
  99.2308379  67.1104152   5.8889519  98.0407417  67.4688776   6.7532739
 104.0226141  66.6358409  14.4580799 104.8089230  66.2177832  14.1071216
 104.2864845  67.5404501  14.6262447 104.1936218  72.0731259   9.1569456
 103.5582051  72.1465886   9.8690361 103.8633625  72.6624858   8.4788535
 109.4234568  66.5733642  15.3613778 110.1559740  66.0032859  15.5951607
 108.6673924  66.1855243  15.8020283  98.6979147  69.5350737   8.8530431
  98.5815405  68.8595640   9.5211515  98.8081407  69.0483110   8.0362584
 101.0410688  68.9960884  12.5577120 100.6768895  68.4691505  13.2690041
 101.8977804  68.6059353  12.3843605 106.9459989  60.2855216  19.8208386
 106.6143313  61.1550627  19.5969601 106.3505602  59.9691500  20.5002417
 100.6816175  64.0250783   7.5538469 100.8490577  64.8931020   7.9208940
 100.4913344  64.1878065   6.6299758 103.4391508  72.4867762  19.2204299
 103.1392231  73.3892801  19.1120106 103.0942568  72.2199945  20.0725452
  96.8903990  68.9381559  15.2541003  95.9654486  68.8057773  15.4618695
  97.1388403  69.7175778  15.7510946 106.8388652  65.0050302  16.9001736
 105.9305529  64.9365711  16.6060497 106.7876248  65.4822247  17.7283562
 100.6605396  66.4808441   8.5385135 100.5405021  66.9265492   9.3770616
  99.9657984  66.8293759   7.9798673  94.2512801  68.5814833  16.0884792
  94.3805182  68.8349312  17.0024204  93.5710252  69.1742541  15.7689447
  98.4212288  79.2512083  12.1875267  98.3436318  80.2019908  12.2663747
  97.8173931  78.9057955  12.8450193 100.9129518  66.4239948  24.8436633
 100.1362852  66.9833868  24.8339498 101.5520081  66.9096731  25.3651504
 108.7050298  63.2066741  18.6779610 108.0624679  63.4999274  18.0319405
 108.2005227  63.0919661  19.4832807 106.3590462  66.9529914   9.3665469
 107.2708318  67.1857301   9.1913167 105.8500109  67.5366958   8.8040548
  99.1675890  69.2325401  24.4054600  99.9090574  69.7710445  24.1289424
  98.4612875  69.8591690  24.5626152 104.6431230  71.3754542  23.0026762
 105.0514586  70.9336952  22.2581394 103.9208491  70.8007169  23.2560955
 100.9962300  66.3127149  20.3760319 101.8423495  66.7366562  20.5194968
 100.9360937  65.6560773  21.0698882 104.9660044  71.9355732  16.7579051
 104.3368907  72.1001447  16.0555119 104.5785706  72.3497342  17.5290015
 108.8449276  72.8710170  14.1123415 108.1600314  73.2509072  13.5620448
 108.9293125  73.4805497  14.8455362 104.1461745  63.9731517  22.0341493
 103.9022677  64.7273577  21.4975768 104.4221675  64.3516865  22.8688740
 106.1000208  70.5170129  20.7118758 106.3117103  71.1601889  20.0353139
 106.0529956  69.6832446  20.2440688 103.7026437  63.1287950  17.6155330
 102.8410916  63.4269204  17.9072068 103.7288871  63.3458349  16.6836363
 100.5188006  71.6730141  14.0229136 100.9826352  71.9517844  13.2333758
 100.2544804  70.7713585  13.8402227  97.4112087  71.2201622  16.9608899
  97.9813444  71.6488890  16.3226384  98.0020199  70.9384207  17.6593085
  99.4556892  67.7953293  10.8318701 100.1580936  68.2474337  11.2992627
  99.1237521  67.1537112  11.4598594  97.9037254  66.3865050  25.2069910
  97.2735914  67.0681330  25.4405307  97.7973342  66.2748131  24.2623049
  93.1982226  66.0536846  16.1335835  92.4081280  66.3094374  15.6575945
  93.6893474  66.8685183  16.2387875 107.2146036  73.3942085  18.8841115
 108.0363479  72.9922272  18.6023797 107.2108439  73.2910319  19.8357231
  95.1496972  66.4181425  13.0919311  94.3528135  66.5300119  13.6102807
  94.9222564  66.7568077  12.2260202 100.9802639  72.9426128  21.0401826
 101.0447072  73.4046535  21.8759998 100.2713563  72.3123493  21.1684136
  91.4819929  66.3067336  18.5650825  91.7327968  67.1914346  18.8308401
  92.0179478  66.1271938  17.7925917 115.3052029  69.7380833  15.2326087
 114.5515737  69.1688231  15.0770091 115.4399570  69.7043498  16.1796722
 100.6950657  74.6094236  10.9080806 100.5596332  75.4545771  11.3365654
 101.2360469  74.8113513  10.1446740  97.1817996  60.6885815  27.5695162
  96.7884942  60.1352014  28.2442806  97.9984137  60.9996394  27.9601679
  94.1480054  72.1269674  11.4808731  94.6604575  72.9212924  11.6314296
  94.8002767  71.4295964  11.4142333  95.9574939  75.2435430  13.5631485
  96.1341567  76.1653395  13.3752468  96.7531772  74.9293849  13.9925864
 100.0985957  62.1043694  25.1615418 100.8395671  62.7050848  25.0819881
 100.3303880  61.3621332  24.6033461  95.2427295  67.2900062  23.4393648
  95.1280811  66.3885319  23.7400747  94.3871813  67.5363759  23.0878464
 102.3219133  75.2317802  25.0381148 101.8782987  74.4454181  24.7202053
 102.9836347  75.4196953  24.3725039  97.0806254  76.7613604  19.5641827
  97.6313679  76.6330667  18.7918821  96.2417730  77.0608493  19.2136720
 104.4200371  75.5120602  23.0662550 104.4018847  76.3329483  22.5742819
 105.3420291  75.3874677  23.2912691 100.8773425  73.0264731  23.9086058
 101.4101762  72.2653020  23.6785366 100.3487506  72.7338383  24.6510213
 104.0443120  58.1324797  19.4379700 103.7007390  59.0226439  19.3618810
 104.4122083  57.9426455  18.5749285  92.1128971  70.4558328  12.2568302
  92.9504193  70.8655336  12.0402010  92.2907239  69.5157770  12.2268496
 104.0093403  68.1233409   7.9452135 103.4940027  68.8938013   8.1840522
 103.7370712  67.4498545   8.5685196 101.5940514  62.9683109  13.0037373
 100.7382110  62.5789960  12.8243012 102.0067466  63.0475070  12.1437159
 103.1239661  60.5029453  17.4028933 102.6204456  60.4659588  16.5896738
 103.4170268  61.4122195  17.4625590  99.3682547  60.5868182  16.4095115
 100.2335543  60.3910991  16.0501004  99.4360056  60.3578534  17.3364472
 108.9827677  70.8765763   9.8805308 108.2057120  70.5376923   9.4360470
 109.6619158  70.8818386   9.2060273 103.7979706  65.9960501   9.7711916
 103.4929842  66.3106650  10.6222059 104.7510148  66.0741921   9.8139249
 102.2426138  72.1550724  11.4204870 101.7147500  71.4203484  11.1078108
 101.7413641  72.9325400  11.1744838 107.2218984  70.3499744  16.5371916
 106.5642659  71.0399006  16.6252045 108.0259383  70.7396176  16.8805903
  96.9744866  62.8170390  13.7811482  97.5488618  62.5945572  13.0484675
  97.5615848  62.8859085  14.5340083 106.0324443  68.7044117  14.5875858
 106.5456325  69.3374109  15.0897568 106.6825667  68.1045313  14.2219218
  97.3014453  64.8474851   7.8007367  96.4651765  65.1849538   8.1216642
  97.1619222  64.7123831   6.8634504  99.2767533  59.6911639  12.5086551
  98.6231946  59.3760656  11.8843166  99.2348008  59.0687380  13.2346374
 100.3878738  69.9730934   4.4239843  99.4805800  69.7420188   4.6230992
 100.8849770  69.1768553   4.6113825 103.2946817  78.6828441   7.3436529
 102.6208516  78.9860138   7.9521487 103.6812639  79.4857522   6.9941986
 102.5105274  66.1793573  16.8334199 101.5927835  66.4008520  16.6755887
 102.9265417  66.2539883  15.9745906 103.2940322  67.5784988  11.9636879
 104.0412140  68.0906386  11.6544001 103.5631911  67.2569041  12.8241272
 101.5666972  70.0743529   8.9463833 100.6578191  69.7902562   9.0436303
 101.5962056  70.4942608   8.0867140 106.7986239  73.6850119  12.7155001
 106.3448566  72.8441028  12.7720191 106.1680206  74.3211517  13.0529781
 105.7419159  64.6142105  13.9455668 105.0041915  64.1019491  14.2765911
 105.9945932  64.1742486  13.1338945 105.2419178  75.5226615  13.6504819
 105.5342153  76.0831672  12.9317185 105.7517799  75.8155176  14.4057978
 105.8430786  57.3918357  14.5397437 106.1489663  56.5315720  14.2523353
 106.5683391  57.9835977  14.3396431  92.1355142  67.7949043  12.9279035
  91.9379542  67.2018404  12.2030102  91.5801806  67.4901253  13.6454974
 100.1151866  67.6872150  15.0473629 100.1700476  66.7345986  14.9716105
  99.3043068  67.8431589  15.5314927 101.2643060  71.6152273   6.2851912
 100.8262489  70.8988132   5.8257549 102.0053500  71.8428388   5.7237003
  98.0544226  66.3049209  12.8064007  97.2412091  66.6043380  13.2129200
  98.5503220  65.9104898  13.5238490 100.2052804  76.3006966  14.7398272
 100.1628982  76.5267813  13.8106804 101.1215502  76.0670341  14.8884073
 103.6518437  66.7691034  21.6378901 104.0067825  66.9962507  22.4973367
 104.2990569  67.1009411  21.0156157 109.3816174  69.8909470  12.3428230
 109.2434073  70.0811066  11.4149420 109.0252393  70.6528853  12.7996281
  97.5458300  63.8767565  18.4225242  98.1857680  63.7356324  17.7248206
  96.7135831  63.5902078  18.0463844 109.4085554  71.9585997  17.3539502
 109.8422061  71.8661286  18.2022556 110.1217135  71.9343497  16.7159518
  98.3218604  73.1769995  14.5360235  99.1159203  72.6820316  14.3342810
  97.6110297  72.6487858  14.1727940 103.1413449  75.5588091  18.8872602
 103.1950471  76.1279027  19.6550318 102.2728230  75.7289976  18.5226640
  94.6301368  67.3213077  10.6119987  93.6998956  67.2597533  10.8289950
  94.7258840  66.7989030   9.8156629  94.5486917  63.8467890  13.1998229
  94.8093734  64.7613223  13.0907390  95.3704089  63.3792332  13.3494842
  96.0211842  65.2605647  20.3697054  96.6934896  65.0523009  19.7209703
  95.1941629  65.0627733  19.9302286 110.2701103  72.0009697  19.8872387
 110.4636994  72.9055508  20.1331662 110.1701722  71.5417117  20.7210972
 101.9237414  61.8867588  22.3862715 101.2765329  62.5857538  22.2927191
 102.6938430  62.3203732  22.7538963 105.3316212  72.1516440  25.4613268
 105.1801719  71.9226992  24.5443352 105.3220892  73.1087042  25.4744613
 102.1001549  69.7248353  20.4459534 103.0293609  69.8759513  20.2728502
 101.6792579  69.8132374  19.5908181 100.8989880  73.7499017  18.2158072
 100.7600966  73.3817802  19.0884010 100.1104477  74.2646657  18.0442030
 101.4938032  78.8508114   9.5583608 101.6689788  78.3796157  10.3729231
 100.8070820  79.4773880   9.7864869 102.4495095  73.1280620  15.6046910
 102.1144928  73.0881390  16.5004560 101.9499041  72.4625336  15.1317320
  96.4239339  68.5348250  21.1299491  96.2859137  67.8028489  21.7311030
  97.3344263  68.4457150  20.8483679 105.3854287  70.4736654   5.8783969
 104.7683458  69.7483483   5.7817022 104.9170776  71.2346015   5.5351044
  99.0521640  68.2468209  20.6183171  99.7621259  67.6061402  20.5769789
  99.0090948  68.4981104  21.5409351 107.0408419  75.1835563  23.5389750
 106.9820965  74.4994783  22.8720333 107.4427937  75.9254553  23.0870376
  97.7650574  65.2333427  22.4378810  97.2287931  64.7824166  23.0900406
  97.1767283  65.3679336  21.6949274  96.0599118  81.9997477  16.3323469
  96.2995716  82.6316001  17.0102487  95.2168314  81.6485517  16.6188828
  97.1752833  64.6922079   5.0005274  96.2982299  64.5710879   4.6367520
  97.6510586  63.9008157   4.7484162 107.0425826  73.1475147  21.7703729
 106.1552605  72.8101068  21.8930128 107.6124377  72.4158178  22.0072495
  88.6954973  69.4799238  15.0946781  89.3826013  69.1660968  14.5067796
  88.5403102  70.3840603  14.8214032  93.4989695  64.3689435  19.5231804
  93.4147884  63.7615105  18.7882214  92.6772402  64.8598453  19.5241301
 100.5726979  77.8076599  18.7364973 100.4997151  78.6131571  19.2484277
 100.1304373  78.0068565  17.9112994 100.3616759  77.0448369  12.2467794
  99.5784281  77.5870049  12.3406019 101.0609504  77.5622349  12.6462035
 103.6713409  62.8542999  14.8902000 104.1682109  62.1012961  14.5703070
 102.9000391  62.8907315  14.3245209 111.5243167  68.5583364  16.5320291
 111.5133043  69.4408079  16.1614224 110.6560546  68.2054915  16.3374828
 103.0325663  77.7063433  20.8923131 103.7453635  78.3410898  20.8199033
 102.5415692  77.8027299  20.0763133 104.7543190  71.6114686  12.4640423
 103.8199469  71.7316148  12.2945127 104.9319858  70.7087153  12.2000433
 100.2548378  64.9960382  14.6173684  99.8846165  64.4431422  15.3054590
 100.7507470  64.3918515  14.0648684 108.1415741  67.4532005  12.9990457
 108.6076193  68.2859997  12.9250760 108.5923242  66.9876987  13.7035716
  98.0837577  75.4557877  21.7128702  98.7847036  76.0894359  21.8658096
  97.6132692  75.7972608  20.9524341 106.2091972  73.7975826   9.9976609
 106.4851816  73.6832421  10.9070483 105.3396471  73.3993311   9.9588782
 106.1132404  59.8212592  17.0381358 105.1995484  60.0516819  17.2063565
 106.5425505  59.9051036  17.8895391 105.8838862  68.0102484  19.5381252
 105.2310313  68.2578391  18.8833705 106.2619242  67.1966622  19.2043730
 102.8446036  78.0462177  13.6409423 103.0268431  77.2283833  14.1037175
 103.6679022  78.2629869  13.2034313 103.1788202  76.9730362  10.9024471
 103.7075968  76.4622817  10.2894633 103.4416421  76.6572892  11.7670004
 101.9326435  68.7522295  26.0247290 101.2567073  68.6516424  26.6949665
 102.7554069  68.5961509  26.4883287  93.6805295  74.9894232  18.6459805
  94.2658731  74.2437919  18.7787709  93.4830133  75.2998188  19.5296469
  96.5343950  78.0245479  13.6622247  95.8654325  78.5091607  13.1786287
  96.3956819  78.2714699  14.5765626  88.2722949  67.5599832  17.3664248
  88.3107049  67.0263422  18.1601366  87.7663242  67.0335037  16.7475225
 100.6749218  80.0589222  20.2604905 101.2267526  80.2220844  21.0253991
 101.0155412  80.6493660  19.5884930  95.6513712  62.4064372  20.8626790
  95.7155038  63.2679203  20.4504188  95.5880832  61.7938374  20.1299149
  95.1265984  64.4787505  24.5099824  95.7538023  64.0964582  25.1237349
  94.2693903  64.2601707  24.8755517 105.5260093  74.8850480  26.1153560
 106.0699997  75.4980438  25.6208515 104.9446938  75.4430058  26.6320573
  91.9031527  66.2863934  10.4418179  92.1984968  65.3774612  10.3885233
  91.0019563  66.2651673  10.1199182 103.8117606  78.0071198  17.2468588
 103.6868745  77.2060938  16.7379533 104.4696697  78.5017391  16.7582558
  95.4325774  64.3619931  16.4245728  94.7112360  64.9755898  16.2853201
  96.2219030  64.8977695  16.3462374 105.8752514  75.8080218  18.8748138
 104.9282850  75.6885569  18.8026464 106.2235287  74.9202716  18.9574399
  98.2352087  61.6974357  22.6986380  98.7586489  61.9436654  23.4612689
  98.0164421  62.5294392  22.2789517  93.6319368  63.9678032  10.5657504
  93.3032075  63.0875411  10.3832610  93.9858739  63.9125700  11.4533894
 102.8798947  75.6032934  15.0752490 102.7323910  74.6749642  15.2560060
 103.7052441  75.6253025  14.5909565  96.7461192  64.2551001  10.9332982
  97.0857264  64.7836923  10.2111590  97.1933312  64.5931408  11.7091549
 106.4833069  76.4261493  16.1617363 107.4079617  76.2204354  16.0241814
 106.3148373  76.1777894  17.0706704  99.4404632  62.6388052  20.3836050
  99.1001453  61.8395865  20.7856730  98.7343639  62.9389763  19.8112883
 100.0921104  59.7237365  18.8363373 100.9147174  59.2497843  18.7142264
 100.3359168  60.5027848  19.3362059  98.7329339  62.7525623   9.1326275
  99.4537701  63.1306876   8.6289992  98.1094643  63.4714500   9.2361253
 102.8760462  63.4570772  10.0684607 103.0924076  64.3395410   9.7673435
 102.3954529  63.0656985   9.3390249  97.6159683  66.4156485  16.6455352
  97.4704264  66.7296788  17.5379633  97.1384887  67.0341386  16.0926250
  99.4756066  63.4059033  16.6936241  99.4617635  62.5100126  16.3568539
 100.1928494  63.4129697  17.3274527 101.3282197  63.8396373  18.7389369
 101.0699974  64.7613444  18.7373699 100.7967237  63.4426808  19.4289833
 106.2728385  76.9447160  11.5179454 106.4465263  76.3793583  10.7653307
 106.7657277  77.7448055  11.3358944  92.0905345  68.9561830  19.5843013
  91.5458813  69.7321638  19.7163287  92.9684695  69.3032634  19.4262134
  98.8792962  62.2873413  11.9623811  99.0008873  61.3590060  12.1614699
  98.5895004  62.3012099  11.0502127 101.7484152  59.9728324  15.0990531
 101.7705849  60.0367657  14.1442511 102.1652211  59.1332833  15.2931038
 112.1267777  69.7083583  13.1369754 112.5698923  68.9590909  12.7388877
 111.2494287  69.6993720  12.7543486 107.2603558  76.2613925   8.6176352
 107.9554463  76.8820618   8.8363667 107.6026708  75.4109276   8.8928730
  92.8771367  68.0831726  22.4773170  92.1353103  68.2314361  23.0637800
  92.5564111  68.3439991  21.6139919 109.1594981  73.7113630  10.1463683
 109.6846305  74.0500903   9.4213003 109.0717334  72.7760646   9.9626818
 100.8215030  77.6247704  22.2753560 101.1302156  77.3796851  23.1476259
 101.6190512  77.8294343  21.7872430 100.8435642  79.7785614  14.5058936
 100.4040632  79.2861992  15.1991793 101.5943759  79.2358581  14.2651012
  93.3227981  75.9697155  14.5083564  94.1486001  75.6700926  14.1282208
  92.9722033  75.2004777  14.9573353  98.2909514  75.3223623  16.5781238
  97.6689523  74.6594328  16.2783466  98.9614381  75.3484755  15.8954886
  91.5236586  73.8883481  15.4672498  90.6868494  73.4605655  15.2856499
  91.4960231  74.0815924  16.4043289  98.3634041  63.8005411  26.1713744
  98.4122197  64.6767534  25.7891514  98.9056556  63.2582804  25.5985387
 108.8488887  74.3446534  25.4514881 108.0584431  74.3270673  24.9119381
 108.6122242  74.8834828  26.2063918 108.9686762  71.1939000  22.7647610
 109.0184767  71.0289008  23.7063133 108.8600685  70.3266259  22.3745490
  97.8523021  73.8727546  10.0539699  98.0011141  74.5563011   9.4006371
  98.6589464  73.8532636  10.5689154 106.2590525  67.1769928  24.0806916
 107.1600387  67.0376393  23.7890914 106.3338499  67.3424383  25.0205094
 100.5933330  64.5536783  22.9260103  99.7236639  64.8470349  22.6542691
 100.8292810  65.1377228  23.6467366 110.4704959  73.6135942  23.0089631
 110.1789767  73.9765923  23.8453092 109.8577090  72.9002950  22.8302963
 111.6700641  71.1788822  15.5292201 112.5047533  71.6178626  15.6929762
 111.8059770  70.7027475  14.7100447 108.7192147  68.7368557  21.4769689
 109.1946269  68.9296203  20.6688541 107.7957713  68.7927742  21.2313073
  95.6075654  69.8992724  11.0600768  95.3621696  68.9955054  11.2580978
  95.7771568  69.9009874  10.1180246 103.2972364  60.7716400  20.4425523
 103.8154308  61.5077427  20.1172012 102.9427496  61.0780393  21.2772282
  94.8771301  65.6321081   8.5586929  94.1840546  65.7065436   7.9026965
  94.6323053  64.8681425   9.0808446 103.5484958  57.1916683  15.9626420
 103.8286712  56.5239872  16.5886846 104.3335565  57.3845778  15.4501084
 101.3518426  76.3675677   7.5251446 100.7792393  76.9865864   7.0721918
 101.9251220  76.9175038   8.0591368 107.4193816  65.6134317  19.7097995
 108.3711239  65.7132414  19.7310219 107.2497267  64.8212585  20.2196079
 105.4408196  62.6989900  19.8957396 104.8458128  62.9794913  19.2003884
 105.1557892  63.1883801  20.6674137 104.5715686  76.6512827   8.6560028
 105.5046359  76.5858388   8.8592904 104.4838899  77.4869094   8.1974561
 107.2003703  75.9678697   5.6163976 107.1217334  75.6338561   6.5099734
 108.0213370  76.4600465   5.6155448 109.8981894  68.8340436  18.8240294
 109.8658214  67.8956437  19.0099978 110.5082518  68.9124473  18.0906119
 101.7365225  67.7036489   4.8667499 102.6824330  67.5742697   4.9355917
 101.3579470  66.9651151   5.3436927 110.0476382  65.6251480  18.8698578
 109.5315431  64.8409936  18.6828507 110.9316331  65.2970196  19.0345097
 107.7087109  59.3692495  14.8294390 107.5111931  59.0607584  15.7137722
 108.3186815  60.0954134  14.9592320 115.7158444  69.8956443  17.9646331
 116.4461832  69.6341731  18.5254035 115.1065389  69.1585165  18.0048399
 113.7973741  68.0364306  18.5620782 113.0706905  67.9020271  17.9537274
 113.3821028  68.3441134  19.3677501 101.6203917  71.7554235  26.3268156
 102.5406927  71.9332834  26.5208202 101.5853500  70.8110281  26.1747855
  99.9208142  65.6286466   4.8022384  99.0139597  65.3319578   4.8785097
 100.1984123  65.3316284   3.9356670  90.8386082  66.9492829  15.2521430
  90.5188867  66.0958137  14.9595804  90.2919511  67.1641407  16.0079397
  94.6165990  69.6655270  18.9690937  94.8352000  70.5972378  18.9878970
  95.0291764  69.3063245  19.7545741 101.5370208  60.1723355  10.9566625
 100.7270936  59.8270440  11.3321871 102.2254625  59.8630899  11.5454237
 103.4660756  59.2501402  12.5790922 104.0191795  59.6696856  13.2380945
 103.7030842  58.3237150  12.6213878  99.4893855  65.2388476  28.3593686
  99.3890582  66.1882833  28.2905777  99.2715397  64.9106715  27.4869756
  98.6906927  62.4873401   4.9434363  99.5526091  62.8128299   5.2030180
  98.8757271  61.7004897   4.4307429  90.7074342  70.5695741  17.2214552
  90.0137814  70.1549693  16.7084506  91.4547333  70.6116277  16.6247971
 106.8439563  61.3601927  12.0869586 106.2638232  62.0186731  11.7047638
 106.5775496  60.5379272  11.6757003 105.2943129  60.7606985  14.2890906
 105.7942908  60.8723520  13.4805225 105.9378737  60.4568038  14.9291715
  99.3525125  68.6685615  27.1758747  98.8692207  69.4685975  27.3822636
  99.4386064  68.6793560  26.2226191  92.6211085  70.5013994  15.0980567
  92.5981773  70.6001682  14.1462450  92.9311721  71.3479145  15.4197733
  95.2798463  72.5590149  19.2127181  96.2341716  72.5274092  19.1457113
  95.0810986  72.0980773  20.0277407  95.8697845  71.1291265  21.7797979
  96.6890734  71.6235344  21.8032816  96.1434653  70.2123234  21.7515546
 105.6264441  63.5202018  11.1425934 104.7390296  63.8051668  10.9246129
 106.0418430  63.3595781  10.2953211 108.9778977  63.5448539  14.8580273
 109.7539367  64.0344991  15.1304890 108.2527111  63.9706593  15.3152143
 111.4151536  64.2576158  15.9154214 112.0096027  64.0171894  15.2047522
 111.4878120  63.5383289  16.5427750  93.6348692  78.1009769  16.2297379
  93.5003159  77.3410170  15.6635377  93.2180754  78.8250669  15.7626168
 104.7707655  73.2846692   5.2373954 105.4743505  73.4896695   5.8531610
 104.0470303  73.8523454   5.5023038 105.6005465  69.0356554  11.3576224
 105.5440666  69.4925105  10.5183857 106.1533807  68.2747238  11.1799067
 109.4110271  64.8246286  12.1826344 109.1547205  64.4242921  13.0134552
 108.7863139  65.5390080  12.0576483 113.7222609  67.5642359  14.6897635
 113.1622167  67.6335548  15.4629197 113.1166112  67.3883343  13.9697132
  96.7917817  78.9979086  16.4415822  96.6750202  79.9424518  16.3394512
  95.9710264  78.6952647  16.8301621 106.6794352  73.7229222   7.2872414
 107.5139956  73.2910420   7.1049889 106.5178695  73.5511235   8.2149309
 106.3340244  70.2261335   8.6528754 106.2789048  70.0605606   7.7117198
 105.7086299  70.9337368   8.8090943  91.1232759  65.4629399  22.4790176
  91.7691623  64.9528353  22.9677401  90.9149910  66.1998081  23.0533601
 103.6486151  72.5310247  27.9782316 104.5177311  72.7050899  27.6168951
 103.1692903  73.3504664  27.8558046  99.6436370  59.7269444   8.2314072
  99.6315039  60.6711284   8.3882343 100.5359791  59.5439589   7.9373533
  97.8172332  79.6507348  19.6571750  98.7199578  79.6830958  19.9738245
  97.5909702  78.7207799  19.6718086  99.5725934  78.4038334  16.3181829
  98.6221565  78.4040196  16.2046201  99.8758420  77.6571069  15.8017863
 103.4588489  56.3212221  12.4860009 102.6920885  55.7670707  12.6316691
 103.8699194  56.3934089  13.3474160  95.4630250  62.6097016  26.5765190
  96.3261712  62.2533821  26.7868515  94.8895661  62.2710911  27.2640594
 115.3078627  84.2398873  17.3827591 115.9457037  84.1205620  16.6790931
 115.1899470  85.1879717  17.4415543 112.1168333  84.1926301  17.3189116
 111.7786845  84.0767366  16.4309651 112.9858102  83.7917466  17.2990122
 107.9755149  86.0461777  13.3086007 107.4120014  85.9551714  12.5402294
 107.8607544  85.2261682  13.7888499 112.5988116  85.3461153  23.2775321
 112.5876757  84.9513951  22.4055825 112.7608756  84.6127225  23.8709093
 105.5219581  87.5412969  16.1470227 106.3140873  87.2003794  15.7316526
 105.7616231  87.6507944  17.0672380 109.3195377  88.1298264  22.2254505
 109.0285243  89.0343895  22.1101172 109.9552362  88.1714792  22.9398575
 110.2451584  85.5075113  18.8155865 110.8415157  85.2831135  18.1012828
 110.3026556  84.7659858  19.4181313 114.8619896  81.9650327  14.4580799
 115.6482985  81.5469750  14.1071216 115.1258600  82.8696419  14.6262447
 120.2628323  81.9025560  15.3613778 120.9953495  81.3324777  15.5951607
 119.5067678  81.5147160  15.8020283 111.8804442  84.3252801  12.5577120
 111.5162650  83.7983422  13.2690041 112.7371558  83.9351270  12.3843605
 117.7853743  75.6147134  19.8208386 117.4537068  76.4842545  19.5969601
 117.1899356  75.2983418  20.5002417 114.2785263  87.8159680  19.2204299
 113.9785986  88.7184719  19.1120106 113.9336322  87.5491863  20.0725452
 107.7297744  84.2673477  15.2541003 106.8048241  84.1349691  15.4618695
 107.9782157  85.0467696  15.7510946 117.6782406  80.3342220  16.9001736
 116.7699284  80.2657629  16.6060497 117.6270002  80.8114165  17.7283562
 105.0906555  83.9106750  16.0884792 105.2198936  84.1641229  17.0024204
 104.4104006  84.5034458  15.7689447 111.7523272  81.7531866  24.8436633
 110.9756606  82.3125786  24.8339498 112.3913835  82.2388649  25.3651504
 119.5444053  78.5358658  18.6779610 118.9018433  78.8291192  18.0319405
 119.0398981  78.4211579  19.4832807 110.0069644  84.5617319  24.4054600
 110.7484329  85.1002363  24.1289424 109.3006630  85.1883608  24.5626152
 115.4824984  86.7046460  23.0026762 115.8908340  86.2628870  22.2581394
 114.7602246  86.1299087  23.2560955 111.8356054  81.6419066  20.3760319
 112.6817249  82.0658480  20.5194968 111.7754692  80.9852691  21.0698882
 115.8053799  87.2647650  16.7579051 115.1762661  87.4293364  16.0555119
 115.4179461  87.6789260  17.5290015 114.9855499  79.3023435  22.0341493
 114.7416431  80.0565495  21.4975768 115.2615430  79.6808782  22.8688740
 116.9393962  85.8462047  20.7118758 117.1510857  86.4893807  20.0353139
 116.8923710  85.0124364  20.2440688 114.5420191  78.4579868  17.6155330
 113.6804670  78.7561121  17.9072068 114.5682626  78.6750267  16.6836363
 111.3581761  87.0022058  14.0229136 111.8220106  87.2809761  13.2333758
 111.0938559  86.1005503  13.8402227 108.2505842  86.5493540  16.9608899
 108.8207199  86.9780808  16.3226384 108.8413954  86.2676124  17.6593085
 110.2950647  83.1245211  10.8318701 110.9974690  83.5766254  11.2992627
 109.9631275  82.4829029  11.4598594 108.7431008  81.7156967  25.2069910
 108.1129669  82.3973248  25.4405307 108.6367096  81.6040049  24.2623049
 104.0375981  81.3828763  16.1335835 103.2475035  81.6386292  15.6575945
 104.5287228  82.1977101  16.2387875 118.0539790  88.7234002  18.8841115
 118.8757234  88.3214190  18.6023797 118.0502193  88.6202237  19.8357231
 105.9890726  81.7473343  13.0919311 105.1921889  81.8592037  13.6102807
 105.7616318  82.0859995  12.2260202 111.8196394  88.2718046  21.0401826
 111.8840826  88.7338453  21.8759998 111.1107318  87.6415411  21.1684136
 102.3213684  81.6359254  18.5650825 102.5721722  82.5206264  18.8308401
 102.8573232  81.4563855  17.7925917 108.0211751  76.0177733  27.5695162
 107.6278696  75.4643932  28.2442806 108.8377891  76.3288312  27.9601679
 104.9873809  87.4561591  11.4808731 105.4998329  88.2504842  11.6314296
 105.6396522  86.7587882  11.4142333 110.9379712  77.4335612  25.1615418
 111.6789425  78.0342765  25.0819881 111.1697635  76.6913250  24.6033461
 106.0821050  82.6191979  23.4393648 105.9674565  81.7177237  23.7400747
 105.2265568  82.8655676  23.0878464 113.1612888  90.5609720  25.0381148
 112.7176742  89.7746098  24.7202053 113.8230101  90.7488870  24.3725039
 107.9200009  92.0905521  19.5641827 108.4707434  91.9622585  18.7918821
 107.0811485  92.3900410  19.2136720 115.2594126  90.8412520  23.0662550
 115.2412601  91.6621401  22.5742819 116.1814046  90.7166595  23.2912691
 111.7167180  88.3556649  23.9086058 112.2495517  87.5944937  23.6785366
 111.1881261  88.0630301  24.6510213 114.8836875  73.4616715  19.4379700
 114.5401144  74.3518357  19.3618810 115.2515837  73.2718373  18.5749285
 102.9522725  85.7850246  12.2568302 103.7897947  86.1947254  12.0402010
 103.1300993  84.8449688  12.2268496 112.4334269  78.2975027  13.0037373
 111.5775865  77.9081877  12.8243012 112.8461220  78.3766988  12.1437159
 113.9633415  75.8321370  17.4028933 113.4598211  75.7951505  16.5896738
 114.2564022  76.7414113  17.4625590 110.2076301  75.9160100  16.4095115
 111.0729298  75.7202909  16.0501004 110.2753810  75.6870452  17.3364472
 118.0612739  85.6791662  16.5371916 117.4036413  86.3690923  16.6252045
 118.8653138  86.0688094  16.8805903 107.8138620  78.1462308  13.7811482
 108.3882372  77.9237489  13.0484675 108.4009603  78.2151002  14.5340083
 116.8718197  84.0336035  14.5875858 117.3850079  84.6666027  15.0897568
 117.5219421  83.4337230  14.2219218 110.1161288  75.0203557  12.5086551
 109.4625700  74.7052574  11.8843166 110.0741762  74.3979297  13.2346374
 113.3499028  81.5085490  16.8334199 112.4321590  81.7300437  16.6755887
 113.7659172  81.5831801  15.9745906 116.5812913  79.9434022  13.9455668
 115.8435670  79.4311408  14.2765911 116.8339687  79.5034404  13.1338945
 116.6824541  72.7210274  14.5397437 116.9883417  71.8607638  14.2523353
 117.4077145  73.3127894  14.3396431 102.9748897  83.1240961  12.9279035
 102.7773296  82.5310322  12.2030102 102.4195561  82.8193171  13.6454974
 110.9545620  83.0164067  15.0473629 111.0094230  82.0637904  14.9716105
 110.1436822  83.1723506  15.5314927 108.8937980  81.6341127  12.8064007
 108.0805846  81.9335298  13.2129200 109.3896974  81.2396816  13.5238490
 114.4912192  82.0982952  21.6378901 114.8461580  82.3254425  22.4973367
 115.1384323  82.4301328  21.0156157 108.3852055  79.2059483  18.4225242
 109.0251434  79.0648242  17.7248206 107.5529585  78.9193996  18.0463844
 109.1612359  88.5061913  14.5360235 109.9552957  88.0112233  14.3342810
 108.4504051  87.9779776  14.1727940 113.9807203  90.8880009  18.8872602
 114.0344226  91.4570945  19.6550318 113.1121985  91.0581894  18.5226640
 105.4695122  82.6504995  10.6119987 104.5392710  82.5889450  10.8289950
 105.5652594  82.1280948   9.8156629 105.3880671  79.1759808  13.1998229
 105.6487489  80.0905141  13.0907390 106.2097844  78.7084250  13.3494842
 106.8605597  80.5897565  20.3697054 107.5328650  80.3814927  19.7209703
 106.0335383  80.3919651  19.9302286 121.1094858  87.3301615  19.8872387
 121.3030748  88.2347426  20.1331662 121.0095476  86.8709034  20.7210972
 112.7631169  77.2159506  22.3862715 112.1159084  77.9149455  22.2927191
 113.5332184  77.6495650  22.7538963 116.1709967  87.4808358  25.4613268
 116.0195473  87.2518910  24.5443352 116.1614646  88.4378959  25.4744613
 112.9395303  85.0540271  20.4459534 113.8687363  85.2051430  20.2728502
 112.5186333  85.1424291  19.5908181 111.7383635  89.0790935  18.2158072
 111.5994721  88.7109719  19.0884010 110.9498231  89.5938574  18.0442030
 113.2888850  88.4572538  15.6046910 112.9538683  88.4173308  16.5004560
 112.7892796  87.7917254  15.1317320 107.2633094  83.8640168  21.1299491
 107.1252892  83.1320407  21.7311030 108.1738017  83.7749068  20.8483679
 109.8915395  83.5760127  20.6183171 110.6015013  82.9353319  20.5769789
 109.8484703  83.8273022  21.5409351 117.8802173  90.5127480  23.5389750
 117.8214719  89.8286701  22.8720333 118.2821692  91.2546470  23.0870376
 108.6044329  80.5625345  22.4378810 108.0681686  80.1116083  23.0900406
 108.0161037  80.6971254  21.6949274 117.8819581  88.4767064  21.7703729
 116.9946359  88.1392986  21.8930128 118.4518132  87.7450096  22.0072495
  99.5348728  84.8091156  15.0946781 100.2219768  84.4952886  14.5067796
  99.3796856  85.7132521  14.8214032 104.3383450  79.6981353  19.5231804
 104.2541639  79.0907022  18.7882214 103.5166156  80.1890371  19.5241301
 111.4120734  93.1368517  18.7364973 111.3390905  93.9423488  19.2484277
 110.9698127  93.3360483  17.9112994 114.5107164  78.1834916  14.8902000
 115.0075863  77.4304879  14.5703070 113.7394145  78.2199233  14.3245209
 122.3636921  83.8875282  16.5320291 122.3526797  84.7699997  16.1614224
 121.4954301  83.5346833  16.3374828 113.8719417  93.0355351  20.8923131
 114.5847390  93.6702816  20.8199033 113.3809446  93.1319217  20.0763133
 111.0942132  80.3252299  14.6173684 110.7239920  79.7723340  15.3054590
 111.5901225  79.7210433  14.0648684 108.9231331  90.7849794  21.7128702
 109.6240790  91.4186277  21.8658096 108.4526446  91.1264526  20.9524341
 116.9526158  75.1504510  17.0381358 116.0389238  75.3808737  17.2063565
 117.3819260  75.2342954  17.8895391 116.7232617  83.3394402  19.5381252
 116.0704067  83.5870309  18.8833705 117.1012997  82.5258540  19.2043730
 112.7720190  84.0814213  26.0247290 112.0960827  83.9808342  26.6949665
 113.5947824  83.9253426  26.4883287 104.5199049  90.3186149  18.6459805
 105.1052486  89.5729837  18.7787709 104.3223888  90.6290106  19.5296469
  99.1116704  82.8891749  17.3664248  99.1500803  82.3555340  18.1601366
  98.6056997  82.3626955  16.7475225 111.5142973  95.3881140  20.2604905
 112.0661281  95.5512762  21.0253991 111.8549166  95.9785578  19.5884930
 106.4907466  77.7356290  20.8626790 106.5548793  78.5971121  20.4504188
 106.4274586  77.1230292  20.1299149 105.9659739  79.8079423  24.5099824
 106.5931777  79.4256500  25.1237349 105.1087657  79.5893624  24.8755517
 116.3653847  90.2142398  26.1153560 116.9093751  90.8272356  25.6208515
 115.7840692  90.7721976  26.6320573 102.7425281  81.6155852  10.4418179
 103.0378722  80.7066530  10.3885233 101.8413317  81.5943591  10.1199182
 106.2719528  79.6911848  16.4245728 105.5506114  80.3047816  16.2853201
 107.0612784  80.2269613  16.3462374 116.7146269  91.1372136  18.8748138
 115.7676604  91.0177487  18.8026464 117.0629042  90.2494634  18.9574399
 109.0745842  77.0266275  22.6986380 109.5980244  77.2728571  23.4612689
 108.8558175  77.8586309  22.2789517 104.4713123  79.2969949  10.5657504
 104.1425829  78.4167328  10.3832610 104.8252494  79.2417618  11.4533894
 107.5854946  79.5842919  10.9332982 107.9251019  80.1128840  10.2111590
 108.0327067  79.9223325  11.7091549 110.2798387  77.9679970  20.3836050
 109.9395207  77.1687783  20.7856730 109.5737393  78.2681681  19.8112883
 110.9314859  75.0529282  18.8363373 111.7540928  74.5789760  18.7142264
 111.1752922  75.8319766  19.3362059 109.5723093  78.0817541   9.1326275
 110.2931456  78.4598793   8.6289992 108.9488397  78.8006417   9.2361253
 113.7154216  78.7862690  10.0684607 113.9317831  79.6687328   9.7673435
 113.2348283  78.3948903   9.3390249 108.4553438  81.7448403  16.6455352
 108.3098018  82.0588706  17.5379633 107.9778641  82.3633303  16.0926250
 110.3149820  78.7350951  16.6936241 110.3011389  77.8392044  16.3568539
 111.0322249  78.7421615  17.3274527 112.1675951  79.1688291  18.7389369
 111.9093729  80.0905362  18.7373699 111.6360991  78.7718726  19.4289833
 102.9299100  84.2853747  19.5843013 102.3852568  85.0613555  19.7163287
 103.8078450  84.6324552  19.4262134 109.7186716  77.6165331  11.9623811
 109.8402628  76.6881977  12.1614699 109.4288759  77.6304017  11.0502127
 112.5877907  75.3020242  15.0990531 112.6099604  75.3659575  14.1442511
 113.0045966  74.4624750  15.2931038 103.7165122  83.4123644  22.4773170
 102.9746858  83.5606279  23.0637800 103.3957866  83.6731909  21.6139919
 111.6608784  92.9539622  22.2753560 111.9695911  92.7088769  23.1476259
 112.4584266  93.1586260  21.7872430 104.1621735  91.2989072  14.5083564
 104.9879755  90.9992844  14.1282208 103.8115787  90.5296695  14.9573353
 109.1303268  90.6515540  16.5781238 108.5083278  89.9886245  16.2783466
 109.8008135  90.6776672  15.8954886 102.3630340  89.2175399  15.4672498
 101.5262249  88.7897573  15.2856499 102.3353986  89.4107842  16.4043289
 109.2027796  79.1297328  26.1713744 109.2515951  80.0059451  25.7891514
 109.7450310  78.5874722  25.5985387 119.6882642  89.6738452  25.4514881
 118.8978185  89.6562591  24.9119381 119.4515996  90.2126745  26.2063918
 119.8080517  86.5230918  22.7647610 119.8578522  86.3580926  23.7063133
 119.6994440  85.6558177  22.3745490 117.0984279  82.5061846  24.0806916
 117.9994142  82.3668311  23.7890914 117.1732254  82.6716301  25.0205094
 111.4327084  79.8828701  22.9260103 110.5630394  80.1762267  22.6542691
 111.6686565  80.4669146  23.6467366 121.3098713  88.9427860  23.0089631
 121.0183522  89.3057840  23.8453092 120.6970845  88.2294868  22.8302963
 119.5585902  84.0660474  21.4769689 120.0340023  84.2588121  20.6688541
 118.6351467  84.1219660  21.2313073 106.4469408  85.2284641  11.0600768
 106.2015450  84.3246971  11.2580978 106.6165323  85.2301792  10.1180246
 114.1366118  76.1008318  20.4425523 114.6548062  76.8369345  20.1172012
 113.7821251  76.4072311  21.2772282 105.7165056  80.9612999   8.5586929
 105.0234301  81.0357354   7.9026965 105.4716808  80.1973343   9.0808446
 114.3878712  72.5208600  15.9626420 114.6680466  71.8531789  16.5886846
 115.1729319  72.7137696  15.4501084 118.2587571  80.9426234  19.7097995
 119.2104994  81.0424332  19.7310219 118.0891021  80.1504503  20.2196079
 116.2801950  78.0281818  19.8957396 115.6851882  78.3086830  19.2003884
 115.9951647  78.5175718  20.6674137 120.7375648  84.1632354  18.8240294
 120.7051969  83.2248355  19.0099978 121.3476272  84.2416391  18.0906119
 120.8870137  80.9543397  18.8698578 120.3709186  80.1701854  18.6828507
 121.7710085  80.6262114  19.0345097 118.5480864  74.6984413  14.8294390
 118.3505685  74.3899501  15.7137722 119.1580569  75.4246052  14.9592320
 126.5552198  85.2248361  17.9646331 127.2855587  84.9633649  18.5254035
 125.9459144  84.4877083  18.0048399 124.6367495  83.3656223  18.5620782
 123.9100659  83.2312188  17.9537274 124.2214782  83.6733052  19.3677501
 112.4597672  87.0846153  26.3268156 113.3800681  87.2624752  26.5208202
 112.4247255  86.1402198  26.1747855 101.6779837  82.2784747  15.2521430
 101.3582621  81.4250055  14.9595804 101.1313265  82.4933325  16.0079397
 105.4559744  84.9947188  18.9690937 105.6745754  85.9264296  18.9878970
 105.8685518  84.6355162  19.7545741 112.3763962  75.5015273  10.9566625
 111.5664691  75.1562358  11.3321871 113.0648379  75.1922817  11.5454237
 114.3054510  74.5793320  12.5790922 114.8585549  74.9988773  13.2380945
 114.5424597  73.6529068  12.6213878 110.3287610  80.5680394  28.3593686
 110.2284337  81.5174751  28.2905777 110.1109152  80.2398632  27.4869756
 101.5468097  85.8987658  17.2214552 100.8531568  85.4841611  16.7084506
 102.2941088  85.9408195  16.6247971 117.6833318  76.6893845  12.0869586
 117.1031987  77.3478649  11.7047638 117.4169250  75.8671190  11.6757003
 116.1336884  76.0898903  14.2890906 116.6336662  76.2015437  13.4805225
 116.7772492  75.7859956  14.9291715 110.1918880  83.9977532  27.1758747
 109.7085961  84.7977893  27.3822636 110.2779819  84.0085477  26.2226191
 103.4604839  85.8305912  15.0980567 103.4375527  85.9293599  14.1462450
 103.7705476  86.6771063  15.4197733 106.1192217  87.8882067  19.2127181
 107.0735471  87.8566009  19.1457113 105.9204741  87.4272691  20.0277407
 106.7091599  86.4583183  21.7797979 107.5284488  86.9527262  21.8032816
 106.9828407  85.5415151  21.7515546 116.4658196  78.8493935  11.1425934
 115.5784051  79.1343586  10.9246129 116.8812185  78.6887699  10.2953211
 119.8172732  78.8740456  14.8580273 120.5933122  79.3636909  15.1304890
 119.0920866  79.2998511  15.3152143 122.2545290  79.5868076  15.9154214
 122.8489781  79.3463812  15.2047522 122.3271874  78.8675206  16.5427750
 104.4742446  93.4301687  16.2297379 104.3396914  92.6702087  15.6635377
 104.0574508  94.1542586  15.7626168 107.6311572  94.3271004  16.4415822
 107.5143956  95.2716436  16.3394512 106.8104018  94.0244565  16.8301621
 101.9626514  80.7921317  22.4790176 102.6085377  80.2820271  22.9677401
 101.7543665  81.5289999  23.0533601 114.4879906  87.8602164  27.9782316
 115.3571065  88.0342817  27.6168951 114.0086657  88.6796581  27.8558046
 110.4830124  75.0561362   8.2314072 110.4708794  76.0003202   8.3882343
 111.3753546  74.8731507   7.9373533 108.6566086  94.9799265  19.6571750
 109.5593333  95.0122876  19.9738245 108.4303456  94.0499716  19.6718086
 114.2982244  71.6504138  12.4860009 113.5314639  71.0962625  12.6316691
 114.7092949  71.7226007  13.3474160 106.3024005  77.9388934  26.5765190
 107.1655466  77.5825739  26.7868515 105.7289415  77.6002829  27.2640594
 122.5917027  97.0823783  24.8436633 121.8150361  97.6417703  24.8339498
 123.2307590  97.5680566  25.3651504 119.5824763  97.0448885  25.2069910
 118.9523423  97.7265166  25.4405307 119.4760851  96.9331967  24.2623049
 118.8605505  91.3469651  27.5695162 118.4672451  90.7935849  28.2442806
 119.6771646  91.6580229  27.9601679 121.7773466  92.7627530  25.1615418
 122.5183180  93.3634683  25.0819881 122.0091389  92.0205168  24.6033461
 116.9214804  97.9483897  23.4393648 116.8068320  97.0469154  23.7400747
 116.0659322  98.1947594  23.0878464 123.6024923  92.5451423  22.3862715
 122.9552838  93.2441373  22.2927191 124.3725939  92.9787567  22.7538963
 119.4438083  95.8917263  22.4378810 118.9075440  95.4408001  23.0900406
 118.8554792  96.0263171  21.6949274 115.1777204  95.0273270  19.5231804
 115.0935393  94.4198940  18.7882214 114.3559911  95.5182289  19.5241301
 123.6113944  99.4106130  26.0247290 122.9354581  99.3100260  26.6949665
 124.4341578  99.2545344  26.4883287 117.3301221  93.0648208  20.8626790
 117.3942547  93.9263039  20.4504188 117.2668341  92.4522209  20.1299149
 116.8053493  95.1371340  24.5099824 117.4325532  94.7548417  25.1237349
 115.9481412  94.9185542  24.8755517 119.9139596  92.3558192  22.6986380
 120.4373998  92.6020489  23.4612689 119.6951930  93.1878227  22.2789517
 114.5558876  98.7415561  22.4773170 113.8140612  98.8898197  23.0637800
 114.2351620  99.0023827  21.6139919 120.0421550  94.4589246  26.1713744
 120.0909706  95.3351369  25.7891514 120.5844065  93.9166639  25.5985387
 122.2720839  95.2120619  22.9260103 121.4024148  95.5054185  22.6542691
 122.5080319  95.7961064  23.6467366 121.1681364  95.8972311  28.3593686
 121.0678091  96.8466668  28.2905777 120.9502906  95.5690550  27.4869756
 121.0312634  99.3269450  27.1758747 120.5479716 100.1269810  27.3822636
 121.1173573  99.3377395  26.2226191 112.8020268  96.1213235  22.4790176
 113.4479132  95.6112189  22.9677401 112.5937419  96.8581916  23.0533601
 117.1417759  93.2680852  26.5765190 118.0049221  92.9117657  26.7868515
 116.5683170  92.9294747  27.2640594  80.6431625  21.5796089  11.7626455
  80.1995480  20.7932468  11.4447360  81.3048839  21.7675240  11.0970346
  82.7412864  21.8598889   9.7907856  82.7231339  22.6807770   9.2988125
  83.6632784  21.7352964  10.0157997  79.1985918  19.3743019  10.6331365
  79.7314254  18.6131307  10.4030673  78.6699999  19.0816671  11.3755519
  88.5913596  18.3487985   6.6117694  88.7849486  19.2533795   6.8576969
  88.4914214  17.8895404   7.4456279  83.6528704  18.4994727  12.1858574
  83.5014211  18.2705279  11.2688658  83.6433384  19.4565329  12.1989919
  85.3620911  21.5313850  10.2635056  85.3033457  20.8473070   9.5965639
  85.7640429  22.2732840   9.8115682  85.3638318  19.4953434   8.4949036
  84.4765097  19.1579356   8.6175435  85.9336869  18.7636465   8.7317801
  81.3538155  24.0541720   7.6168438  82.0666127  24.6889185   7.5444339
  80.8628184  24.1505586   6.8008440  80.2538928  15.1000582  12.7492596
  79.5779565  14.9994712  13.4194971  81.0766562  14.9439796  13.2128593
  78.9961711  26.4067510   6.9850212  79.5480019  26.5699131   7.7499297
  79.3367904  26.9971948   6.3130237  83.8472585  21.2328767  12.8398867
  84.3912489  21.8458726  12.3453821  83.2659430  21.7908346  13.3565880
  79.1427522  23.9725991   8.9998866  79.4514648  23.7275138   9.8721566
  79.9403004  24.1772630   8.5117737  87.1701379  20.6924821  12.1760188
  86.3796923  20.6748960  11.6364687  86.9334734  21.2313115  12.9309224
  87.2899254  17.5417288   9.4892916  87.3397259  17.3767295  10.4308439
  87.1813178  16.6744547   9.0990797  84.5803017  13.5248216  10.8052223
  85.4812880  13.3854681  10.5136221  84.6550991  13.6902671  11.7450401
  88.7917451  19.9614229   9.7334938  88.5002260  20.3244210  10.5698399
  88.1789583  19.2481237   9.5548270  79.9416410  18.1032523  13.0513462
  80.8619419  18.2811122  13.2453509  79.9065993  17.1588568  12.8993161
  77.6737618  15.0163902  13.9004054  77.1904699  15.8164262  14.1067943
  77.7598557  15.0271847  12.9471498  81.9698644  18.8788534  14.7027623
  82.8389803  19.0529186  14.3414258  81.4905395  19.6982951  14.5803352
  93.6291119  30.5877160   4.1072898  94.2669529  30.4683907   3.4036238
  93.5111962  31.5358004   4.1660850  90.4380826  30.5404588   4.0434422
  90.0999337  30.4245653   3.1554957  91.3070594  30.1395753   4.0235428
  90.9200609  31.6939440  10.0020628  90.9089249  31.2992238   9.1301132
  91.0821248  30.9605512  10.5954399  83.8432073  33.8891256   2.8715534
  84.6353365  33.5482081   2.4561833  84.0828723  33.9986231   3.7917687
  91.8767200  36.0611032  -4.6554222  91.2255180  36.6465113  -5.0420208
  92.6711563  36.5917227  -4.5959184  87.6407870  34.4776552   8.9499812
  87.3497736  35.3822182   8.8346478  88.2764854  34.5193079   9.6643881
  88.5664077  31.8553400   5.5401171  89.1627649  31.6309423   4.8258134
  88.6239048  31.1138146   6.1426619  90.2016935  30.6731089  -0.7177573
  89.8375142  30.1461710  -0.0064652  91.0584051  30.2829558  -0.8911088
  96.1066235  21.9625421   6.5453693  95.7749560  22.8320832   6.3214908
  95.5111849  21.6461705   7.2247723  92.5997755  34.1637967   5.9449606
  92.2998478  35.0663006   5.8365413  92.2548814  33.8970150   6.7970758
  86.0510236  30.6151764   1.9786310  85.1260733  30.4827978   2.1864002
  86.2994650  31.3945983   2.4756252  95.9994899  26.6820507   3.6247043
  95.0911776  26.6135916   3.3305804  95.9482494  27.1592452   4.4528868
  83.4119047  30.2585038   2.8130099  83.5411429  30.5119516   3.7269511
  82.7316499  30.8512746   2.4934754  87.5818535  40.9282288  -1.0879427
  87.5042564  41.8790113  -1.0090946  86.9780178  40.5828160  -0.4304500
  90.0735764  28.1010153  11.5681940  89.2969098  28.6604073  11.5584805
  90.7126327  28.5866936  12.0896810  88.3282137  30.9095606  11.1299907
  89.0696821  31.4480650  10.8534731  87.6219122  31.5361895  11.2871459
  93.8037476  33.0524747   9.7272069  94.2120832  32.6107157   8.9826701
  93.0814738  32.4777374   9.9806262  90.1568546  27.9897354   7.1005626
  91.0029742  28.4136767   7.2440275  90.0967184  27.3330978   7.7944189
  94.1266291  33.6125937   3.4824358  93.4975153  33.7771652   2.7800425
  93.7391953  34.0267547   4.2535322  98.0055523  34.5480375   0.8368721
  97.3206561  34.9279277   0.2865755  98.0899372  35.1575702   1.5700669
  93.3067992  25.6501722   8.7586799  93.0628924  26.4043782   8.2221075
  93.5827922  26.0287069   9.5934046  95.2606455  32.1940334   7.4364065
  95.4723350  32.8372094   6.7598446  95.2136203  31.3602651   6.9685995
  92.8632683  24.8058155   4.3400637  92.0017163  25.1039408   4.6317375
  92.8895118  25.0228554   3.4081670  89.6794253  33.3500345   0.7474443
  90.1432598  33.6288048  -0.0420935  89.4151051  32.4483790   0.5647533
  86.5718334  32.8971827   3.6854206  87.1419691  33.3259095   3.0471690
  87.1626446  32.6154412   4.3838392  87.0643500  28.0635254  11.9315217
  86.4342161  28.7451535  12.1650614  86.9579588  27.9518336  10.9868355
  96.3752282  35.0712290   5.6086422  97.1969726  34.6692477   5.3269104
  96.3714685  34.9680524   6.5602538  90.1408886  34.6196333   7.7647133
  90.2053318  35.0816740   8.6005304  89.4319810  33.9893698   7.8929442
  80.6426176  27.9837541   5.2896132  80.8934214  28.8684551   5.5553708
  81.1785724  27.8042142   4.5171224  89.8556904  36.2864440  -2.3673887
  89.7202578  37.1315976  -1.9389039  90.3966716  36.4883718  -3.1307953
  86.3424243  22.3656020  14.2940468  85.9491189  21.8122219  14.9688112
  87.1590384  22.6766599  14.6846986  85.1181186  36.9205635   0.2876791
  85.2947814  37.8423599   0.0997775  85.9138019  36.6064054   0.7171171
  89.2592204  23.7813899  11.8860725  90.0001918  24.3821053  11.8065187
  89.4910127  23.0391537  11.3278767  84.4033542  28.9670267  10.1638954
  84.2887057  28.0655524  10.4646053  83.5478060  29.2133963   9.8123771
  91.4825380  36.9088007  11.7626455  91.0389234  36.1224386  11.4447360
  92.1442594  37.0967157  11.0970346  86.2412501  38.4383809   6.2887134
  86.7919926  38.3100872   5.5164127  85.4023977  38.7378698   5.9382026
  93.5806618  37.1890807   9.7907856  93.5625093  38.0099688   9.2988125
  94.5026538  37.0644882  10.0157997  90.0379672  34.7034936  10.6331365
  90.5708009  33.9423225  10.4030673  89.5093753  34.4108588  11.3755519
  92.2845908  22.1799657   4.1274240  91.7810703  22.1429793   3.3142045
  92.5776514  23.0892400   4.1870896  91.4032385  33.8320929  -1.8549823
  90.8753746  33.0973688  -2.1676586  90.9019888  34.6095605  -2.1009855
  96.3825231  32.0269949   3.2617223  95.7248905  32.7169211   3.3497352
  97.1865630  32.4166381   3.6051209  92.4553064  40.3598646  -5.9318164
  91.7814763  40.6630343  -5.3233206  92.8418886  41.1627727  -6.2812707
  91.6711521  27.8563778   3.5579505  90.7534082  28.0778725   3.4001193
  92.0871664  27.9310088   2.6991213  95.9592486  35.3620323  -0.5599693
  95.5054813  34.5211233  -0.5034502  95.3286453  35.9981722  -0.2224912
  94.4025425  37.1996820   0.3750126  94.6948400  37.7601877  -0.3437509
  94.9124046  37.4925381   1.1303285  89.2758113  29.3642355   1.7718935
  89.3306722  28.4116191   1.6961412  88.4649315  29.5201794   2.2560234
  89.3659050  37.9777171   1.4643579  89.3235229  38.2038018   0.5352111
  90.2821749  37.7440546   1.6129380  92.8124684  28.4461239   8.3624208
  93.1674072  28.6732712   9.2218674  93.4596815  28.7779616   7.7401463
  86.7064547  25.5537770   5.1470549  87.3463927  25.4126529   4.4493512
  85.8742078  25.2672283   4.7709151  98.5691801  33.6356202   4.0784808
  99.0028307  33.5431491   4.9267863  99.2823381  33.6113702   3.4404824
  87.4824851  34.8540200   1.2605541  88.2765450  34.3590520   1.0588116
  86.7716543  34.3258063   0.8973247  92.3019696  37.2358296   5.6117909
  92.3556718  37.8049232   6.3795625  91.4334477  37.4060181   5.2471946
  85.1818089  26.9375852   7.0942360  85.8541142  26.7293214   6.4455009
  84.3547875  26.7397938   6.6547593  99.4307350  33.6779902   6.6117694
  99.6243240  34.5825713   6.8576969  99.3307968  33.2187321   7.4456279
  91.0843661  23.5637793   9.1108021  90.4371576  24.2627743   9.0172498
  91.8544676  23.9973937   9.4784269  94.4922459  33.8286645  12.1858574
  94.3407965  33.5997197  11.2688658  94.4827138  34.7857247  12.1989919
  91.2607795  31.4018558   7.1704841  92.1899855  31.5529717   6.9973808
  90.8398825  31.4902579   6.3153487  90.0596127  35.4269222   4.9403379
  89.9207213  35.0588007   5.8129317  89.2710723  35.9416862   4.7687336
  90.6544279  40.5278319  -3.7171085  90.8296035  40.0566362  -2.9025462
  89.9677067  41.1544085  -3.4889824  91.6101342  34.8050825   2.3292216
  91.2751175  34.7651595   3.2249866  91.1105288  34.1395541   1.8562627
  85.5845586  30.2118455   7.8544797  85.4465384  29.4798694   8.4556337
  86.4950510  30.1227355   7.5728985  88.2127887  29.9238414   7.3428477
  88.9227505  29.2831607   7.3015096  88.1697195  30.1751309   8.2654658
  96.2014666  36.8605768  10.2635056  96.1427212  36.1764988   9.5965639
  96.6034184  37.6024758   9.8115682  86.9256821  26.9103632   9.1624117
  86.3894178  26.4594371   9.8145713  86.3373529  27.0449541   8.4194581
  85.2205364  43.6767682   3.0568775  85.4601963  44.3086206   3.7347794
  84.3774561  43.3255722   3.3434135  96.2032073  34.8245352   8.4949036
  95.3158852  34.4871273   8.6175435  96.7730624  34.0928383   8.7317801
  82.6595942  26.0459640   6.2477111  82.5754131  25.4385309   5.5127521
  81.8378648  26.5368658   6.2486607  89.7333226  39.4846804   5.4610279
  89.6603398  40.2901775   5.9729584  89.2910619  39.6838770   4.6358301
  89.5223006  38.7218574  -1.0286899  88.7390528  39.2640254  -0.9348675
  90.2215751  39.2392554  -0.6292658  92.1931910  39.3833638   7.6168438
  92.9059882  40.0181103   7.5444339  91.7021938  39.4797504   6.8008440
  93.9149437  33.2884891  -0.8114270  92.9805715  33.4086353  -0.9809566
  94.0926105  32.3857357  -1.0754261  87.2443823  37.1328081   8.4374009
  87.9453283  37.7664564   8.5903403  86.7738938  37.4742813   7.6769648
  95.0445109  29.6872689   6.2626559  94.3916559  29.9348596   5.6079012
  95.4225489  28.8736827   5.9289036  92.0052283  39.7232382   0.3654729
  92.1874678  38.9054038   0.8282482  92.8285269  39.9400074  -0.0720381
  92.3394449  38.6500567  -2.3730222  92.8682215  38.1393022  -2.9860060
  92.6022668  38.3343097  -1.5084689  91.0932682  30.4292500  12.7492596
  90.4173319  30.3286629  13.4194971  91.9160316  30.2731714  13.2128593
  82.8411541  36.6664436   5.3705111  83.4264978  35.9208124   5.5033016
  82.6436380  36.9768393   6.2541775  85.6950197  39.7015684   0.3867554
  85.0260572  40.1861812  -0.0968406  85.5563066  39.9484904   1.3010932
  89.8355465  41.7359427   6.9850212  90.3873773  41.8991049   7.7499297
  90.1761659  42.3263865   6.3130237  84.8119958  24.0834577   7.5872097
  84.8761285  24.9449408   7.1749495  84.7487079  23.4708579   6.8544455
  84.2872231  26.1557710  11.2345131  84.9144270  25.7734787  11.8482655
  83.4300150  25.9371912  11.6000824  94.6866339  36.5620685  12.8398867
  95.2306243  37.1750643  12.3453821  94.1053184  37.1200263  13.3565880
  92.9723852  39.6841403   3.9713894  92.8474992  38.8831143   3.4624840
  93.6302944  40.1787596   3.4827864  95.0358761  37.4850423   5.5993444
  94.0889096  37.3655774   5.5271771  95.3841534  36.5972921   5.6819706
  87.3958334  23.3744562   9.4231686  87.9192736  23.6206858  10.1857996
  87.1770667  24.2064597   9.0034824  92.0405194  37.2803139   1.7997797
  91.8930157  36.3519847   1.9805367  92.8658688  37.3023230   1.3154872
  95.6439316  38.1031698   2.8862669  96.5685863  37.8974559   2.7487121
  95.4754619  37.8548099   3.7952011  88.6010879  24.3158257   7.1081357
  88.2607700  23.5166070   7.5102037  87.8949885  24.6159968   6.5358190
  89.2527351  21.4007569   5.5608680  90.0753420  20.9268048   5.4387570
  89.4965415  22.1798053   6.0607366  86.7765930  28.0926690   3.3700658
  86.6310511  28.4066993   4.2624940  86.2991133  28.7111590   2.8171557
  88.6362313  25.0829238   3.4181548  88.6223881  24.1870331   3.0813846
  89.3534741  25.0899902   4.0519834  90.4888443  25.5166578   5.4634675
  90.2306221  26.4383649   5.4619006  89.9573484  25.1197013   6.1535140
  95.4334632  38.6217365  -1.7575239  95.6071510  38.0563788  -2.5101387
  95.9263523  39.4218260  -1.9395749  81.2511592  30.6332034   6.3088320
  80.7065060  31.4091842   6.4408594  82.1290942  30.9802839   6.1507441
  82.0377614  29.7601931   9.2018476  81.2959350  29.9084566   9.7883107
  81.7170358  30.0210196   8.3385226  89.9821276  39.3017909   8.9998866
  90.2908403  39.0567056   9.8721566  90.7796758  39.5064547   8.5117737
  90.0041889  41.4555819   1.2304243  89.5646879  40.9632197   1.9237100
  90.7550005  40.9128786   0.9896318  82.4834227  37.6467359   1.2328871
  83.3092247  37.3471131   0.8527515  82.1328279  36.8774982   1.6818660
  87.4515761  36.9993828   3.3026545  86.8295770  36.3364533   3.0028773
  88.1220628  37.0254960   2.6200192  80.6842833  35.5653686   2.1917805
  79.8474741  35.1375860   2.0101806  80.6566478  35.7586129   3.1288596
  87.5240288  25.4775616  12.8959051  87.5728444  26.3537739  12.5136820
  88.0662802  24.9353009  12.3230694  98.0095134  36.0216739  12.1760188
  97.2190678  36.0040878  11.6364687  97.7728488  36.5605033  12.9309224
  98.1293009  32.8709205   9.4892916  98.1791014  32.7059213  10.4308439
  98.0206932  32.0036464   9.0990797  95.4196771  28.8540133  10.8052223
  96.3206634  28.7146598  10.5136221  95.4944746  29.0194588  11.7450401
  89.7539577  26.2306988   9.6505409  88.8842886  26.5240554   9.3787998
  89.9899057  26.8147433  10.3712673  99.6311206  35.2906147   9.7334938
  99.3396014  35.6536127  10.5698399  99.0183337  34.5773155   9.5548270
  97.8798394  30.4138761   8.2014996  98.3552516  30.6066408   7.3933847
  96.9563959  30.4697947   7.9558380  92.4578610  22.4486605   7.1670830
  92.9760554  23.1847632   6.8417318  92.1033743  22.7550598   8.0017589
  96.5800063  27.2904522   6.4343301  97.5317486  27.3902619   6.4555526
  96.4103513  26.4982790   6.9441386  94.6014442  24.3760105   6.6202702
  94.0064375  24.6565118   5.9249191  94.3164139  24.8654006   7.3919444
  99.0588141  30.5110641   5.5485601  99.0264461  29.5726642   5.7345285
  99.6688764  30.5894678   4.8151426  90.7810164  33.4324440  13.0513462
  91.7013174  33.6103039  13.2453509  90.7459747  32.4880486  12.8993161
  83.7772237  31.3425475   5.6936243  83.9958246  32.2742583   5.7124277
  84.1898011  30.9833449   6.4791047  88.6500102  26.9158681  15.0838992
  88.5496829  27.8653038  15.0151083  88.4321644  26.5876920  14.2115062
  79.8680589  32.2465946   3.9459858  79.1744061  31.8319898   3.4329813
  80.6153580  32.2886482   3.3493277  88.5131372  30.3455820  13.9004054
  88.0298454  31.1456180  14.1067943  88.5992311  30.3563765  12.9471498
  84.4404710  34.2360354   5.9372488  85.3947963  34.2044297   5.8702419
  84.2417233  33.7750978   6.7522714  85.0304092  32.8061470   8.5043285
  85.8496981  33.3005549   8.5278123  85.3040899  31.8893439   8.4760853
  82.7954938  39.7779974   2.9542686  82.6609406  39.0180375   2.3880684
  82.3787001  40.5020874   2.4871474  85.9524064  40.6749291   3.1661128
  85.8356448  41.6194723   3.0639818  85.1316510  40.3722852   3.5546927
  80.2839006  27.1399604   9.2035482  80.9297870  26.6298558   9.6922708
  80.0756157  27.8768286   9.7778908  92.8092398  34.2080452  14.7027623
  93.6783558  34.3821104  14.3414258  92.3299150  35.0274869  14.5803352
  86.9778578  41.3277553   6.3817057  87.8805825  41.3601163   6.6983552
  86.7515948  40.3978004   6.3963392  88.7332180  40.0808539   3.0427135
  87.7827811  40.0810401   2.9291508  89.0364666  39.3341274   2.5263170
  84.6236497  24.2867221  13.3010497  85.4867958  23.9304026  13.5113821
  84.0501908  23.9481116  13.9885901 104.4684874  45.9169078   4.1072898
 105.1063284  45.7975825   3.4036238 104.3505717  46.8649922   4.1660850
 101.2774580  45.8696506   4.0434422 100.9393092  45.7537570   3.1554957
 102.1464348  45.4687671   4.0235428  97.1361396  47.7231982   0.0331313
  96.5726261  47.6321919  -0.7352399  97.0213791  46.9031887   0.5133806
 101.7594363  47.0231358  10.0020628 101.7483004  46.6284156   9.1301132
 101.9215003  46.2897430  10.5954399  94.6825828  49.2183174   2.8715534
  95.4747120  48.8773998   2.4561833  94.9222478  49.3278149   3.7917687
 102.7160955  51.3902950  -4.6554222 102.0648934  51.9757030  -5.0420208
 103.5105317  51.9209145  -4.5959184  96.6416582  48.4792087  -4.2567087
  97.4147458  47.9321074  -4.3954212  96.9941981  49.3436336  -4.0452626
  98.4801624  49.8068469   8.9499812  98.1891490  50.7114100   8.8346478
  99.1158609  49.8484997   9.6643881  99.4057831  47.1845318   5.5401171
 100.0021403  46.9601340   4.8258134  99.4632803  46.4430063   6.1426619
  98.6979148  46.5412859  -4.4224263  98.5815406  45.8657763  -3.7543178
  98.8081408  46.0545233  -5.2392110 101.0410689  46.0023006  -0.7177573
 100.6768896  45.4753627  -0.0064652 101.8977805  45.6121475  -0.8911088
 106.9459990  37.2917339   6.5453693 106.6143315  38.1612750   6.3214908
 106.3505603  36.9753623   7.2247723 103.4391509  49.4929885   5.9449606
 103.1392232  50.3954924   5.8365413 103.0942569  49.2262068   6.7970758
  96.8903991  45.9443682   1.9786310  95.9654487  45.8119896   2.1864002
  97.1388404  46.7237901   2.4756252 106.8388653  42.0112425   3.6247043
 105.9305530  41.9427833   3.3305804 106.7876249  42.4884370   4.4528868
  94.2512802  45.5876955   2.8130099  94.3805183  45.8411434   3.7269511
  93.5710253  46.1804663   2.4934754  98.4212289  56.2574205  -1.0879427
  98.3436319  57.2082030  -1.0090946  97.8173933  55.9120078  -0.4304500
 100.9129519  43.4302071  11.5681940 100.1362853  43.9895991  11.5584805
 101.5520082  43.9158854  12.0896810  99.1675891  46.2387524  11.1299907
  99.9090576  46.7772568  10.8534731  98.4612877  46.8653813  11.2871459
 104.6431231  48.3816664   9.7272069 105.0514587  47.9399075   8.9826701
 103.9208492  47.8069292   9.9806262 100.9962301  43.3189271   7.1005626
 101.8423496  43.7428685   7.2440275 100.9360939  42.6622896   7.7944189
 104.9660046  48.9417855   3.4824358 104.3368908  49.1063569   2.7800425
 104.5785708  49.3559465   4.2535322 108.8449277  49.8772293   0.8368721
 108.1600316  50.2571194   0.2865755 108.9293127  50.4867620   1.5700669
 104.1461746  40.9793640   8.7586799 103.9022678  41.7335700   8.2221075
 104.4221677  41.3578987   9.5934046 106.1000209  47.5232252   7.4364065
 106.3117104  48.1664012   6.7598446 106.0529957  46.6894568   6.9685995
 103.7026438  40.1350073   4.3400637 102.8410917  40.4331326   4.6317375
 103.7288873  40.3520471   3.4081670 100.5188007  48.6792263   0.7474443
 100.9826353  48.9579966  -0.0420935 100.2544805  47.7775708   0.5647533
  97.4112088  48.2263745   3.6854206  97.9813446  48.6551013   3.0471690
  98.0020200  47.9446329   4.3838392  99.4556893  44.8015416  -2.4435992
 100.1580937  45.2536459  -1.9762066  99.1237522  44.1599234  -1.8156099
  97.9037255  43.3927172  11.9315217  97.2735916  44.0743453  12.1650614
  97.7973343  43.2810254  10.9868355  93.1982227  43.0598968   2.8581141
  92.4081281  43.3156497   2.3821252  93.6893475  43.8747306   2.9633182
 107.2146037  50.4004207   5.6086422 108.0363481  49.9984395   5.3269104
 107.2108440  50.2972442   6.5602538  95.1496973  43.4243547  -0.1835382
  94.3528136  43.5362242   0.3348114  94.9222565  43.7630200  -1.0494491
 100.9802640  49.9488251   7.7647133 101.0447073  50.4108658   8.6005304
 100.2713564  49.3185616   7.8929442  91.4819930  43.3129459   5.2896132
  91.7327969  44.1976469   5.5553708  92.0179479  43.1334060   4.5171224
 100.6950658  51.6156358  -2.3673887 100.5596333  52.4607894  -1.9389039
 101.2360471  51.8175636  -3.1307953  97.1817998  37.6947938  14.2940468
  96.7884943  37.1414137  14.9688112  97.9984138  38.0058516  14.6846986
  94.1480055  49.1331796  -1.7945962  94.6604576  49.9275046  -1.6440397
  94.8002768  48.4358087  -1.8612360  95.9574940  52.2497552   0.2876791
  96.1341568  53.1715517   0.0997775  96.7531774  51.9355972   0.7171171
 100.0985959  39.1105817  11.8860725 100.8395672  39.7112970  11.8065187
 100.3303882  38.3683455  11.3278767  95.2427297  44.2962184  10.1638954
  95.1280812  43.3947442  10.4646053  94.3871814  44.5425881   9.8123771
 102.3219134  52.2379925  11.7626455 101.8782989  51.4516303  11.4447360
 102.9836348  52.4259075  11.0970346  97.0806256  53.7675726   6.2887134
  97.6313681  53.6392790   5.5164127  96.2417732  54.0670615   5.9382026
 104.4200372  52.5182725   9.7907856 104.4018848  53.3391606   9.2988125
 105.3420293  52.3936800  10.0157997 100.8773427  50.0326854  10.6331365
 101.4101763  49.2715142  10.4030673 100.3487508  49.7400506  11.3755519
  92.1128972  47.4620450  -1.0186391  92.9504194  47.8717459  -1.2352684
  92.2907240  46.5219893  -1.0486198 103.1239662  37.5091575   4.1274240
 102.6204458  37.4721710   3.3142045 103.4170269  38.4184318   4.1870896
  99.3682548  37.5930305   3.1340421 100.2335545  37.3973114   2.7746311
  99.4360057  37.3640657   4.0609778 102.2426139  49.1612847  -1.8549823
 101.7147501  48.4265606  -2.1676586 101.7413642  49.9387523  -2.1009855
 107.2218985  47.3561867   3.2617223 106.5642660  48.0461128   3.3497352
 108.0259385  47.7458299   3.6051209  96.9744867  39.8232513   0.5056788
  97.5488619  39.6007694  -0.2270019  97.5615849  39.8921207   1.2585390
 103.2946818  55.6890564  -5.9318164 102.6208517  55.9922261  -5.3233206
 103.6812640  56.4919644  -6.2812707 102.5105275  43.1855695   3.5579505
 101.5927836  43.4070642   3.4001193 102.9265419  43.2602006   2.6991213
 106.7986240  50.6912241  -0.5599693 106.3448567  49.8503151  -0.5034502
 106.1680207  51.3273640  -0.2224912 105.2419180  52.5288738   0.3750126
 105.5342154  53.0893795  -0.3437509 105.7517800  52.8217299   1.1303285
  92.1355143  44.8011166  -0.3475658  91.9379543  44.2080526  -1.0724591
  91.5801807  44.4963376   0.3700281 100.1151867  44.6934272   1.7718935
 100.1700477  43.7408109   1.6961412  99.3043069  44.8493711   2.2560234
  98.0544227  43.3111332  -0.4690686  97.2412092  43.6105503  -0.0625494
  98.5503221  42.9167021   0.2483796 100.2052805  53.3069089   1.4643579
 100.1628984  53.5329935   0.5352111 101.1215504  53.0732464   1.6129380
 103.6518439  43.7753156   8.3624208 104.0067826  44.0024630   9.2218674
 104.2990570  44.1071533   7.7401463  97.5458302  40.8829688   5.1470549
  98.1857681  40.7418447   4.4493512  96.7135832  40.5964201   4.7709151
 109.4085555  48.9648119   4.0784808 109.8422062  48.8723408   4.9267863
 110.1217136  48.9405620   3.4404824  98.3218606  50.1832118   1.2605541
  99.1159204  49.6882438   1.0588116  97.6110298  49.6549981   0.8973247
 103.1413450  52.5650213   5.6117909 103.1950472  53.1341150   6.3795625
 102.2728231  52.7352099   5.2471946  94.6301369  44.3275200  -2.6634706
  93.6998957  44.2659655  -2.4464744  94.7258841  43.8051152  -3.4598065
  94.5486918  40.8530013  -0.0756464  94.8093735  41.7675346  -0.1847304
  95.3704090  40.3854455   0.0740149  96.0211843  42.2667770   7.0942360
  96.6934897  42.0585132   6.4455009  95.1941630  42.0689856   6.6547593
 110.2701105  49.0071820   6.6117694 110.4636995  49.9117631   6.8576969
 110.1701723  48.5479239   7.4456279 101.9237415  38.8929711   9.1108021
 101.2765331  39.5919660   9.0172498 102.6938431  39.3265855   9.4784269
 105.3316213  49.1578563  12.1858574 105.1801720  48.9289114  11.2688658
 105.3220893  50.1149164  12.1989919 102.1001550  46.7310476   7.1704841
 103.0293610  46.8821635   6.9973808 101.6792580  46.8194496   6.3153487
 100.8989882  50.7561140   4.9403379 100.7600967  50.3879924   5.8129317
 100.1104478  51.2708779   4.7687336 101.4938034  55.8570236  -3.7171085
 101.6689789  55.3858280  -2.9025462 100.8070822  56.4836003  -3.4889824
 102.4495097  50.1342743   2.3292216 102.1144929  50.0943513   3.2249866
 101.9499042  49.4687459   1.8562627  96.4239341  45.5410373   7.8544797
  96.2859139  44.8090612   8.4556337  97.3344264  45.4519273   7.5728985
  99.0521641  45.2530332   7.3428477  99.7621260  44.6123524   7.3015096
  99.0090950  45.5043227   8.2654658 107.0408420  52.1897685  10.2635056
 106.9820966  51.5056905   9.5965639 107.4427938  52.9316675   9.8115682
  97.7650575  42.2395550   9.1624117  97.2287932  41.7886288   9.8145713
  97.1767284  42.3741459   8.4194581  96.0599119  59.0059599   3.0568775
  96.2995717  59.6378123   3.7347794  95.2168315  58.6547639   3.3434135
 107.0425827  50.1537269   8.4949036 106.1552606  49.8163191   8.6175435
 107.6124378  49.4220301   8.7317801  88.6954974  46.4861361   1.8192087
  89.3826014  46.1723091   1.2313103  88.5403103  47.3902726   1.5459339
  93.4989697  41.3751558   6.2477111  93.4147885  40.7677227   5.5127521
  92.6772403  41.8660576   6.2486607 100.5726981  54.8138722   5.4610279
 100.4997152  55.6193693   5.9729584 100.1304374  55.0130687   4.6358301
 100.3616760  54.0510492  -1.0286899  99.5784282  54.5932172  -0.9348675
 101.0609506  54.5684471  -0.6292658 103.0325664  54.7125556   7.6168438
 103.7453636  55.3473020   7.5444339 102.5415693  54.8089422   6.8008440
 104.7543191  48.6176808  -0.8114270 103.8199470  48.7378271  -0.9809566
 104.9319860  47.7149275  -1.0754261 100.2548379  42.0022504   1.3418991
  99.8846167  41.4493544   2.0299896 100.7507472  41.3980638   0.7893991
  98.0837578  52.4619999   8.4374009  98.7847037  53.0956482   8.5903403
  97.6132693  52.8034731   7.6769648 105.8838864  45.0164607   6.2626559
 105.2310314  45.2640514   5.6079012 106.2619244  44.2028745   5.9289036
 102.8446038  55.0524300   0.3654729 103.0268432  54.2345956   0.8282482
 103.6679024  55.2691992  -0.0720381 103.1788203  53.9792485  -2.3730222
 103.7075970  53.4684939  -2.9860060 103.4416423  53.6635015  -1.5084689
 101.9326437  45.7584418  12.7492596 101.2567074  45.6578547  13.4194971
 102.7554071  45.6023631  13.2128593  93.6805296  51.9956354   5.3705111
  94.2658733  51.2500042   5.5033016  93.4830134  52.3060311   6.2541775
  96.5343951  55.0307602   0.3867554  95.8654326  55.5153729  -0.0968406
  96.3956821  55.2776822   1.3010932  88.2722951  44.5661954   4.0909555
  88.3107050  44.0325545   4.8846673  87.7663243  44.0397160   3.4720532
 100.6749220  57.0651345   6.9850212 101.2267528  57.2282967   7.7499297
 101.0155413  57.6555783   6.3130237  95.6513713  39.4126495   7.5872097
  95.7155039  40.2741326   7.1749495  95.5880833  38.8000497   6.8544455
  95.1265985  41.4849627  11.2345131  95.7538024  41.1026705  11.8482655
  94.2693904  41.2663829  11.6000824 105.5260094  51.8912603  12.8398867
 106.0699998  52.5042561  12.3453821 104.9446939  52.4492181  13.3565880
  91.9031528  43.2926057  -2.8336514  92.1984969  42.3836735  -2.8869460
  91.0019564  43.2713796  -3.1555512 103.8117607  55.0133321   3.9713894
 103.6868746  54.2123060   3.4624840 104.4696698  55.5079514   3.4827864
  95.4325775  41.3682053   3.1491035  94.7112361  41.9818021   3.0098508
  96.2219031  41.9039818   3.0707680 105.8752515  52.8142341   5.5993444
 104.9282851  52.6947692   5.5271771 106.2235288  51.9264839   5.6819706
  98.2352089  38.7036480   9.4231686  98.7586490  38.9498776  10.1857996
  98.0164422  39.5356514   9.0034824  93.6319370  40.9740154  -2.7097189
  93.3032076  40.0937533  -2.8922083  93.9858740  40.9187823  -1.8220800
 102.8798949  52.6095057   1.7997797 102.7323911  51.6811764   1.9805367
 103.7052442  52.6315148   1.3154872  96.7461193  41.2613124  -2.3421711
  97.0857265  41.7899045  -3.0643103  97.1933313  41.5993530  -1.5663145
 106.4833070  53.4323616   2.8862669 107.4079618  53.2266477   2.7487121
 106.3148374  53.1840017   3.7952011  99.4404634  39.6450175   7.1081357
  99.1001454  38.8457988   7.5102037  98.7343640  39.9451886   6.5358190
 100.0921106  36.7299487   5.5608680 100.9147175  36.2559965   5.4387570
 100.3359169  37.5089971   6.0607366  97.6159684  43.4218608   3.3700658
  97.4704265  43.7358911   4.2624940  97.1384888  44.0403508   2.8171557
  99.4756067  40.4121156   3.4181548  99.4617636  39.5162249   3.0813846
 100.1928495  40.4191820   4.0519834 101.3282198  40.8458496   5.4634675
 101.0699976  41.7675567   5.4619006 100.7967238  40.4488931   6.1535140
 106.2728387  53.9509283  -1.7575239 106.4465264  53.3855706  -2.5101387
 106.7657278  54.7510178  -1.9395749  92.0905346  45.9623952   6.3088320
  91.5458815  46.7383760   6.4408594  92.9684696  46.3094757   6.1507441
  92.8771368  45.0893848   9.2018476  92.1353104  45.2376484   9.7883107
  92.5564113  45.3502114   8.3385226 100.8215031  54.6309827   8.9998866
 101.1302157  54.3858973   9.8721566 101.6190513  54.8356465   8.5117737
 100.8435643  56.7847736   1.2304243 100.4040633  56.2924115   1.9237100
 101.5943760  56.2420704   0.9896318  93.3227982  52.9759277   1.2328871
  94.1486002  52.6763049   0.8527515  92.9722034  52.2066900   1.6818660
  98.2909515  52.3285745   3.3026545  97.6689524  51.6656450   3.0028773
  98.9614382  52.3546877   2.6200192  91.5236587  50.8945604   2.1917805
  90.6868495  50.4667778   2.0101806  91.4960232  51.0878047   3.1288596
  98.3634043  40.8067533  12.8959051  98.4122198  41.6829656  12.5136820
  98.9056557  40.2644926  12.3230694 108.8488888  51.3508657  12.1760188
 108.0584432  51.3332796  11.6364687 108.6122243  51.8896950  12.9309224
 108.9686763  48.2001123   9.4892916 109.0184768  48.0351130  10.4308439
 108.8600687  47.3328382   9.0990797  97.8523022  50.8789669  -3.2214995
  98.0011142  51.5625133  -3.8748322  98.6589466  50.8594759  -2.7065539
 106.2590526  44.1832051  10.8052223 107.1600389  44.0438516  10.5136221
 106.3338500  44.3486506  11.7450401 100.5933331  41.5598906   9.6505409
  99.7236640  41.8532472   9.3787998 100.8292811  42.1439351  10.3712673
 110.4704960  50.6198065   9.7334938 110.1789769  50.9828045  10.5698399
 109.8577091  49.9065073   9.5548270 108.7192148  45.7430679   8.2014996
 109.1946270  45.9358325   7.3933847 107.7957714  45.7989865   7.9558380
  95.6075655  46.9054846  -2.2153926  95.3621697  46.0017176  -2.0173716
  95.7771570  46.9071997  -3.1574448 103.2972365  37.7778523   7.1670830
 103.8154309  38.5139550   6.8417318 102.9427498  38.0842516   8.0017589
  94.8771303  42.6383204  -4.7167764  94.1840548  42.7127559  -5.3727728
  94.6323054  41.8743548  -4.1946247 101.3518428  53.3737799  -5.7503247
 100.7792395  53.9927986  -6.2032775 101.9251221  53.9237161  -5.2163325
 107.4193817  42.6196439   6.4343301 108.3711240  42.7194537   6.4555526
 107.2497268  41.8274708   6.9441386 105.4408197  39.7052022   6.6202702
 104.8458129  39.9857035   5.9249191 105.1557894  40.1945923   7.3919444
 109.8981895  45.8402559   5.5485601 109.8658215  44.9018560   5.7345285
 110.5082519  45.9186596   4.8151426 101.6203919  48.7616358  13.0513462
 102.5406928  48.9394957  13.2453509 101.5853502  47.8172403  12.8993161
  90.8386084  43.9554952   1.9766737  90.5188868  43.1020260   1.6841111
  90.2919512  44.1703530   2.7324704  94.6165991  46.6717393   5.6936243
  94.8352001  47.6034501   5.7124277  95.0291765  46.3125367   6.4791047
  99.4893856  42.2450598  15.0838992  99.3890583  43.1944955  15.0151083
  99.2715399  41.9168837  14.2115062  90.7074344  47.5757863   3.9459858
  90.0137815  47.1611816   3.4329813  91.4547335  47.6178400   3.3493277
  99.3525127  45.6747737  13.9004054  98.8692208  46.4748097  14.1067943
  99.4386066  45.6855682  12.9471498  92.6211086  47.5076117   1.8225873
  92.5981774  47.6063804   0.8707756  92.9311723  48.3541268   2.1443039
  95.2798464  49.5652272   5.9372488  96.2341718  49.5336214   5.8702419
  95.0810988  49.1042896   6.7522714  95.8697846  48.1353388   8.5043285
  96.6890735  48.6297467   8.5278123  96.1434654  47.2185356   8.4760853
  93.6348693  55.1071892   2.9542686  93.5003161  54.3472292   2.3880684
  93.2180755  55.8312791   2.4871474  96.7917819  56.0041209   3.1661128
  96.6750203  56.9486641   3.0639818  95.9710265  55.7014770   3.5546927
  91.1232760  42.4691522   9.2035482  91.7691624  41.9590476   9.6922708
  90.9149912  43.2060204   9.7778908 103.6486153  49.5372369  14.7027623
 104.5177312  49.7113022  14.3414258 103.1692904  50.3566786  14.5803352
  97.8172333  56.6569470   6.3817057  98.7199580  56.6893081   6.6983552
  97.5909703  55.7269921   6.3963392  99.5725935  55.4100457   3.0427135
  98.6221566  55.4102319   2.9291508  99.8758421  54.6633192   2.5263170
  95.4630251  39.6159139  13.3010497  96.3261713  39.2595944  13.5113821
  94.8895662  39.2773034  13.9885901 115.3078628  61.2460995   4.1072898
 115.9457038  61.1267743   3.4036238 115.1899471  62.1941839   4.1660850
 112.1168335  61.1988423   4.0434422 111.7786846  61.0829488   3.1554957
 112.9858103  60.7979589   4.0235428 107.9755150  63.0523900   0.0331313
 107.4120015  62.9613837  -0.7352399 107.8607545  62.2323804   0.5133806
 112.5988118  62.3523275  10.0020628 112.5876758  61.9576073   9.1301132
 112.7608757  61.6189348  10.5954399 105.5219582  64.5475091   2.8715534
 106.3140874  64.2065916   2.4561833 105.7616232  64.6570067   3.7917687
 109.3195379  65.1360387   8.9499812 109.0285245  66.0406018   8.8346478
 109.9552363  65.1776915   9.6643881 110.2451586  62.5137236   5.5401171
 110.8415158  62.2893258   4.8258134 110.3026557  61.7721981   6.1426619
 111.8804444  61.3314924  -0.7177573 111.5162651  60.8045545  -0.0064652
 112.7371560  60.9413393  -0.8911088 117.7853744  52.6209257   6.5453693
 117.4537069  53.4904667   6.3214908 117.1899358  52.3045541   7.2247723
 114.2785264  64.8221803   5.9449606 113.9785987  65.7246841   5.8365413
 113.9336323  64.5553986   6.7970758 107.7297745  61.2735599   1.9786310
 106.8048242  61.1411813   2.1864002 107.9782159  62.0529819   2.4756252
 117.6782408  57.3404343   3.6247043 116.7699285  57.2719751   3.3305804
 117.6270003  57.8176288   4.4528868 105.0906556  60.9168873   2.8130099
 105.2198938  61.1703352   3.7269511 104.4104008  61.5096581   2.4934754
 111.7523273  58.7593988  11.5681940 110.9756607  59.3187908  11.5584805
 112.3913836  59.2450771  12.0896810 110.0069646  61.5679442  11.1299907
 110.7484330  62.1064486  10.8534731 109.3006631  62.1945730  11.2871459
 115.4824985  63.7108582   9.7272069 115.8908341  63.2690993   8.9826701
 114.7602247  63.1361210   9.9806262 111.8356055  58.6481189   7.1005626
 112.6817251  59.0720602   7.2440275 111.7754693  57.9914813   7.7944189
 115.8053800  64.2709773   3.4824358 115.1762662  64.4355487   2.7800425
 115.4179462  64.6851382   4.2535322 114.9855501  56.3085557   8.7586799
 114.7416433  57.0627618   8.2221075 115.2615431  56.6870905   9.5934046
 116.9393963  62.8524170   7.4364065 117.1510859  63.4955929   6.7598446
 116.8923712  62.0186486   6.9685995 114.5420192  55.4641990   4.3400637
 113.6804671  55.7623244   4.6317375 114.5682627  55.6812389   3.4081670
 111.3581762  64.0084181   0.7474443 111.8220107  64.2871884  -0.0420935
 111.0938560  63.1067625   0.5647533 108.2505843  63.5555662   3.6854206
 108.8207200  63.9842931   3.0471690 108.8413955  63.2738247   4.3838392
 110.2950648  60.1307333  -2.4435992 110.9974691  60.5828377  -1.9762066
 109.9631276  59.4891152  -1.8156099 108.7431009  58.7219090  11.9315217
 108.1129670  59.4035371  12.1650614 108.6367097  58.6102171  10.9868355
 104.0375982  58.3890886   2.8581141 103.2475036  58.6448414   2.3821252
 104.5287229  59.2039224   2.9633182 118.0539791  65.7296125   5.6086422
 118.8757235  65.3276312   5.3269104 118.0502194  65.6264359   6.5602538
 105.9890727  58.7535465  -0.1835382 105.1921891  58.8654159   0.3348114
 105.7616319  59.0922117  -1.0494491 111.8196395  65.2780168   7.7647133
 111.8840827  65.7400576   8.6005304 111.1107319  64.6477533   7.8929442
 102.3213685  58.6421376   5.2896132 102.5721723  59.5268386   5.5553708
 102.8573233  58.4625978   4.5171224 108.0211752  53.0239856  14.2940468
 107.6278698  52.4706054  14.9688112 108.8377892  53.3350434  14.6846986
 104.9873810  64.4623714  -1.7945962 105.4998330  65.2566964  -1.6440397
 105.6396523  63.7650004  -1.8612360 110.9379713  54.4397735  11.8860725
 111.6789427  55.0404888  11.8065187 111.1697636  53.6975373  11.3278767
 106.0821051  59.6254102  10.1638954 105.9674566  58.7239359  10.4646053
 105.2265569  59.8717799   9.8123771 113.1612889  67.5671842  11.7626455
 112.7176743  66.7808221  11.4447360 113.8230102  67.7550993  11.0970346
 107.9200010  69.0967644   6.2887134 108.4707435  68.9684707   5.5164127
 107.0811486  69.3962533   5.9382026 115.2594127  67.8474642   9.7907856
 115.2412602  68.6683523   9.2988125 116.1814047  67.7228717  10.0157997
 111.7167181  65.3618772  10.6331365 112.2495518  64.6007060  10.4030673
 111.1881262  65.0692424  11.3755519 102.9522727  62.7912368  -1.0186391
 103.7897949  63.2009377  -1.2352684 103.1300994  61.8511810  -1.0486198
 113.9633416  52.8383493   4.1274240 113.4598212  52.8013628   3.3142045
 114.2564023  53.7476236   4.1870896 110.2076302  52.9222223   3.1340421
 111.0729299  52.7265031   2.7746311 110.2753811  52.6932574   4.0609778
 118.0612740  62.6853785   3.2617223 117.4036414  63.3753046   3.3497352
 118.8653139  63.0750217   3.6051209 107.8138621  55.1524430   0.5056788
 108.3882373  54.9299612  -0.2270019 108.4009604  55.2213125   1.2585390
 113.3499030  58.5147613   3.5579505 112.4321591  58.7362560   3.4001193
 113.7659173  58.5893923   2.6991213 102.9748898  60.1303083  -0.3475658
 102.7773298  59.5372444  -1.0724591 102.4195562  59.8255294   0.3700281
 110.9545622  60.0226190   1.7718935 111.0094231  59.0700026   1.6961412
 110.1436824  60.1785629   2.2560234 108.8937981  58.6403250  -0.4690686
 108.0805847  58.9397420  -0.0625494 109.3896976  58.2458938   0.2483796
 114.4912193  59.1045074   8.3624208 114.8461581  59.3316547   9.2218674
 115.1384324  59.4363451   7.7401463 108.3852056  56.2121605   5.1470549
 109.0251436  56.0710364   4.4493512 107.5529587  55.9256119   4.7709151
 109.1612360  65.5124036   1.2605541 109.9552959  65.0174356   1.0588116
 108.4504052  64.9841899   0.8973247 113.9807205  67.8942131   5.6117909
 114.0344227  68.4633067   6.3795625 113.1121986  68.0644016   5.2471946
 105.4695124  59.6567117  -2.6634706 104.5392712  59.5951573  -2.4464744
 105.5652596  59.1343070  -3.4598065 105.3880673  56.1821930  -0.0756464
 105.6487490  57.0967263  -0.1847304 106.2097845  55.7146373   0.0740149
 106.8605598  57.5959687   7.0942360 107.5328651  57.3877050   6.4455009
 106.0335384  57.3981773   6.6547593 121.1094859  64.3363738   6.6117694
 121.3030749  65.2409548   6.8576969 121.0095477  63.8771157   7.4456279
 112.7631170  54.2221628   9.1108021 112.1159085  54.9211578   9.0172498
 113.5332185  54.6557772   9.4784269 116.1709968  64.4870480  12.1858574
 116.0195474  64.2581032  11.2688658 116.1614647  65.4441082  12.1989919
 112.9395304  62.0602393   7.1704841 113.8687364  62.2113553   6.9973808
 112.5186334  62.1486414   6.3153487 111.7383636  66.0853058   4.9403379
 111.5994722  65.7171842   5.8129317 110.9498232  66.6000697   4.7687336
 113.2888851  65.4634660   2.3292216 112.9538684  65.4235430   3.2249866
 112.7892797  64.7979376   1.8562627 107.2633095  60.8702290   7.8544797
 107.1252893  60.1382529   8.4556337 108.1738019  60.7811190   7.5728985
 109.8915396  60.5822250   7.3428477 110.6015014  59.9415442   7.3015096
 109.8484704  60.8335145   8.2654658 117.8802175  67.5189603  10.2635056
 117.8214721  66.8348823   9.5965639 118.2821693  68.2608593   9.8115682
 108.6044330  57.5687468   9.1624117 108.0681687  57.1178206   9.8145713
 108.0161038  57.7033376   8.4194581 117.8819582  65.4829187   8.4949036
 116.9946361  65.1455109   8.6175435 118.4518133  64.7512218   8.7317801
  99.5348729  61.8153279   1.8192087 100.2219769  61.5015009   1.2313103
  99.3796858  62.7194643   1.5459339 104.3383451  56.7043475   6.2477111
 104.2541640  56.0969145   5.5127521 103.5166157  57.1952494   6.2486607
 111.4120735  70.1430639   5.4610279 111.3390907  70.9485611   5.9729584
 110.9698128  70.3422605   4.6358301 113.8719419  70.0417473   7.6168438
 114.5847391  70.6764938   7.5444339 113.3809447  70.1381339   6.8008440
 111.0942134  57.3314422   1.3418991 110.7239921  56.7785462   2.0299896
 111.5901226  56.7272555   0.7893991 108.9231332  67.7911917   8.4374009
 109.6240792  68.4248400   8.5903403 108.4526447  68.1326648   7.6769648
 116.7232618  60.3456524   6.2626559 116.0704068  60.5932432   5.6079012
 117.1012998  59.5320662   5.9289036 112.7720191  61.0876335  12.7492596
 112.0960828  60.9870465  13.4194971 113.5947825  60.9315549  13.2128593
 104.5199050  67.3248272   5.3705111 105.1052487  66.5791960   5.5033016
 104.3223889  67.6352229   6.2541775  99.1116705  59.8953872   4.0909555
  99.1500805  59.3617463   4.8846673  98.6056998  59.3689078   3.4720532
 111.5142974  72.3943263   6.9850212 112.0661282  72.5574884   7.7499297
 111.8549168  72.9847701   6.3130237 106.4907467  54.7418413   7.5872097
 106.5548794  55.6033243   7.1749495 106.4274588  54.1292414   6.8544455
 105.9659740  56.8141545  11.2345131 106.5931779  56.4318622  11.8482655
 105.1087659  56.5955747  11.6000824 116.3653848  67.2204520  12.8398867
 116.9093752  67.8334479  12.3453821 115.7840693  67.7784099  13.3565880
 102.7425283  58.6217974  -2.8336514 103.0378724  57.7128653  -2.8869460
 101.8413318  58.6005714  -3.1555512 106.2719530  56.6973971   3.1491035
 105.5506115  57.3109938   3.0098508 107.0612785  57.2331736   3.0707680
 116.7146270  68.1434258   5.5993444 115.7676605  68.0239610   5.5271771
 117.0629043  67.2556756   5.6819706 109.0745843  54.0328397   9.4231686
 109.5980245  54.2790694  10.1857996 108.8558176  54.8648432   9.0034824
 104.4713124  56.3032072  -2.7097189 104.1425830  55.4229451  -2.8922083
 104.8252495  56.2479741  -1.8220800 107.5854947  56.5905042  -2.3421711
 107.9251020  57.1190963  -3.0643103 108.0327068  56.9285448  -1.5663145
 110.2798388  54.9742092   7.1081357 109.9395209  54.1749905   7.5102037
 109.5737394  55.2743803   6.5358190 110.9314860  52.0591405   5.5608680
 111.7540929  51.5851883   5.4387570 111.1752924  52.8381889   6.0607366
 108.4553439  58.7510525   3.3700658 108.3098020  59.0650829   4.2624940
 107.9778642  59.3695426   2.8171557 110.3149822  55.7413073   3.4181548
 110.3011390  54.8454167   3.0813846 111.0322250  55.7483737   4.0519834
 112.1675952  56.1750414   5.4634675 111.9093730  57.0967484   5.4619006
 111.6360993  55.7780848   6.1535140 102.9299101  61.2915870   6.3088320
 102.3852569  62.0675678   6.4408594 103.8078451  61.6386674   6.1507441
 103.7165123  60.4185766   9.2018476 102.9746859  60.5668401   9.7883107
 103.3957867  60.6794032   8.3385226 111.6608785  69.9601744   8.9998866
 111.9695912  69.7150891   9.8721566 112.4584267  70.1648383   8.5117737
 104.1621736  68.3051195   1.2328871 104.9879756  68.0054967   0.8527515
 103.8115788  67.5358817   1.6818660 109.1303270  67.6577663   3.3026545
 108.5083279  66.9948368   3.0028773 109.8008137  67.6838795   2.6200192
 102.3630342  66.2237521   2.1917805 101.5262250  65.7959696   2.0101806
 102.3353987  66.4169965   3.1288596 109.2027797  56.1359451  12.8959051
 109.2515953  57.0121574  12.5136820 109.7450311  55.5936844  12.3230694
 119.6882643  66.6800574  12.1760188 118.8978187  66.6624713  11.6364687
 119.4515997  67.2188868  12.9309224 119.8080518  63.5293041   9.4892916
 119.8578523  63.3643048  10.4308439 119.6994441  62.6620300   9.0990797
 117.0984280  59.5123969  10.8052223 117.9994143  59.3730434  10.5136221
 117.1732255  59.6778424  11.7450401 111.4327086  56.8890823   9.6505409
 110.5630395  57.1824390   9.3787998 111.6686566  57.4731268  10.3712673
 121.3098715  65.9489982   9.7334938 121.0183523  66.3119963  10.5698399
 120.6970846  65.2356991   9.5548270 119.5585903  61.0722597   8.2014996
 120.0340025  61.2650243   7.3933847 118.6351468  61.1281783   7.9558380
 106.4469410  62.2346764  -2.2153926 106.2015451  61.3309094  -2.0173716
 106.6165324  62.2363914  -3.1574448 114.1366119  53.1070440   7.1670830
 114.6548063  53.8431467   6.8417318 113.7821252  53.4134434   8.0017589
 105.7165057  57.9675122  -4.7167764 105.0234302  58.0419477  -5.3727728
 105.4716809  57.2035465  -4.1946247 118.2587572  57.9488357   6.4343301
 119.2104995  58.0486455   6.4555526 118.0891022  57.1566625   6.9441386
 116.2801951  55.0343940   6.6202702 115.6851884  55.3148953   5.9249191
 115.9951648  55.5237841   7.3919444 120.7375650  61.1694477   5.5485601
 120.7051970  60.2310477   5.7345285 121.3476273  61.2478513   4.8151426
 112.4597673  64.0908276  13.0513462 113.3800683  64.2686875  13.2453509
 112.4247256  63.1464321  12.8993161 101.6779838  59.2846869   1.9766737
 101.3582622  58.4312178   1.6841111 101.1313266  59.4995448   2.7324704
 105.4559746  62.0009310   5.6936243 105.6745755  62.9326418   5.7124277
 105.8685519  61.6417285   6.4791047 110.3287611  57.5742516  15.0838992
 110.2284338  58.5236873  15.0151083 110.1109153  57.2460755  14.2115062
 101.5468098  62.9049781   3.9459858 100.8531570  62.4903734   3.4329813
 102.2941089  62.9470317   3.3493277 110.1918881  61.0039655  13.9004054
 109.7085963  61.8040015  14.1067943 110.2779820  61.0147600  12.9471498
 103.4604841  62.8368035   1.8225873 103.4375529  62.9355722   0.8707756
 103.7705477  63.6833185   2.1443039 106.1192219  64.8944190   5.9372488
 107.0735472  64.8628132   5.8702419 105.9204742  64.4334813   6.7522714
 106.7091601  63.4645306   8.5043285 107.5284490  63.9589384   8.5278123
 106.9828408  62.5477274   8.4760853 104.4742447  70.4363809   2.9542686
 104.3396915  69.6764210   2.3880684 104.0574510  71.1604709   2.4871474
 107.6311573  71.3333126   3.1661128 107.5143957  72.2778559   3.0639818
 106.8104019  71.0306688   3.5546927 101.9626515  57.7983440   9.2035482
 102.6085378  57.2882394   9.6922708 101.7543666  58.5352121   9.7778908
 114.4879907  64.8664287  14.7027623 115.3571067  65.0404939  14.3414258
 114.0086659  65.6858704  14.5803352 108.6566087  71.9861388   6.3817057
 109.5593334  72.0184998   6.6983552 108.4303457  71.0561839   6.3963392
 106.3024006  54.9451057  13.3010497 107.1655467  54.5887862  13.5113821
 105.7289417  54.6064952  13.9885901 122.5917028  74.0885906  11.5681940
 121.8150362  74.6479826  11.5584805 123.2307591  74.5742689  12.0896810
 119.5824764  74.0511007  11.9315217 118.9523425  74.7327288  12.1650614
 119.4760852  73.9394089  10.9868355 118.8605507  68.3531773  14.2940468
 118.4672452  67.7997972  14.9688112 119.6771647  68.6642352  14.6846986
 121.7773468  69.7689652  11.8860725 122.5183181  70.3696806  11.8065187
 122.0091390  69.0267290  11.3278767 116.9214806  74.9546020  10.1638954
 116.8068321  74.0531277  10.4646053 116.0659323  75.2009716   9.8123771
 123.6024924  69.5513546   9.1108021 122.9552839  70.2503496   9.0172498
 124.3725940  69.9849690   9.4784269 119.4438084  72.8979385   9.1624117
 118.9075441  72.4470124   9.8145713 118.8554793  73.0325294   8.4194581
 115.1777206  72.0335393   6.2477111 115.0935394  71.4261062   5.5127521
 114.3559912  72.5244411   6.2486607 123.6113946  76.4168253  12.7492596
 122.9354583  76.3162382  13.4194971 124.4341580  76.2607467  13.2128593
 117.3301222  70.0710330   7.5872097 117.3942548  70.9325161   7.1749495
 117.2668342  69.4584332   6.8544455 116.8053494  72.1433463  11.2345131
 117.4325533  71.7610540  11.8482655 115.9481413  71.9247665  11.6000824
 119.9139598  69.3620315   9.4231686 120.4373999  69.6082611  10.1857996
 119.6951931  70.1940350   9.0034824 114.5558877  75.7477684   9.2018476
 113.8140613  75.8960319   9.7883107 114.2351622  76.0085949   8.3385226
 120.0421552  71.4651369  12.8959051 120.0909707  72.3413492  12.5136820
 120.5844066  70.9228762  12.3230694 122.2720840  72.2182741   9.6505409
 121.4024149  72.5116307   9.3787998 122.5080320  72.8023186  10.3712673
 121.1681365  72.9034434  15.0838992 121.0678092  73.8528791  15.0151083
 120.9502908  72.5752673  14.2115062 121.0312636  76.3331573  13.9004054
 120.5479717  77.1331933  14.1067943 121.1173575  76.3439518  12.9471498
 112.8020269  73.1275357   9.2035482 113.4479133  72.6174311   9.6922708
 112.5937420  73.8644039   9.7778908 117.1417760  70.2742974  13.3010497
 118.0049222  69.9179779  13.5113821 116.5683171  69.9356869  13.9885901
   6.9114476 100.3964674  94.8854244   6.1578185  99.8272072  94.7298248
   7.0462018 100.3627338  95.8324879   0.9878622 100.5493310  91.9956387
   0.8496520 100.7394906  91.0677577   0.6314841 101.3112693  92.4524439
   1.0148001 102.6169837  97.0067659   1.4484508 102.5245127  97.8550713
   1.7279582 102.5927338  96.3687675   1.8763551 102.6593538  99.5400544
   2.0699441 103.5639349  99.7859819   1.7764169 102.2000957 100.3739129
   3.1305614  99.2167205  96.1848448   3.1195490 100.0991920  95.8142381
   2.2622994  98.8638756  95.9902985   3.7330224 100.3667424  92.7897911
   4.1761370  99.6174749  92.3917034   2.8556734 100.3577560  92.4071643
   0.7657429 104.3697471  89.7991840   1.2908753 104.7084744  89.0741160
   0.6779781 103.4344486  89.6154975   0.5749210 101.8522841 102.4175767
   0.6247215 101.6872849 103.3591290   0.4663133 100.9850100 102.0273648
   2.0767407 104.2719783 102.6617788   1.7852215 104.6349763 103.4981249
   1.4639538 103.5586791 102.4831120   3.2763089 101.8372662  95.1820359
   4.1109980 102.2762466  95.3457919   3.4122218 101.3611316  94.3628604
   1.5044342  99.4924277  98.4768452   1.4720662  98.5540278  98.6628135
   2.1144965  99.5708314  97.7434276   1.6538830  96.2835320  98.5226735
   1.1377879  95.4993777  98.3356664   2.5378779  95.9554037  98.6873254
   7.3220891 100.5540284  97.6174488   8.0524280 100.2925572  98.1782192
   6.7127837  99.8169006  97.6576556   5.4036189  98.6948146  98.2148940
   4.6769352  98.5604111  97.6065431   4.9883475  99.0024975  99.0205658
   3.0213983  94.9159999  95.5682371   3.6158474  94.6755735  94.8575679
   3.0940567  94.1967129  96.1955907   1.0172718  95.4830126  91.8354501
   0.7609653  95.0826762  92.6662709   0.3925586  96.1973920  91.7104640
   5.3285056  98.2226200  94.3425792   4.7684614  98.2919389  95.1157354
   4.7228560  98.0467184  93.6225289   6.9141075 114.8982713  97.0355748
   7.5519485 114.7789461  96.3319088   6.7961918 115.8463557  97.0943700
   3.7230781 114.8510142  96.9717273   3.3849292 114.7351206  96.0837808
   4.5920549 114.4501307  96.9518279   1.8514032 116.1658954  98.4684022
   2.4477604 115.9414976  97.7540985   1.9089003 115.4243699  99.0709470
   1.4239060 113.6198389  86.3034213   1.6764581 113.0979910  85.5417676
   0.4863619 113.4564534  86.4060897   6.4682343 112.6234167  94.1108956
   7.2545432 112.2053590  93.7599373   6.7321047 113.5280259  94.2790605
   6.6392420 118.0607018  88.8097613   6.0038253 118.1341644  89.5218518
   6.3089827 118.6500616  88.1316692  11.8690770 112.5609401  95.0141935
  12.6015942 111.9908617  95.2479764  11.1130126 112.1731001  95.4548440
   1.1435349 115.5226495  88.5058588   1.0271607 114.8471398  89.1739672
   1.2537609 115.0358869  87.6890741   3.4866890 114.9836642  92.2105277
   3.1225097 114.4567263  92.9218199   4.3434006 114.5935111  92.0371763
   9.3916191 106.2730975  99.4736543   9.0599515 107.1426386  99.2497758
   8.7961804 105.9567259 100.1530574   3.1272377 110.0126542  87.2066626
   3.2946779 110.8806778  87.5737097   2.9369546 110.1753823  86.2827915
   5.8847710 118.4743521  98.8732456   5.5848433 119.3768559  98.7648263
   5.5398770 118.2075704  99.7253609   9.2844854 110.9926061  96.5529893
   8.3761731 110.9241469  96.2588654   9.2332450 111.4698006  97.3811719
   3.1061598 112.4684199  88.1913292   2.9861223 112.9141250  89.0298773
   2.4114186 112.8169517  87.6326831  11.1506500 109.1942499  98.3307767
  10.5080881 109.4875032  97.6847562  10.6461429 109.0795420  99.1360964
   8.8046664 112.9405672  89.0193627   9.7164520 113.1733059  88.8441324
   8.2956311 113.5242717  88.4568705   3.4418502 112.3002907 100.0288476
   4.2879697 112.7242321 100.1723125   3.3817139 111.6436531 100.7227039
   7.4116246 117.9231491  96.4107208   6.7825109 118.0877205  95.7083276
   7.0241908 118.3373100  97.1818172  11.2905478 118.8585929  93.7651572
  10.6056516 119.2384830  93.2148605  11.3749327 119.4681255  94.4983519
   6.5917947 109.9607275 101.6869650   6.3478879 110.7149336 101.1503925
   6.8677878 110.3392623 102.5216897   8.5456410 116.5045888 100.3646915
   8.7573305 117.1477648  99.6881296   8.4986158 115.6708204  99.8968845
   6.1482639 109.1163708  97.2683487   5.2867118 109.4144962  97.5600225
   6.1745073 109.3334107  96.3364520   2.9644208 117.6605899  93.6757293
   3.4282554 117.9393602  92.8861916   2.7001006 116.7589343  93.4930384
   1.9013094 113.7829051  90.4846858   2.6037138 114.2350095  90.9520785
   1.5693723 113.1412870  91.1126751   9.6602238 119.3817843  98.5369273
  10.4819681 118.9798030  98.2551954   9.6564641 119.2786077  99.4885388
  17.7508231 115.7256592  94.8854244  16.9971939 115.1563990  94.7298248
  17.8855772 115.6919256  95.8324879   6.4899322 104.1200556  99.0907857
   6.1463592 105.0102197  99.0146967   6.8578285 103.9302213  98.2277442
   6.4549605 114.1109167  87.5980292   5.9396229 114.8813772  87.8368679
   6.1826914 113.4374303  88.2213353   4.0396716 108.9558868  92.6565530
   3.1838313 108.5665718  92.4771169   4.4523668 109.0350828  91.7965316
   5.5695863 106.4905211  97.0557090   5.0660658 106.4535346  96.2424895
   5.8626470 107.3997954  97.1153747   1.8138749 106.5743941  96.0623272
   2.6791745 106.3786749  95.7029161   1.8816258 106.3454292  96.9892629
  11.4283879 116.8641522  89.5333465  10.6513322 116.5252681  89.0888628
  12.1075360 116.8694145  88.8588431   6.2435908 111.9836259  89.4240073
   5.9386044 112.2982408  90.2750216   7.1966350 112.0617679  89.4667406
   9.6675186 116.3375503  96.1900073   9.0098861 117.0274764  96.2780202
  10.4715585 116.7271935  96.5334060   8.4780645 114.6919875  94.2404015
   8.9912527 115.3249867  94.7425725   9.1281869 114.0921071  93.8747375
   1.7223735 105.6787397  92.1614708   1.0688148 105.3636415  91.5371323
   1.6804210 105.0563138  92.8874531   2.8334940 115.9606693  84.0768000
   1.9262002 115.7295946  84.2759149   3.3305972 115.1644312  84.2641982
   4.9561476 112.1669331  96.4862356   4.0384037 112.3884278  96.3284044
   5.3721619 112.2415642  95.6274063   5.7396524 113.5660747  91.6165036
   6.4868343 114.0782144  91.3072158   6.0088113 113.2444799  92.4769430
   4.0123174 116.0619287  88.5991990   3.1034393 115.7778320  88.6964460
   4.0418258 116.4818366  87.7395297   9.2442441 119.6725877  92.3683158
   8.7904768 118.8316787  92.4248348   8.6136408 120.3087275  92.7057938
   8.1875361 110.6017863  93.5983825   7.4498118 110.0895249  93.9294068
   8.4402134 110.1618245  92.7867102   8.2886988 103.3794115  94.1925595
   8.5945865 102.5191478  93.9051510   9.0139593 103.9711735  93.9924588
   2.5608068 113.6747908  94.7001786   2.6156678 112.7221744  94.6244262
   1.7499270 113.8307347  95.1843084   3.7099262 117.6028031  85.9380069
   3.2718691 116.8863890  85.4785706   4.4509702 117.8304146  85.3765160
   6.0974639 112.7566792 101.2907058   6.4524027 112.9838265 102.1501524
   6.7446771 113.0885169 100.6684314  11.8272376 115.8785228  91.9956387
  11.6890275 116.0686824  91.0677577  11.4708595 116.6404611  92.4524439
  11.8541756 117.9461755  97.0067659  12.2878263 117.8537044  97.8550713
  12.5673337 117.9219256  96.3687675  12.7157306 117.9885456  99.5400544
  12.9093196 118.8931266  99.7859819  12.6157924 117.5292875 100.3739129
   4.3693616 107.8743346 102.0390872   3.7221531 108.5733296 101.9455348
   5.1394632 108.3079490 102.4067120   4.5457751 115.7124111 100.0987691
   5.4749811 115.8635271  99.9256659   4.1248781 115.8008132  99.2436338
   7.8310489 116.4612413  85.5312126   7.2139660 115.7359241  85.4345179
   7.3626978 117.2221773  85.1879201   9.4882028 119.1350905 101.4231886
   8.6008807 118.7976827 101.5458285  10.0580579 118.4033936 101.6600652
   6.1169611 108.8418757  94.5430157   6.6138311 108.0888719  94.2231227
   5.3456593 108.8783074  93.9773366  13.9699369 114.5459122  96.1848448
  13.9589245 115.4283838  95.8142381  13.1016748 114.1930673  95.9902985
   7.1999392 117.5990444  92.1168580   6.2655671 117.7191907  91.9473284
   7.3776060 116.6962911  91.8528590   2.7004580 110.9836140  94.2701841
   2.3302368 110.4307180  94.9582747   3.1963672 110.3794273  93.7176841
  10.5871943 113.4407763  92.6518614  11.0532395 114.2735755  92.5778917
  11.0379444 112.9752745  93.3563873   8.6548174 119.7851585  89.6504766
   8.9308018 119.6708179  90.5598640   7.7852673 119.3869070  89.6116939
   8.5588606 105.8088350  96.6909515   7.6451686 106.0392577  96.8591722
   8.9881707 105.8926794  97.5423548   8.3295065 113.9978242  99.1909410
   7.6766515 114.2454150  98.5361862   8.7075444 113.1842381  98.8571887
   0.6808289 107.6850115 102.3514537   1.2042691 107.9312412 103.1140846
   0.4620623 108.5170150 101.9317674   1.8860835 108.6263810 100.0364207
   1.5457655 107.8271624 100.4384887   1.1799841 108.9265521  99.4641040
   2.5377306 105.7113123  98.4891530   3.3603376 105.2373601  98.3670421
   2.7815370 106.4903607  98.9890217   1.1785541 108.7401381  88.7854432
   1.8993903 109.1182634  88.2818149   0.5550845 109.4590258  88.8889410
   5.3216664 109.4446530  89.7212764   5.5380278 110.3271168  89.4201592
   4.8410731 109.0532744  88.9918406   1.9212268 109.3934792  96.3464398
   1.9073837 108.4975885  96.0096696   2.6384696 109.4005455  96.9802685
   3.7738399 109.8272132  98.3917526   3.5156177 110.7489202  98.3901856
   3.2423439 109.4302566  99.0817990   1.3249164 108.2749172  91.6151969
   1.4465075 107.3465818  91.8142856   1.0351206 108.2887858  90.7030284
   4.1940354 105.9604082  94.7518688   4.2162051 106.0243415  93.7970668
   4.6108413 105.1208591  94.9459195  14.5723979 115.6959342  92.7897911
  15.0155125 114.9466667  92.3917034  13.6950489 115.6869478  92.4071643
  11.6051183 119.6989389  89.7991840  12.1302507 120.0376662  89.0741160
  11.5173536 118.7636404  89.6154975  11.4142964 117.1814759 102.4175767
  11.4640969 117.0164766 103.3591290  11.3056888 116.3142018 102.0273648
   8.7046727 113.1645687 103.7335074   9.6056589 113.0252152 103.4419071
   8.7794701 113.3300142 104.6733251  12.9161161 119.6011700 102.6617788
  12.6245969 119.9641681 103.4981249  12.3033292 118.8878709 102.4831120
  14.1156843 117.1664580  95.1820359  14.9503735 117.6054384  95.3457919
  14.2515972 116.6903233  94.3628604  11.1648349 114.7244315 101.1297846
  11.6402471 114.9171961 100.3216698  10.2413915 114.7803501 100.8841230
   5.7428566 106.7592159 100.0953680   6.2610510 107.4953185  99.7700169
   5.3883698 107.0656152 100.9300439   5.9941160 103.1792441  95.6154577
   6.2742914 102.5115630  96.2415003   6.7791767 103.3721537  95.1029241
   9.8650018 111.6010075  99.3626152  10.8167441 111.7008173  99.3838376
   9.6953469 110.8088344  99.8724236   7.8864398 108.6865658  99.5485553
   7.2914330 108.9670671  98.8532041   7.6014094 109.1759559 100.3202294
  12.3438096 114.8216195  98.4768452  12.3114416 113.8832195  98.6628135
  12.9538720 114.9000231  97.7434276   4.1821427 113.6912248  84.5195656
   5.1280532 113.5618456  84.5884074   3.8035672 112.9526910  84.9965084
  12.4932585 111.6127238  98.5226735  11.9771633 110.8285695  98.3356664
  13.3772533 111.2845955  98.6873254  10.1543311 105.3568254  94.4822547
   9.9568133 105.0483342  95.3665879  10.7643017 106.0829893  94.6120477
  18.1614646 115.8832202  97.6174488  18.8918034 115.6217490  98.1782192
  17.5521591 115.1460924  97.6576556  16.2429943 114.0240064  98.2148940
  15.5163107 113.8896029  97.6065431  15.8277230 114.3316893  99.0205658
   2.3664344 111.6162224  84.4550541   1.4595799 111.3195337  84.5313254
   2.6440325 111.3192042  83.5884827   3.9826410 106.1599114  90.6094782
   3.1727138 105.8146199  90.9850028   4.6710827 105.8506658  91.1982394
   5.9116958 105.2377161  92.2319079   6.4647997 105.6572614  92.8909102
   6.1487044 104.3112909  92.2742035   1.1363129 108.4749159  84.5962520
   1.9982293 108.8004058  84.8558337   1.3213473 107.6880655  84.0835586
   9.2895765 107.3477686  91.7397743   8.7094434 108.0062490  91.3575795
   9.0231698 106.5255030  91.3285161   7.7399332 106.7482743  93.9419063
   8.2399110 106.8599278  93.1333382   8.3834939 106.4443796  94.5819872
   8.0720643 109.5077776  90.7954091   7.1846498 109.7927427  90.5774286
   8.4874632 109.3471540  89.9481368  11.4235179 109.5324297  94.5108431
  12.1995569 110.0220750  94.7833047  10.6983313 109.9582351  94.9680300
  13.8607738 110.2451916  95.5682371  14.4552229 110.0047652  94.8575679
  13.9334322 109.5259047  96.1955907   8.0461667 115.0232312  91.0104381
   7.9896868 115.4800864  90.1712014   8.5990009 114.2622997  90.8327224
  11.8566473 110.8122044  91.8354501  11.6003407 110.4118680  92.6662709
  11.2319341 111.5265838  91.7104640  16.1678811 113.5518117  94.3425792
  15.6078369 113.6211307  95.1157354  15.5622314 113.3759102  93.6225289
   9.1250554 119.7104980  86.9400571   9.9596158 119.2786178  86.7578046
   8.9634897 119.5386994  87.8677466   8.7796446 116.2137093  88.3056911
   8.7245250 116.0481365  87.3645355   8.1542501 116.9213126  88.4619100
   2.0892572 105.7145202  87.8842229   2.0771241 106.6587042  88.0410500
   2.9815994 105.5315348  87.5901690   5.9044691 102.3087979  92.1388166
   5.1377087 101.7546466  92.2844848   6.3155396 102.3809848  93.0002317
  20.2309945 121.6022892  99.4736543  19.8993270 122.4718303  99.2497758
  19.6355558 121.2859176 100.1530574  21.9900255 124.5234417  98.3307767
  21.3474635 124.8166950  97.6847562  21.4855183 124.4087337  99.1360964
  17.3293077 119.4492473  99.0907857  16.9857346 120.3394115  99.0146967
  17.6972040 119.2594131  98.2277442  16.4089617 121.8197129  97.0557090
  15.9054413 121.7827264  96.2424895  16.7020224 122.7289871  97.1153747
  12.5617490 121.0079315  92.1614708  11.9081902 120.6928332  91.5371323
  12.5197964 120.3855056  92.8874531  19.1280743 118.7086033  94.1925595
  19.4339619 117.8483396  93.9051510  19.8533347 119.3003653  93.9924588
  19.3982361 121.1380268  96.6909515  18.4845440 121.3684495  96.8591722
  19.8275462 121.2218712  97.5423548  13.3771061 121.0405041  98.4891530
  14.1997130 120.5665519  98.3670421  13.6209124 121.8195524  98.9890217
  15.0334109 121.2896000  94.7518688  15.0555806 121.3535333  93.7970668
  15.4502168 120.4500509  94.9459195  16.5822320 122.0884076 100.0953680
  17.1004264 122.8245103  99.7700169  16.2277453 122.3948069 100.9300439
  16.8334914 118.5084359  95.6154577  17.1136668 117.8407548  96.2415003
  17.6185521 118.7013454  95.1029241  20.9937066 120.6860171  94.4822547
  20.7961887 120.3775260  95.3665879  21.6036771 121.4121810  94.6120477
  14.8220164 121.4891031  90.6094782  14.0120893 121.1438116  90.9850028
  15.5104581 121.1798575  91.1982394  16.7510713 120.5669078  92.2319079
  17.3041751 120.9864532  92.8909102  16.9880799 119.6404826  92.2742035
  20.1289520 122.6769603  91.7397743  19.5488189 123.3354407  91.3575795
  19.8625452 121.8546948  91.3285161  18.5793086 122.0774661  93.9419063
  19.0792864 122.1891196  93.1333382  19.2228694 121.7735714  94.5819872
  24.7001492 125.5743834  95.5682371  25.2945983 125.3339570  94.8575679
  24.7728076 124.8550965  96.1955907  16.7438446 117.6379897  92.1388166
  15.9770841 117.0838383  92.2844848  17.1549151 117.7101765  93.0002317
   6.9114478  77.4026797  81.6099551   6.1578186  76.8334195  81.4543555
   7.0462019  77.3689461  82.5570185   0.9878623  77.5555433  78.7201694
   0.8496522  77.7457029  77.7922883   0.6314842  78.3174816  79.1769745
   1.0148003  79.6231960  83.7312966   1.4484509  79.5307249  84.5796020
   1.7279583  79.5989461  83.0932982   1.8763552  79.6655661  86.2645851
   2.0699442  80.5701471  86.5105126   1.7764170  79.2063080  87.0984436
   3.1305615  76.2229327  82.9093755   3.1195492  77.1054043  82.5387688
   2.2622995  75.8700878  82.7148292   3.7330225  77.3729547  79.5143218
   4.1761371  76.6236872  79.1162341   2.8556736  77.3639683  79.1316950
   0.7657430  81.3759594  76.5237147   1.2908754  81.7146866  75.7986467
   0.6779782  80.4406609  76.3400282   0.5749211  78.8584964  89.1421073
   0.6247216  78.6934971  90.0836596   0.4663134  77.9912223  88.7518954
   2.0767408  81.2781905  89.3863095   1.7852216  81.6411886  90.2226556
   1.4639539  80.5648914  89.2076427   3.2763090  78.8434785  81.9065665
   4.1109981  79.2824589  82.0703226   3.4122219  78.3673438  81.0873911
   1.5044343  76.4986400  85.2013758   1.4720663  75.5602400  85.3873442
   2.1144966  76.5770436  84.4679583   1.6538831  73.2897443  85.2472041
   1.1377880  72.5055900  85.0601970   2.5378780  72.9616160  85.4118561
   7.3220893  77.5602406  84.3419795   8.0524281  77.2987695  84.9027498
   6.7127838  76.8231128  84.3821863   5.4036190  75.7010269  84.9394246
   4.6769353  75.5666234  84.3310738   4.9883477  76.0087098  85.7450964
   3.0213985  71.9222121  82.2927678   3.6158475  71.6817857  81.5820986
   3.0940568  71.2029252  82.9201214   1.0172720  72.4892249  78.5599808
   0.7609654  72.0888885  79.3908015   0.3925588  73.2036043  78.4349947
   5.3285057  75.2288322  81.0671099   4.7684615  75.2981511  81.8402661
   4.7228561  75.0529307  80.3470595   6.9141076  91.9044836  83.7601055
   7.5519486  91.7851583  83.0564395   6.7961919  92.8525680  83.8189007
   3.7230782  91.8572264  83.6962579   3.3849294  91.7413329  82.8083114
   4.5920550  91.4563429  83.6763586   4.2050565  93.0107116  89.6548785
   4.1939206  92.6159914  88.7829289   4.3671205  92.2773188  90.2482556
   5.1617157  97.3778708  74.9973935   4.5105136  97.9632789  74.6107949
   5.9561519  97.9084903  75.0568973   0.9257826  95.7944228  88.6027969
   0.6347692  96.6989859  88.4874635   1.5614811  95.8360755  89.3172039
   1.8514033  93.1721076  85.1929329   2.4477605  92.9477099  84.4786292
   1.9089005  92.4305822  85.7954776   1.4239062  90.6260512  73.0279520
   1.6764582  90.1042033  72.2662983   0.4863621  90.4626657  73.1306203
   6.4682344  89.6296290  80.8354263   7.2545434  89.2115713  80.4844680
   6.7321049  90.5342382  81.0035911   6.6392422  95.0669140  75.5342920
   6.0038255  95.1403767  76.2463824   6.3089828  95.6562739  74.8561999
  11.8690772  89.5671523  81.7387241  12.6015943  88.9970740  81.9725071
  11.1130127  89.1793124  82.1793747   1.1435350  92.5288617  75.2303895
   1.0271608  91.8533521  75.8984979   1.2537610  92.0420991  74.4136048
   3.4866891  91.9898765  78.9350584   3.1225098  91.4629386  79.6463505
   4.3434007  91.5997234  78.7617069   9.3916192  83.2793097  86.1981850
   9.0599517  84.1488508  85.9743065   8.7961805  82.9629381  86.8775880
   3.1272378  87.0188664  73.9311932   3.2946781  87.8868901  74.2982403
   2.9369547  87.1815946  73.0073222   5.8847711  95.4805643  85.5977763
   5.5848434  96.3830682  85.4893570   5.5398771  95.2137826  86.4498916
   9.2844855  87.9988183  83.2775200   8.3761733  87.9303592  82.9833961
   9.2332451  88.4760128  84.1057025   3.1061599  89.4746322  74.9158599
   2.9861224  89.9203373  75.7544079   2.4114187  89.8231639  74.3572137
   3.3585721  89.4177829  91.2210097   2.5819055  89.9771749  91.2112962
   3.9976284  89.9034612  91.7424967  11.1506502  86.2004622  85.0553074
  10.5080882  86.4937155  84.4092868  10.6461430  86.0857542  85.8606271
   8.8046665  89.9467795  75.7438933   9.7164521  90.1795182  75.5686631
   8.2956312  90.5304839  75.1814012   1.6132093  92.2263282  90.7828064
   2.3546778  92.7648326  90.5062888   0.9069079  92.8529571  90.9399616
   7.0887433  94.3692423  89.3800226   7.4970789  93.9274833  88.6354858
   6.3664694  93.7945050  89.6334419   3.4418503  89.3065030  86.7533783
   4.2879698  89.7304443  86.8968432   3.3817141  88.6498654  87.4472346
   7.4116248  94.9293613  83.1352515   6.7825110  95.0939328  82.4328582
   7.0241910  95.3435223  83.9063479  11.2905479  95.8648051  80.4896878
  10.6056518  96.2446953  79.9393912  11.3749329  96.4743378  81.2228826
   6.5917948  86.9669398  88.4114956   6.3478880  87.7211458  87.8749232
   6.8677879  87.3454746  89.2462203   8.5456411  93.5108010  87.0892222
   8.7573306  94.1539770  86.4126603   8.4986159  92.6770327  86.6214152
   6.1482640  86.1225831  83.9928794   5.2867119  86.4207085  84.2845532
   6.1745075  86.3396230  83.0609827   2.9644209  94.6668022  80.4002600
   3.4282555  94.9455724  79.6107222   2.7001008  93.7651466  80.2175690
   1.9013095  90.7891174  77.2092165   2.6037139  91.2412218  77.6766091
   1.5693724  90.1474993  77.8372058   9.6602239  96.3879966  85.2614579
  10.4819683  95.9860153  84.9797261   9.6564642  96.2848200  86.2130695
   3.4258842  95.9364009  87.4175290   3.4903275  96.3984416  88.2533462
   2.7169766  95.3061374  87.5457600  17.7508232  92.7318714  81.6099551
  16.9971940  92.1626112  81.4543555  17.8855773  92.6981379  82.5570185
   3.1406860  97.6032117  77.2854270   3.0052535  98.4483652  77.7139118
   3.6816673  97.8051394  76.5220204   2.5442161  85.0981575  91.5388882
   3.2851874  85.6988729  91.4593344   2.7760084  84.3559213  90.9806924
   4.7675336  98.2255683  91.4154612   4.3239191  97.4392062  91.0975517
   5.4292550  98.4134834  90.7498503   6.8656575  98.5058483  89.4436013
   6.8475050  99.3267364  88.9516283   7.7876495  98.3812558  89.6686155
   3.3229629  96.0202612  90.2859522   3.8557965  95.2590901  90.0558830
   2.7943710  95.7276264  91.0283676   6.4899324  81.1262678  85.8153164
   6.1463593  82.0164320  85.7392274   6.8578286  80.9364336  84.9522749
   6.4549606  91.1171289  74.3225599   5.9396230  91.8875894  74.5613986
   6.1826915  90.4436426  74.9458660   4.0396717  85.9620990  79.3810837
   3.1838314  85.5727841  79.2016476   4.4523669  86.0412951  78.5210623
   5.5695864  83.4967334  83.7802397   5.0660660  83.4597469  82.9670202
   5.8626471  84.4060076  83.8399053   1.8138750  83.5806063  82.7868579
   2.6791747  83.3848872  82.4274468   1.8816259  83.3516415  83.7137935
  11.4283881  93.8703644  76.2578772  10.6513323  93.5314804  75.8133934
  12.1075361  93.8756267  75.5833737   6.2435910  88.9898382  76.1485380
   5.9386045  89.3044531  76.9995523   7.1966352  89.0679801  76.1912713
   4.6882341  95.1488605  77.7978334   4.1603703  94.4141364  77.4851571
   4.1869844  95.9263281  77.5518302   9.6675187  93.3437625  82.9145380
   9.0098862  94.0336887  83.0025509  10.4715587  93.7334057  83.2579366
   8.4780646  91.6981998  80.9649322   8.9912528  92.3311990  81.4671032
   9.1281870  91.0983194  80.5992682   1.7223737  82.6849520  78.8860015
   1.0688149  82.3698537  78.2616630   1.6804211  82.0625261  79.6119838
   2.8334942  92.9668815  70.8013307   1.9262003  92.7358069  71.0004456
   3.3305974  92.1706434  70.9887288   5.7403020 101.6766322  73.7209993
   5.0664719 101.9798019  74.3294951   6.1268842 102.4795403  73.3715450
   4.9561477  89.1731454  83.2107662   4.0384038  89.3946401  83.0529350
   5.3721621  89.2477764  82.3519370   5.7396525  90.5722869  78.3410343
   6.4868344  91.0844267  78.0317465   6.0088114  90.2506922  79.2014736
   4.0123175  93.0681410  75.3237297   3.1034394  92.7840443  75.4209767
   4.0418259  93.4880489  74.4640604   9.2442442  96.6788000  79.0928464
   8.7904770  95.8378909  79.1493655   8.6136409  97.3149398  79.4303245
   8.1875362  87.6079986  80.3229132   7.4498119  87.0957372  80.6539374
   8.4402136  87.1680367  79.5112409   7.6875382  98.5164496  80.0278283
   7.9798356  99.0769553  79.3090648   8.1974002  98.8093057  80.7831442
   8.2886989  80.3856238  80.9170901   8.5945866  79.5253601  80.6296816
   9.0139594  80.9773858  80.7169895   2.5608069  90.6810031  81.4247092
   2.6156679  89.7283867  81.3489569   1.7499271  90.8369470  81.9088391
   3.7099263  94.6090154  72.6625375   3.2718693  93.8926013  72.2031013
   4.4509704  94.8366269  72.1010467   2.6509007  99.2944847  81.1171736
   2.6085186  99.5205694  80.1880268   3.5671706  99.0608222  81.2657537
   6.0974641  89.7628915  88.0152365   6.4524028  89.9900388  88.8746831
   6.7446772  90.0947292  87.3929620  11.8272378  92.8847351  78.7201694
  11.6890276  93.0748947  77.7922883  11.4708596  93.6466734  79.1769745
  11.8541757  94.9523878  83.7312966  12.2878264  94.8599167  84.5796020
  12.5673338  94.9281378  83.0932982   5.5869652  98.5525972  85.2646066
   5.6406674  99.1216908  86.0323782   4.7184433  98.7227857  84.9000103
  12.7157307  94.9947578  86.2645851  12.9093197  95.8993389  86.5105126
  12.6157925  94.5354997  87.0984436   4.3693618  84.8805469  88.7636178
   3.7221533  85.5795419  88.6700655   5.1394633  85.3141613  89.1312426
   7.7772415  95.1454321  91.8386732   7.6257922  94.9164873  90.9216815
   7.7677095  96.1024923  91.8518077   4.5457752  92.7186234  86.8232998
   5.4749812  92.8697394  86.6501965   4.1248782  92.8070255  85.9681645
   3.3446084  96.7436898  84.5931536   3.2057169  96.3755683  85.4657474
   2.5560680  97.2584538  84.4215493   3.9394236 101.8445995  75.9357072
   4.1145991 101.3734038  76.7502695   3.2527024 102.4711761  76.1638333
   4.8951299  96.1218501  81.9820373   4.5601131  96.0819271  82.8778023
   4.3955244  95.4563217  81.5090784   7.8310490  93.4674535  72.2557433
   7.2139661  92.7421364  72.1590486   7.3626979  94.2283896  71.9124507
   1.4977843  91.2406090  86.9956634   2.2077462  90.5999283  86.9543253
   1.4547152  91.4918985  87.9182815   9.4864622  98.1773444  89.9163213
   9.4277168  97.4932664  89.2493796   9.8884140  98.9192434  89.4643839
   9.4882029  96.1413028  88.1477193   8.6008808  95.8038949  88.2703592
  10.0580580  95.4096059  88.3845959   3.0183183 100.8014480  85.1138436
   2.9453354 101.6069451  85.6257741   2.5760576 101.0006446  84.2886458
   2.8072962 100.0386250  78.6241258   2.0240484 100.5807930  78.7179482
   3.5065708 100.5560230  79.0235499   6.1169612  85.8480879  81.2675463
   6.6138312  85.0950842  80.9476533   5.3456594  85.8845196  80.7018673
  13.9699370  91.5521245  82.9093755  13.9589246  92.4345960  82.5387688
  13.1016749  91.1992796  82.7148292   5.4781866 100.7001314  87.2696595
   6.1909838 101.3348779  87.1972496   4.9871895 100.7965180  86.4536597
   7.1999393  94.6052567  78.8413887   6.2655672  94.7254029  78.6718591
   7.3776062  93.7025033  78.5773896   2.7004581  87.9898262  80.9947148
   2.3302369  87.4369303  81.6828053   3.1963674  87.3856396  80.4422148
  10.5871945  90.4469886  79.3763921  11.0532397  91.2797878  79.3024223
  11.0379445  89.9814868  80.0809179   8.6548176  96.7913707  76.3750073
   8.9308020  96.6770302  77.2843947   7.7852674  96.3931192  76.3362246
   8.5588607  82.8150473  83.4154822   7.6451687  83.0454700  83.5837029
   8.9881709  82.8988917  84.2668854   8.3295066  91.0040365  85.9154716
   7.6766516  91.2516272  85.2607169   8.7075446  90.1904503  85.5817193
   5.2902240 101.0400058  80.0182886   5.4724634 100.2221714  80.4810639
   6.1135226 101.2567750  79.5807776   5.6244405  99.9668243  77.2797935
   6.1532172  99.4560698  76.6668097   5.8872625  99.6510773  78.1443468
   4.3782639  91.7460176  92.4020753   3.7023276  91.6454305  93.0723128
   5.2010273  91.5899390  92.8656750   3.1205422 103.0527103  86.6378369
   3.6723730 103.2158725  87.4027454   3.4611615 103.6431541  85.9658394
   7.9716296  97.8788361  92.4927024   8.5156200  98.4918319  91.9981978
   7.3903141  98.4367939  93.0094037   6.2573809 101.0009079  83.6242051
   6.1324948 100.1998819  83.1152997   6.9152900 101.4955272  83.1356021
   8.3208717  98.8018099  85.2521601   7.3739053  98.6823450  85.1799928
   8.6691490  97.9140597  85.3347863   0.6808291  84.6912238  89.0759843
   1.2042693  84.9374535  89.8386153   0.4620624  85.5232273  88.6562981
   5.3255151  98.5970815  81.4525954   5.1780113  97.6687523  81.6333524
   6.1508644  98.6190906  80.9683029   8.9289272  99.4199374  82.5390826
   9.8535820  99.2142235  82.4015278   8.7604576  99.1715775  83.4480168
   1.8860836  85.6325933  86.7609514   1.5457656  84.8333746  87.1630194
   1.1799842  85.9327644  86.1886347   2.5377308  82.7175245  85.2136837
   3.3603377  82.2435724  85.0915727   2.7815371  83.4965729  85.7135523
   1.1785542  85.7463504  75.5099739   1.8993905  86.1244757  75.0063455
   0.5550846  86.4652381  75.6134717   5.3216665  86.4508653  76.4458071
   5.5380279  87.3333291  76.1446899   4.8410732  86.0594866  75.7163713
   1.9212269  86.3996914  83.0709705   1.9073838  85.5038007  82.7342003
   2.6384697  86.4067578  83.7047991   3.7738400  86.8334254  85.1162833
   3.5156178  87.7551325  85.1147163   3.2423440  86.4364689  85.8063297
   8.7184589  99.9385041  77.8952918   8.8921466  99.3731464  77.1426770
   9.2113480 100.7385936  77.7132408   1.3249165  85.2811294  78.3397275
   1.4465076  84.3527941  78.5388163   1.0351208  85.2949980  77.4275591
   4.1940356  82.9666205  81.4763995   4.2162052  83.0305538  80.5215975
   4.6108415  82.1270713  81.6704501  14.5723980  92.7021464  79.5143218
  15.0155126  91.9528790  79.1162341  13.6950490  92.6931601  79.1316950
   9.7059761  99.2551806  74.9949816  10.4010666  99.8758499  75.2137131
  10.0482911  98.4047157  75.2702194  11.6051184  96.7051511  76.5237147
  12.1302508  97.0438784  75.7986467  11.5173537  95.7698527  76.3400282
   3.2671233 100.6185585  88.6527024   3.5758359 100.3734732  89.5249723
   4.0646715 100.8232223  88.1645894   3.2891845 102.7723495  80.8832400
   2.8496835 102.2799873  81.5765257   4.0399962 102.2296462  80.6424475
   0.8090245  86.7943292  92.5487208   0.8578400  87.6705415  92.1664977
   1.3512759  86.2520685  91.9758851  11.2945090  97.3384415  91.8288345
  10.5040634  97.3208554  91.2892844  11.0578445  97.8772709  92.5837381
  11.4142965  94.1876881  89.1421073  11.4640970  94.0226889  90.0836596
  11.3056889  93.3204140  88.7518954   8.7046728  90.1707809  90.4580380
   9.6056591  90.0314274  90.1664378   8.7794702  90.3362264  91.3978558
   3.0389533  87.5474664  89.3033566   2.1692843  87.8408230  89.0316155
   3.2749014  88.1315109  90.0240830  12.9161162  96.6073823  89.3863095
  12.6245971  96.9703803  90.2226556  12.3033294  95.8940831  89.2076427
  14.1156845  94.1726703  81.9065665  14.9503736  94.6116507  82.0703226
  14.2515973  93.6965356  81.0873911  11.1648350  91.7306438  87.8543153
  11.6402472  91.9234084  87.0462004  10.2413916  91.7865623  87.6086537
   5.7428567  83.7654281  86.8198987   6.2610511  84.5015308  86.4945475
   5.3883700  84.0718274  87.6545746   5.9941161  80.1854564  82.3399883
   6.2742915  79.5177753  82.9660310   6.7791768  80.3783659  81.8274547
   3.7974630  99.3613558  73.9024910   3.2248597  99.9803745  73.4495382
   4.3707423  99.9112919  74.4364832   9.8650019  88.6072198  86.0871459
  10.8167442  88.7070295  86.1083683   9.6953470  87.8150466  86.5969543
   7.8864399  85.6927781  86.2730860   7.2914331  85.9732794  85.5777348
   7.6014096  86.1821682  87.0447601   7.0171889  99.6450708  75.0333492
   7.9502563  99.5796269  75.2366368   6.9295102 100.4806975  74.5748025
   9.6459906  98.9616578  71.9937440   9.5673538  98.6276442  72.8873198
  10.4669573  99.4538346  71.9928912  12.3438097  91.8278317  85.2013758
  12.3114417  90.8894318  85.3873442  12.9538721  91.9062354  84.4679583
   4.1821428  90.6974370  71.2440962   5.1280533  90.5680578  71.3129380
   3.8035673  89.9589032  71.7210390  12.4932586  88.6189361  85.2472041
  11.9771634  87.8347817  85.0601970  13.3772534  88.2908077  85.4118561
  10.1543313  82.3630376  81.2067854   9.9568134  82.0545465  82.0911186
  10.7643018  83.0892015  81.3365784  18.1614647  92.8894324  84.3419795
  18.8918036  92.6279612  84.9027498  17.5521593  92.1523046  84.3821863
  16.2429944  91.0302187  84.9394246  15.5163108  90.8958152  84.3310738
  15.8277231  91.3379015  85.7450964   4.0660121  94.7492116  92.7041619
   4.9863130  94.9270715  92.8981666   4.0309704  93.8048162  92.5521319
   2.3664345  88.6224347  71.1795848   1.4595801  88.3257459  71.2558561
   2.6440326  88.3254165  70.3130134   3.9826411  83.1661236  77.3340089
   3.1727139  82.8208321  77.7095335   4.6710828  82.8568780  77.9227700
   5.9116959  82.2439283  78.9564385   6.4647998  82.6634737  79.6154409
   6.1487046  81.3175031  78.9987341   1.9350059  88.2326357  94.7367149
   1.8346785  89.1820714  94.6679240   1.7171601  87.9044596  93.8643219
   1.1363130  85.4811282  71.3207827   1.9982294  85.8066180  71.5803644
   1.3213474  84.6942778  70.8080892   9.2895766  84.3539808  78.4643050
   8.7094435  85.0124612  78.0821102   9.0231699  83.5317153  78.0530467
   7.7399333  83.7544866  80.6664370   8.2399111  83.8661401  79.8578689
   8.3834941  83.4505919  81.3065178   1.7981329  91.6623496  93.5532211
   1.3148410  92.4623856  93.7596100   1.8842268  91.6731441  92.5999655
   8.0720644  86.5139899  77.5199398   7.1846499  86.7989549  77.3019593
   8.4874633  86.3533662  76.6726675  11.4235181  86.5386420  81.2353737
  12.1995571  87.0282872  81.5078354  10.6983315  86.9644474  81.6925607
  13.8607739  87.2514039  82.2927678  14.4552230  87.0109775  81.5820986
  13.9334323  86.5321170  82.9201214   7.2163858  96.2784573  71.6147418
   7.9199708  96.4834576  72.2305074   6.4926507  96.8461335  71.8796501
   8.0461668  92.0294435  77.7349688   7.9896870  92.4862986  76.8957321
   8.5990011  91.2685119  77.5572531  11.8566474  87.8184167  78.5599808
  11.6003408  87.4180802  79.3908015  11.2319342  88.5327960  78.4349947
  16.1678812  90.5580240  81.0671099  15.6078370  90.6273429  81.8402661
  15.5622315  90.3821224  80.3470595   9.1250555  96.7167103  73.6645878
   9.9596159  96.2848301  73.4823353   8.9634898  96.5449116  74.5922772
   8.7796447  93.2199216  75.0302217   8.7245251  93.0543487  74.0890661
   8.1542503  93.9275249  75.1864407   6.0942355  95.5248128  94.3555780
   6.9633514  95.6988780  93.9942415   5.6149106  96.3442545  94.2331509
   2.0892573  82.7207325  74.6087536   2.0771243  83.6649165  74.7655807
   2.9815995  82.5377470  74.3146997   2.0182137 101.3976215  82.6955292
   1.0677768 101.3978077  82.5819665   2.3214623 100.6508950  82.1791327
   5.9044692  79.3150102  78.8633472   5.1377088  78.7608588  79.0090155
   6.3155397  79.3871970  79.7247624  17.7534830 107.2336754  83.7601055
  18.3913240 107.1143501  83.0564395  17.6355673 108.1817598  83.8189007
  14.5624537 107.1864182  83.6962579  14.2243048 107.0705247  82.8083114
  15.4314305 106.7855347  83.6763586  10.4211352 109.0399658  79.6859470
   9.8576217 108.9489595  78.9175758  10.3063747 108.2199563  80.1661963
  15.0444320 108.3399034  89.6548785  15.0332960 107.9451832  88.7829289
  15.2064959 107.6065106  90.2482556   7.9675784 110.5350850  82.5243691
   8.7597076 110.1941674  82.1089990   8.2072434 110.6445825  83.4445844
  16.0010911 112.7070626  74.9973935  15.3498891 113.2924706  74.6107949
  16.7955274 113.2376821  75.0568973   9.9266538 109.7959763  75.3961070
  10.6997414 109.2488750  75.2573945  10.2791937 110.6604012  75.6075531
  11.7651581 111.1236145  88.6027969  11.4741447 112.0281776  88.4874635
  12.4008565 111.1652673  89.3172039  12.6907788 108.5012994  85.1929329
  13.2871360 108.2769016  84.4786292  12.7482759 107.7597739  85.7954776
  12.2632816 105.9552429  73.0279520  12.5158337 105.4333950  72.2662983
  11.3257375 105.7918575  73.1306203  17.3076099 104.9588208  80.8354263
  18.0939188 104.5407631  80.4844680  17.5714803 105.8634300  81.0035911
  17.4786176 110.3961058  75.5342920  16.8432009 110.4695684  76.2463824
  17.1483583 110.9854657  74.8561999  22.7084526 104.8963441  81.7387241
  23.4409698 104.3262658  81.9725071  21.9523882 104.5085041  82.1793747
  11.9829105 107.8580535  75.2303895  11.8665363 107.1825439  75.8984979
  12.0931365 107.3712909  74.4136048  14.3260646 107.3190682  78.9350584
  13.9618853 106.7921303  79.6463505  15.1827762 106.9289151  78.7617069
  20.2309946  98.6085015  86.1981850  19.8993271  99.4780426  85.9743065
  19.6355560  98.2921299  86.8775880  13.9666133 102.3480582  73.9311932
  14.1340535 103.2160818  74.2982403  13.7763302 102.5107864  73.0073222
  16.7241466 110.8097561  85.5977763  16.4242189 111.7122600  85.4893570
  16.3792525 110.5429744  86.4498916  10.1753947 107.2611358  81.6314467
   9.2504444 107.1287572  81.8392159  10.4238361 108.0405577  82.1284409
  20.1238610 103.3280101  83.2775200  19.2155487 103.2595509  82.9833961
  20.0726205 103.8052046  84.1057025  13.9455354 104.8038239  74.9158599
  13.8254979 105.2495290  75.7544079  13.2507942 105.1523557  74.3572137
   7.5362758 106.9044631  82.4658256   7.6655140 107.1579110  83.3797668
   6.8560210 107.4972339  82.1462911  11.7062246 117.5741881  78.5648730
  11.6286275 118.5249706  78.6437211  11.1023889 117.2287754  79.2223657
  14.1979475 104.7469747  91.2210097  13.4212810 105.3063667  91.2112962
  14.8370038 105.2326530  91.7424967  21.9900256 101.5296539  85.0553074
  21.3474636 101.8229073  84.4092868  21.4855185 101.4149460  85.8606271
  19.6440420 105.2759713  75.7438933  20.5558276 105.5087099  75.5686631
  19.1350067 105.8596757  75.1814012  12.4525848 107.5555200  90.7828064
  13.1940532 108.0940244  90.5062888  11.7462833 108.1821489  90.9399616
  17.9281187 109.6984340  89.3800226  18.3364543 109.2566751  88.6354858
  17.2058449 109.1236968  89.6334419  14.2812257 104.6356947  86.7533783
  15.1273453 105.0596361  86.8968432  14.2210895 103.9790572  87.4472346
  18.2510002 110.2585531  83.1352515  17.6218864 110.4231245  82.4328582
  17.8635664 110.6727141  83.9063479  22.1299234 111.1939969  80.4896878
  21.4450272 111.5738870  79.9393912  22.2143083 111.8035296  81.2228826
  17.4311703 102.2961316  88.4114956  17.1872635 103.0503376  87.8749232
  17.7071633 102.6746663  89.2462203  19.3850166 108.8399928  87.0892222
  19.5967061 109.4831688  86.4126603  19.3379914 108.0062245  86.6214152
  16.9876394 101.4517749  83.9928794  16.1260874 101.7499002  84.2845532
  17.0138829 101.6688148  83.0609827  13.8037964 109.9959939  80.4002600
  14.2676309 110.2747642  79.6107222  13.5394762 109.0943384  80.2175690
  10.6962045 109.5431421  83.3382363  11.2663402 109.9718689  82.6999847
  11.2870157 109.2614005  84.0366549  12.7406850 106.1183092  77.2092165
  13.4430893 106.5704135  77.6766091  12.4087478 105.4766910  77.8372058
  11.1887211 104.7094848  91.5843374  10.5585872 105.3911129  91.8178771
  11.0823299 104.5977930  90.6396512   6.4832184 104.3766644  82.5109298
   5.6931238 104.6324173  82.0349409   6.9743431 105.1914982  82.6161339
  20.4995993 111.7171883  85.2614579  21.3213437 111.3152071  84.9797261
  20.4958396 111.6140118  86.2130695   8.4346929 104.7411223  79.4692775
   7.6378093 104.8529918  79.9876271   8.2072522 105.0797876  78.6033666
  14.2652597 111.2655927  87.4175290  14.3297029 111.7276334  88.2533462
  13.5563521 110.6353292  87.5457600   4.7669887 104.6297135  84.9424289
   5.0177925 105.5144145  85.2081865   5.3029435 104.4501736  84.1699381
  28.5901987 108.0610632  81.6099551  27.8365695 107.4918030  81.4543555
  28.7249528 108.0273296  82.5570185  13.9800615 112.9324034  77.2854270
  13.8446289 113.7775570  77.7139118  14.5210427 113.1343312  76.5220204
  10.4667954  99.0115614  93.9468625  10.0734900  98.4581813  94.6216270
  11.2834095  99.3226193  94.3375143   7.4330012 110.4499472  77.8582195
   7.9454533 111.2442722  78.0087760   8.0852725 109.7525763  77.7915797
   9.2424897 113.5665228  79.9404948   9.4191525 114.4883193  79.7525932
  10.0381730 113.2523648  80.3699328  13.3835915 100.4273493  91.5388882
  14.1245629 101.0280646  91.4593344  13.6153838  99.6851131  90.9806924
   8.5277253 105.6129860  89.8167112   8.4130768 104.7115118  90.1174210
   7.6721771 105.8593557  89.4651928  15.6069091 113.5547601  91.4154612
  15.1632945 112.7683979  91.0975517  16.2686305 113.7426751  90.7498503
  10.3656212 115.0843402  85.9415291  10.9163637 114.9560466  85.1692285
   9.5267688 115.3838291  85.5910183  17.7050329 113.8350401  89.4436013
  17.6868804 114.6559282  88.9516283  18.6270249 113.7104476  89.6686155
  14.1623383 111.3494530  90.2859522  14.6951720 110.5882818  90.0558830
  13.6337464 111.0568182  91.0283676  17.3293078  96.4554596  85.8153164
  16.9857348  97.3456238  85.7392274  17.6972041  96.2656254  84.9522749
   5.3978929 108.7788127  78.6341766   6.2354151 109.1885135  78.4175473
   5.5757196 107.8387569  78.6041960  17.2943361 106.4463207  74.3225599
  16.7789984 107.2167812  74.5613986  17.0220669 105.7728343  74.9458660
  14.8790472 101.2912908  79.3810837  14.0232068 100.9019758  79.2016476
  15.2917424 101.3704869  78.5210623  16.4089619  98.8259251  83.7802397
  15.9054414  98.7889386  82.9670202  16.7020225  99.7351994  83.8399053
  12.6532504  98.9097981  82.7868579  13.5185501  98.7140790  82.4274468
  12.7210013  98.6808333  83.7137935  22.2677635 109.1995562  76.2578772
  21.4907078 108.8606721  75.8133934  22.9469116 109.2048185  75.5833737
  17.0829664 104.3190299  76.1485380  16.7779800 104.6336448  76.9995523
  18.0360106 104.3971719  76.1912713  15.5276096 110.4780523  77.7978334
  14.9997457 109.7433282  77.4851571  15.0263599 111.2555199  77.5518302
  20.5068942 108.6729543  82.9145380  19.8492616 109.3628804  83.0025509
  21.3109341 109.0625975  83.2579366  10.2594824 101.1400189  80.1584945
  10.8338575 100.9175370  79.4258138  10.8465806 101.2088883  80.9113547
  19.3174401 107.0273916  80.9649322  19.8306282 107.6603908  81.4671032
  19.9675625 106.4275111  80.5992682  10.5864411 103.1704650  74.1780831
   9.7501723 103.5079336  74.4990105  10.4469180 103.0353630  73.2407968
  12.5617491  98.0141438  78.8860015  11.9081904  97.6990455  78.2616630
  12.5197965  97.3917178  79.6119838  13.6728696 108.2960733  70.8013307
  12.7655758 108.0649986  71.0004456  14.1699728 107.4998352  70.9887288
  16.5796775 117.0058240  73.7209993  15.9058474 117.3089937  74.3294951
  16.9662597 117.8087320  73.3715450  15.7955232 104.5023371  83.2107662
  14.8777793 104.7238318  83.0529350  16.2115375 104.5769682  82.3519370
  16.5790279 105.9014787  78.3410343  17.3262098 106.4136184  78.0317465
  16.8481869 105.5798840  79.2014736  14.8516930 108.3973328  75.3237297
  13.9428149 108.1132361  75.4209767  14.8812013 108.8172406  74.4640604
  20.0836197 112.0079917  79.0928464  19.6298524 111.1670827  79.1493655
  19.4530164 112.6441316  79.4303245  19.0269116 102.9371903  80.3229132
  18.2891873 102.4249289  80.6539374  19.2795890 102.4972285  79.5112409
  18.5269136 113.8456414  80.0278283  18.8192111 114.4061471  79.3090648
  19.0367757 114.1384975  80.7831442  19.1280744  95.7148155  80.9170901
  19.4339621  94.8545519  80.6296816  19.8533349  96.3065775  80.7169895
   5.4205100 106.1178842  79.3052499   5.2229500 105.5248203  78.5803566
   4.8651764 105.8131052  80.0228438  13.4001824 106.0101948  81.4247092
  13.4550433 105.0575785  81.3489569  12.5893026 106.1661387  81.9088391
  14.5493017 109.9382071  72.6625375  14.1112447 109.2217930  72.2031013
  15.2903458 110.1658186  72.1010467  11.3394183 104.6279008  79.1837471
  10.5262049 104.9273179  79.5902663  11.8353178 104.2334697  79.9011953
  13.4902761 114.6236765  81.1171736  13.4478940 114.8497611  80.1880268
  14.4065460 114.3900140  81.2657537  16.9368395 105.0920833  88.0152365
  17.2917783 105.3192306  88.8746831  17.5840526 105.4239209  87.3929620
  22.6666132 108.2139268  78.7201694  22.5284031 108.4040864  77.7922883
  22.3102351 108.9758651  79.1769745  10.8308258 102.1997364  84.7998706
  11.4707638 102.0586123  84.1021669   9.9985789 101.9131877  84.4237308
  22.6935512 110.2815795  83.7312966  23.1272018 110.1891085  84.5796020
  23.4067092 110.2573296  83.0932982  11.6068562 111.4999794  80.9133699
  12.4009161 111.0050114  80.7116274  10.8960255 110.9717657  80.5501404
  16.4263407 113.8817890  85.2646066  16.4800429 114.4508826  86.0323782
  15.5578188 114.0519775  84.9000103   7.9151326 105.6442876  76.9893451
   6.9848914 105.5827331  77.2063413   8.0108798 105.1218828  76.1930092
   7.8336875 102.1697689  79.5771693   8.0943692 103.0843022  79.4680853
   8.6554047 101.7022131  79.7268306   9.3061800 103.5835446  86.7470517
   9.9784853 103.3752808  86.0983166   8.4791587 103.3857532  86.3075750
  23.5551061 110.3239496  86.2645851  23.7486951 111.2285307  86.5105126
  23.4551679 109.8646915  87.0984436  15.2087372 100.2097387  88.7636178
  14.5615287 100.9087336  88.6700655  15.9788387 100.6433531  89.1312426
  18.6166170 110.4746239  91.8386732  18.4651676 110.2456791  90.9216815
  18.6070849 111.4316840  91.8518077  15.3851506 108.0478152  86.8232998
  16.3143566 108.1989311  86.6501965  14.9642536 108.1362172  85.9681645
  14.1839838 112.0728816  84.5931536  14.0450924 111.7047600  85.4657474
  13.3954434 112.5876455  84.4215493  14.7787990 117.1737912  75.9357072
  14.9539746 116.7025956  76.7502695  14.0920778 117.8003679  76.1638333
  15.7345053 111.4510419  81.9820373  15.3994886 111.4111189  82.8778023
  15.2348999 110.7855135  81.5090784   9.7089297 106.8578049  87.5072955
   9.5709095 106.1258288  88.1084494  10.6194221 106.7686949  87.2257142
  18.6704245 108.7966453  72.2557433  18.0533416 108.0713281  72.1590486
  18.2020733 109.5575813  71.9124507  12.3371598 106.5698008  86.9956634
  13.0471216 105.9291200  86.9543253  12.2940906 106.8210903  87.9182815
  20.3258377 113.5065361  89.9163213  20.2670923 112.8224582  89.2493796
  20.7277895 114.2484351  89.4643839  11.0500532 103.5563226  88.8152274
  10.5137889 103.1053964  89.4673870  10.4617240 103.6909135  88.0722738
  10.4602791 103.0151877  71.3778737   9.5832257 102.8940678  71.0140984
  10.9360544 102.2237956  71.1257626  20.3275784 111.4704945  88.1477193
  19.4402563 111.1330867  88.2703592  20.8974335 110.7387977  88.3845959
   1.9804931 107.8029037  81.4720244   2.6675971 107.4890767  80.8841260
   1.8253060 108.7070402  81.1987496   6.7839653 102.6919234  85.9005268
   6.6997842 102.0844903  85.1655678   5.9622360 103.1828252  85.9014765
  13.8576937 116.1306398  85.1138436  13.7847109 116.9361369  85.6257741
  13.4154330 116.3298363  84.2886458  13.6466717 115.3678168  78.6241258
  12.8634239 115.9099848  78.7179482  14.3459462 115.8852147  79.0235499
  16.9563367 101.1772797  81.2675463  17.4532067 100.4242759  80.9476533
  16.1850348 101.2137114  80.7018673  24.8093124 106.8813163  82.9093755
  24.7983001 107.7637878  82.5387688  23.9410504 106.5284714  82.7148292
  16.3175621 116.0293232  87.2696595  17.0303593 116.6640697  87.1972496
  15.8265649 116.1257098  86.4536597  18.0393148 109.9344484  78.8413887
  17.1049426 110.0545947  78.6718591  18.2169816 109.0316951  78.5773896
  13.5398336 103.3190180  80.9947148  13.1696123 102.7661221  81.6828053
  14.0357428 102.7148314  80.4422148  21.4265699 105.7761804  79.3763921
  21.8926151 106.6089795  79.3024223  21.8773200 105.3106785  80.0809179
  11.3687534 113.7787675  88.0902166  12.0696994 114.4124158  88.2431560
  10.8982649 114.1202407  87.3297805  19.4941930 112.1205625  76.3750073
  19.7701774 112.0062220  77.2843947  18.6246429 111.7223110  76.3362246
  19.3982362  98.1442391  83.4154822  18.4845442  98.3746617  83.5837029
  19.8275463  98.2280835  84.2668854  19.1688820 106.3332283  85.9154716
  18.5160271 106.5808190  85.2607169  19.5469200 105.5196421  85.5817193
  16.1295994 116.3691976  80.0182886  16.3118389 115.5513632  80.4810639
  16.9528980 116.5859668  79.5807776  16.4638160 115.2960161  77.2797935
  16.9925926 114.7852616  76.6668097  16.7266379 114.9802691  78.1443468
  15.2176393 107.0752094  92.4020753  14.5417030 106.9746223  93.0723128
  16.0404027 106.9191307  92.8656750   6.9655252 113.3124030  85.0233268
   7.5508689 112.5667718  85.1561173   6.7680091 113.6227987  85.9069932
   9.8193908 116.3475278  80.0395711   9.1504283 116.8321405  79.5559751
   9.6806777 116.5944498  80.9539089   1.5572907 105.8829630  83.7437712
   1.5957007 105.3493221  84.5374830   1.0513200 105.3564836  83.1248689
  13.9599176 118.3819021  86.6378369  14.5117484 118.5450643  87.4027454
  14.3005370 118.9723459  85.9658394   8.9363669 100.7294171  87.2400254
   9.0004996 101.5909002  86.8277652   8.8730790 100.1168173  86.5072612
   8.4115942 102.8017303  90.8873288   9.0387981 102.4194381  91.5010813
   7.5543861 102.5831505  91.2528981  18.8110050 113.2080279  92.4927024
  19.3549954 113.8210237  91.9981978  18.2296895 113.7659857  93.0094037
   5.1881485 104.6093733  76.8191643   5.4834926 103.7004411  76.7658697
   4.2869520 104.5881472  76.4972645  17.0967563 116.3300997  83.6242051
  16.9718703 115.5290736  83.1152997  17.7546655 116.8247190  83.1356021
   8.7175732 102.6849729  82.8019192   7.9962317 103.2985697  82.6626665
   9.5068987 103.2207494  82.7235838  19.1602472 114.1310017  85.2521601
  18.2132807 114.0115368  85.1799928  19.5085245 113.2432515  85.3347863
  11.5202045 100.0204156  89.0759843  12.0436447 100.2666452  89.8386153
  11.3014378 100.8524190  88.6562981   6.9169326 102.2907830  76.9430968
   6.5882032 101.4105209  76.7606074   7.2708697 102.2355499  77.8307357
  16.1648905 113.9262733  81.4525954  16.0173868 112.9979440  81.6333524
  16.9902399 113.9482824  80.9683029  10.0311149 102.5780800  77.3106446
  10.3707222 103.1066721  76.5885054  10.4783270 102.9161206  78.0865012
  19.7683027 114.7491292  82.5390826  20.6929574 114.5434153  82.4015278
  19.5998330 114.5007693  83.4480168  12.7254590 100.9617851  86.7609514
  12.3851411 100.1625664  87.1630194  12.0193597 101.2619562  86.1886347
  13.3771062  98.0467163  85.2136837  14.1997131  97.5727641  85.0915727
  13.6209126  98.8257647  85.7135523  12.0179297 101.0755422  75.5099739
  12.7387659 101.4536674  75.0063455  11.3944601 101.7944298  75.6134717
  16.1610419 101.7800571  76.4458071  16.3774034 102.6625208  76.1446899
  15.6804487 101.3886784  75.7163713  10.9009641 104.7386284  83.0228816
  10.7554222 105.0526587  83.9153097  10.4234844 105.3571184  82.4699714
  12.7606024 101.7288832  83.0709705  12.7467592 100.8329925  82.7342003
  13.4778452 101.7359496  83.7047991  14.6132154 102.1626172  85.1162833
  14.3549932 103.0843243  85.1147163  14.0817195 101.7656607  85.8063297
  19.5578343 115.2676959  77.8952918  19.7315221 114.7023382  77.1426770
  20.0507234 116.0677854  77.7132408   5.3755303 107.2791628  85.9616477
   4.8308771 108.0551436  86.0936751   6.2534653 107.6262433  85.8035598
  12.1642920 100.6103212  78.3397275  12.2858831  99.6819858  78.5388163
  11.8744962 100.6241898  77.4275591  15.0334110  98.2958123  81.4763995
  15.0555807  98.3597456  80.5215975  15.4502169  97.4562631  81.6704501
  25.4117734 108.0313382  79.5143218  25.8548880 107.2820707  79.1162341
  24.5344245 108.0223518  79.1316950  20.5453516 114.5843724  74.9949816
  21.2404420 115.2050416  75.2137131  20.8876666 113.7339075  75.2702194
   6.1621325 106.4061524  88.8546634   5.4203061 106.5544160  89.4411264
   5.8414069 106.6669790  87.9913383  22.4444939 112.0343429  76.5237147
  22.9696263 112.3730702  75.7986467  22.3567291 111.0990444  76.3400282
  14.1064987 115.9477503  88.6527024  14.4152114 115.7026649  89.5249723
  14.9040470 116.1524141  88.1645894  14.1285600 118.1015412  80.8832400
  13.6890590 117.6091791  81.5765257  14.8793716 117.5588380  80.6424475
   6.6077939 114.2926953  80.8857028   7.4335958 113.9930725  80.5055672
   6.2571991 113.5234576  81.3346817  11.5759472 113.6453421  82.9554702
  10.9539481 112.9824126  82.6556930  12.2464339 113.6714553  82.2728350
   4.8086544 112.2113280  81.8445962   3.9718452 111.7835454  81.6629963
   4.7810189 112.4045723  82.7816753  11.6483999 102.1235209  92.5487208
  11.6972155 102.9997332  92.1664977  12.1906513 101.5812602  91.9758851
  22.1338845 112.6676333  91.8288345  21.3434389 112.6500472  91.2892844
  21.8972199 113.2064626  92.5837381  22.2536720 109.5168799  89.1421073
  22.3034725 109.3518807  90.0836596  22.1450643 108.6496058  88.7518954
  11.1372979 112.1957345  76.4313162  11.2861099 112.8792809  75.7779835
  11.9439422 112.1762435  76.9462618  19.5440482 105.4999727  90.4580380
  20.4450345 105.3606192  90.1664378  19.6188457 105.6654182  91.3978558
  13.8783288 102.8766582  89.3033566  13.0086597 103.1700148  89.0316155
  14.1142768 103.4607027  90.0240830  23.7554917 111.9365741  89.3863095
  23.4639725 112.2995721  90.2226556  23.1427048 111.2232749  89.2076427
  24.9550599 109.5018620  81.9065665  25.7897490 109.9408424  82.0703226
  25.0909728 109.0257274  81.0873911  22.0042105 107.0598355  87.8543153
  22.4796227 107.2526002  87.0462004  21.0807670 107.1157541  87.6086537
   8.8925612 108.2222522  77.4374231   8.6471654 107.3184852  77.6354441
   9.0621526 108.2239673  76.4953709  16.5822321  99.0946199  86.8198987
  17.1004265  99.8307226  86.4945475  16.2277454  99.4010192  87.6545746
   8.1621259 103.9550880  74.9360393   7.4690504 104.0295235  74.2800429
   7.9173011 103.1911224  75.4581910  16.8334916  95.5146481  82.3399883
  17.1136669  94.8469670  82.9660310  17.6185523  95.7075577  81.8274547
  14.6368384 114.6905475  73.9024910  14.0642351 115.3095662  73.4495382
  15.2101178 115.2404837  74.4364832  20.7043774 103.9364115  86.0871459
  21.6561197 104.0362213  86.1083683  20.5347224 103.1442384  86.5969543
  18.7258153 101.0219699  86.2730860  18.1308086 101.3024711  85.5777348
  18.4407850 101.5113599  87.0447601  17.8565644 114.9742625  75.0333492
  18.7896317 114.9088187  75.2366368  17.7688857 115.8098892  74.5748025
  20.4853661 114.2908496  71.9937440  20.4067292 113.9568359  72.8873198
  21.3063327 114.7830264  71.9928912  23.1831852 107.1570235  85.2013758
  23.1508172 106.2186236  85.3873442  23.7932475 107.2354272  84.4679583
  15.0215183 106.0266288  71.2440962  15.9674287 105.8972496  71.3129380
  14.6429428 105.2880950  71.7210390  23.3326340 103.9481278  85.2472041
  22.8165389 103.1639735  85.0601970  24.2166289 103.6199995  85.4118561
  20.9937067  97.6922294  81.2067854  20.7961888  97.3837382  82.0911186
  21.6036773  98.4183933  81.3365784  29.0008402 108.2186242  84.3419795
  29.7311790 107.9571530  84.9027498  28.3915347 107.4814964  84.3821863
  27.0823699 106.3594104  84.9394246  26.3556862 106.2250069  84.3310738
  26.6670986 106.6670933  85.7450964  14.9053875 110.0784034  92.7041619
  15.8256885 110.2562633  92.8981666  14.8703458 109.1340079  92.5521319
  13.2058100 103.9516264  71.1795848  12.2989555 103.6549377  71.2558561
  13.4834081 103.6546082  70.3130134   4.1236040 105.2722628  81.6294894
   3.8038825 104.4187936  81.3369268   3.5769468 105.4871206  82.3852861
   7.9015948 107.9885069  85.3464400   8.1201957 108.9202177  85.3652434
   8.3141722 107.6293043  86.1319204  14.8220166  98.4953154  77.3340089
  14.0120894  98.1500239  77.7095335  15.5104582  98.1860698  77.9227700
  16.7510714  97.5731201  78.9564385  17.3041752  97.9926654  79.6154409
  16.9880800  96.6466949  78.9987341  12.7743813 103.5618275  94.7367149
  12.6740540 104.5112631  94.6679240  12.5565355 103.2336513  93.8643219
  11.9756884 100.8103200  71.3207827  12.8376048 101.1358098  71.5803644
  12.1607229 100.0234695  70.8080892   3.9924300 108.8925539  83.5988015
   3.2987772 108.4779492  83.0857970   4.7397291 108.9346076  83.0021434
  20.1289521  99.6831726  78.4643050  19.5488190 100.3416530  78.0821102
  19.8625454  98.8609071  78.0530467  18.5793087  99.0836784  80.6664370
  19.0792866  99.1953318  79.8578689  19.2228695  98.7797837  81.3065178
  12.6375083 106.9915413  93.5532211  12.1542165 107.7915773  93.7596100
  12.7236022 107.0023358  92.5999655   5.9061043 108.8243793  81.4754030
   5.8831731 108.9231480  80.5235913   6.2161679 109.6708944  81.7971196
   8.5648421 110.8819948  85.5900645   9.5191674 110.8503890  85.5230576
   8.3660944 110.4210572  86.4050871   9.1547803 109.4521064  88.1571442
   9.9740692 109.9465143  88.1806280   9.4284610 108.5353032  88.1289010
  18.9114399 101.8431816  77.5199398  18.0240254 102.1281467  77.3019593
  19.3268388 101.6825580  76.6726675  22.2628935 101.8678337  81.2353737
  23.0389325 102.3574790  81.5078354  21.5377069 102.2936392  81.6925607
  24.7001494 102.5805957  82.2927678  25.2945984 102.3401693  81.5820986
  24.7728077 101.8613087  82.9201214   6.9198649 116.4239568  82.6070843
   6.7853117 115.6639968  82.0408841   6.5030712 117.1480467  82.1399632
  18.0557612 111.6076491  71.6147418  18.7593462 111.8126494  72.2305074
  17.3320261 112.1753253  71.8796501  18.8855423 107.3586352  77.7349688
  18.8290624 107.8154904  76.8957321  19.4383765 106.5977037  77.5572531
  22.6960229 103.1476084  78.5599808  22.4397163 102.7472720  79.3908015
  22.0713097 103.8619878  78.4349947  27.0072566 105.8872157  81.0671099
  26.4472124 105.9565347  81.8402661  26.4016070 105.7113142  80.3470595
  10.0767775 117.3208885  82.8189285   9.9600159 118.2654317  82.7167976
   9.2560222 117.0182446  83.2075084  19.9644310 112.0459020  73.6645878
  20.7989914 111.6140219  73.4823353  19.8028653 111.8741034  74.5922772
  19.6190202 108.5491134  75.0302217  19.5639006 108.3835405  74.0890661
  18.9936257 109.2567167  75.1864407   4.4082717 103.7859198  88.8563640
   5.0541581 103.2758152  89.3450865   4.1999868 104.5227880  89.4307065
  16.9336109 110.8540045  94.3555780  17.8027269 111.0280698  93.9942415
  16.4542861 111.6734462  94.2331509  12.9286327  98.0499243  74.6087536
  12.9164997  98.9941083  74.7655807  13.8209749  97.8669388  74.3146997
  11.1022289 117.9737146  86.0345214  12.0049536 118.0060757  86.3511709
  10.8759659 117.0437597  86.0491550  12.8575891 116.7268133  82.6955292
  11.9071522 116.7269995  82.5819665  13.1608378 115.9800868  82.1791327
  16.7438447  94.6442019  78.8633472  15.9770843  94.0900506  79.0090155
  17.1549152  94.7163888  79.7247624   8.7480208 100.9326815  92.9538654
   9.6111669 100.5763620  93.1641978   8.1745619 100.5940710  93.6414058
  28.5928585 122.5628671  83.7601055  29.2306995 122.4435419  83.0564395
  28.4749428 123.5109515  83.8189007  25.4018291 122.5156100  83.6962579
  25.0636803 122.3997164  82.8083114  26.2708059 122.1147265  83.6763586
  21.2605107 124.3691576  79.6859470  20.6969972 124.2781513  78.9175758
  21.1457502 123.5491480  80.1661963  25.8838074 123.6690951  89.6548785
  25.8726715 123.2743750  88.7829289  26.0458714 122.9357024  90.2482556
  23.5301542 123.8304912  85.1929329  24.1265114 123.6060934  84.4786292
  23.5876514 123.0889657  85.7954776  23.1026571 121.2844347  73.0279520
  23.3552091 120.7625868  72.2662983  22.1651130 121.1210492  73.1306203
  28.1469853 120.2880125  80.8354263  28.9332943 119.8699548  80.4844680
  28.4108558 121.1926217  81.0035911  28.3179931 125.7252976  75.5342920
  27.6825764 125.7987602  76.2463824  27.9877337 126.3146574  74.8561999
  33.5478280 120.2255358  81.7387241  34.2803452 119.6554575  81.9725071
  32.7917636 119.8376959  82.1793747  22.8222859 123.1872453  75.2303895
  22.7059117 122.5117356  75.8984979  22.9325119 122.7004827  74.4136048
  25.1654400 122.6482600  78.9350584  24.8012607 122.1213221  79.6463505
  26.0221516 122.2581069  78.7617069  31.0703701 113.9376933  86.1981850
  30.7387026 114.8072344  85.9743065  30.4749314 113.6213217  86.8775880
  24.8059887 117.6772500  73.9311932  24.9734290 118.5452736  74.2982403
  24.6157056 117.8399781  73.0073222  27.5635220 126.1389479  85.5977763
  27.2635943 127.0414517  85.4893570  27.2186280 125.8721662  86.4498916
  21.0147702 122.5903275  81.6314467  20.0898198 122.4579489  81.8392159
  21.2632115 123.3697495  82.1284409  30.9632364 118.6572019  83.2775200
  30.0549241 118.5887427  82.9833961  30.9119960 119.1343964  84.1057025
  24.7849108 120.1330157  74.9158599  24.6648733 120.5787208  75.7544079
  24.0901696 120.4815475  74.3572137  18.3756513 122.2336549  82.4658256
  18.5048894 122.4871028  83.3797668  17.6953964 122.8264257  82.1462911
  25.0373230 120.0761664  91.2210097  24.2606564 120.6355584  91.2112962
  25.6763793 120.5618447  91.7424967  32.8294011 116.8588457  85.0553074
  32.1868391 117.1520990  84.4092868  32.3248939 116.7441377  85.8606271
  30.4834174 120.6051630  75.7438933  31.3952030 120.8379017  75.5686631
  29.9743821 121.1888675  75.1814012  23.2919602 122.8847118  90.7828064
  24.0334287 123.4232162  90.5062888  22.5856588 123.5113406  90.9399616
  28.7674942 125.0276258  89.3800226  29.1758298 124.5858669  88.6354858
  28.0452203 124.4528886  89.6334419  25.1206012 119.9648865  86.7533783
  25.9667207 120.3888278  86.8968432  25.0604650 119.3082489  87.4472346
  29.0903757 125.5877449  83.1352515  28.4612619 125.7523163  82.4328582
  28.7029419 126.0019058  83.9063479  32.9692988 126.5231887  80.4896878
  32.2844027 126.9030788  79.9393912  33.0536838 127.1327213  81.2228826
  28.2705457 117.6253233  88.4114956  28.0266389 118.3795294  87.8749232
  28.5465388 118.0038581  89.2462203  30.2243920 124.1691846  87.0892222
  30.4360815 124.8123606  86.4126603  30.1773668 123.3354162  86.6214152
  27.8270149 116.7809666  83.9928794  26.9654628 117.0790920  84.2845532
  27.8532584 116.9980065  83.0609827  24.6431718 125.3251857  80.4002600
  25.1070064 125.6039560  79.6107222  24.3788517 124.4235301  80.2175690
  23.5800604 121.4475009  77.2092165  24.2824648 121.8996053  77.6766091
  23.2481233 120.8058828  77.8372058  22.0280966 120.0386766  91.5843374
  21.3979627 120.7203047  91.8178771  21.9217054 119.9269847  90.6396512
  17.3225938 119.7058562  82.5109298  16.5324992 119.9616090  82.0349409
  17.8137186 120.5206900  82.6161339  31.3389748 127.0463801  85.2614579
  32.1607192 126.6443988  84.9797261  31.3352151 126.9432035  86.2130695
  19.2740684 120.0703141  79.4692775  18.4771847 120.1821835  79.9876271
  19.0466276 120.4089793  78.6033666  15.6063641 119.9589052  84.9424289
  15.8571680 120.8436062  85.2081865  16.1423190 119.7793654  84.1699381
  39.4295741 123.3902550  81.6099551  38.6759449 122.8209948  81.4543555
  39.5643282 123.3565214  82.5570185  21.3061709 114.3407532  93.9468625
  20.9128654 113.7873730  94.6216270  22.1227849 114.6518110  94.3375143
  24.2229670 115.7565411  91.5388882  24.9639383 116.3572564  91.4593344
  24.4547593 115.0143049  90.9806924  19.3671008 120.9421778  89.8167112
  19.2524523 120.0407035  90.1174210  18.5115525 121.1885475  89.4651928
  28.1686833 111.7846514  85.8153164  27.8251102 112.6748155  85.7392274
  28.5365795 111.5948171  84.9522749  28.1337115 121.7755125  74.3225599
  27.6183739 122.5459729  74.5613986  27.8614424 121.1020261  74.9458660
  25.7184226 116.6204826  79.3810837  24.8625823 116.2311676  79.2016476
  26.1311178 116.6996786  78.5210623  27.2483373 114.1551169  83.7802397
  26.7448169 114.1181304  82.9670202  27.5413980 115.0643912  83.8399053
  23.4926259 114.2389899  82.7868579  24.3579256 114.0432707  82.4274468
  23.5603768 114.0100250  83.7137935  33.1071389 124.5287479  76.2578772
  32.3300832 124.1898639  75.8133934  33.7862870 124.5340103  75.5833737
  27.9223419 119.6482217  76.1485380  27.6173554 119.9628366  76.9995523
  28.8753861 119.7263637  76.1912713  31.3462696 124.0021461  82.9145380
  30.6886371 124.6920722  83.0025509  32.1503096 124.3917893  83.2579366
  21.0988578 116.4692107  80.1584945  21.6732330 116.2467288  79.4258138
  21.6859560 116.5380801  80.9113547  30.1568155 122.3565833  80.9649322
  30.6700037 122.9895825  81.4671032  30.8069379 121.7567029  80.5992682
  21.4258165 118.4996568  74.1780831  20.5895477 118.8371254  74.4990105
  21.2862935 118.3645547  73.2407968  23.4011246 113.3433355  78.8860015
  22.7475658 113.0282373  78.2616630  23.3591720 112.7209096  79.6119838
  24.5122451 123.6252651  70.8013307  23.6049512 123.3941904  71.0004456
  25.0093483 122.8290270  70.9887288  26.6348986 119.8315289  83.2107662
  25.7171547 120.0530236  83.0529350  27.0509130 119.9061599  82.3519370
  27.4184034 121.2306705  78.3410343  28.1655853 121.7428102  78.0317465
  27.6875623 120.9090757  79.2014736  25.6910684 123.7265245  75.3237297
  24.7821903 123.4424278  75.4209767  25.7205768 124.1464324  74.4640604
  30.9229951 127.3371835  79.0928464  30.4692279 126.4962745  79.1493655
  30.2923918 127.9733233  79.4303245  29.8662871 118.2663821  80.3229132
  29.1285628 117.7541207  80.6539374  30.1189645 117.8264203  79.5112409
  29.9674498 111.0440073  80.9170901  30.2733375 110.1837436  80.6296816
  30.6927103 111.6357693  80.7169895  16.2598854 121.4470760  79.3052499
  16.0623254 120.8540120  78.5803566  15.7045518 121.1422970  80.0228438
  24.2395578 121.3393866  81.4247092  24.2944188 120.3867702  81.3489569
  23.4286780 121.4953305  81.9088391  25.3886772 125.2673989  72.6625375
  24.9506202 124.5509848  72.2031013  26.1297213 125.4950104  72.1010467
  22.1787938 119.9570926  79.1837471  21.3655803 120.2565096  79.5902663
  22.6746932 119.5626615  79.9011953  27.7762150 120.4212750  88.0152365
  28.1311537 120.6484223  88.8746831  28.4234281 120.7531127  87.3929620
  33.5059887 123.5431186  78.7201694  33.3677785 123.7332782  77.7922883
  33.1496105 124.3050569  79.1769745  21.6702013 117.5289281  84.7998706
  22.3101392 117.3878040  84.1021669  20.8379543 117.2423795  84.4237308
  33.5329266 125.6107713  83.7312966  33.9665773 125.5183002  84.5796020
  34.2460847 125.5865214  83.0932982  18.7545080 120.9734793  76.9893451
  17.8242668 120.9119249  77.2063413  18.8502552 120.4510746  76.1930092
  18.6730629 117.4989606  79.5771693  18.9337446 118.4134939  79.4680853
  19.4947801 117.0314049  79.7268306  20.1455554 118.9127363  86.7470517
  20.8178608 118.7044726  86.0983166  19.3185341 118.7149449  86.3075750
  34.3944816 125.6531414  86.2645851  34.5880706 126.5577224  86.5105126
  34.2945434 125.1938833  87.0984436  26.0481126 115.5389304  88.7636178
  25.4009042 116.2379254  88.6700655  26.8182142 115.9725448  89.1312426
  29.4559924 125.8038157  91.8386732  29.3045431 125.5748708  90.9216815
  29.4464604 126.7608758  91.8518077  26.2245261 123.3770069  86.8232998
  27.1537321 123.5281229  86.6501965  25.8036291 123.4654090  85.9681645
  20.5483052 122.1869966  87.5072955  20.4102850 121.4550205  88.1084494
  21.4587975 122.0978866  87.2257142  29.5097999 124.1258371  72.2557433
  28.8927170 123.4005199  72.1590486  29.0414488 124.8867731  71.9124507
  23.1765352 121.8989926  86.9956634  23.8864971 121.2583118  86.9543253
  23.1334661 122.1502821  87.9182815  21.8894286 118.8855144  88.8152274
  21.3531643 118.4345882  89.4673870  21.3010995 119.0201052  88.0722738
  21.2996545 118.3443795  71.3778737  20.4226012 118.2232596  71.0140984
  21.7754298 117.5529873  71.1257626  31.1669538 126.7996863  88.1477193
  30.2796317 126.4622785  88.2703592  31.7368089 126.0679894  88.3845959
  17.6233408 118.0211151  85.9005268  17.5391596 117.4136821  85.1655678
  16.8016114 118.5120170  85.9014765  27.7957121 116.5064715  81.2675463
  28.2925821 115.7534677  80.9476533  27.0244103 116.5429031  80.7018673
  35.6486879 122.2105080  82.9093755  35.6376755 123.0929796  82.5387688
  34.7804258 121.8576631  82.7148292  28.8786902 125.2636402  78.8413887
  27.9443181 125.3837865  78.6718591  29.0563571 124.3608869  78.5773896
  24.3792090 118.6482098  80.9947148  24.0089878 118.0953138  81.6828053
  24.8751183 118.0440231  80.4422148  32.2659454 121.1053721  79.3763921
  32.7319906 121.9381713  79.3024223  32.7166954 120.6398703  80.0809179
  30.3335685 127.4497543  76.3750073  30.6095529 127.3354137  77.2843947
  29.4640183 127.0515027  76.3362246  30.2376116 113.4734308  83.4154822
  29.3239196 113.7038535  83.5837029  30.6669218 113.5572752  84.2668854
  30.0082575 121.6624200  85.9154716  29.3554025 121.9100108  85.2607169
  30.3862955 120.8488338  85.5817193  26.0570148 122.4044011  92.4020753
  25.3810785 122.3038141  93.0723128  26.8797782 122.2483225  92.8656750
  12.3966662 121.2121548  83.7437712  12.4350761 120.6785139  84.5374830
  11.8906954 120.6856754  83.1248689  19.7757424 116.0586089  87.2400254
  19.8398750 116.9200919  86.8277652  19.7124544 115.4460090  86.5072612
  19.2509696 118.1309221  90.8873288  19.8781735 117.7486298  91.5010813
  18.3937615 117.9123423  91.2528981  16.0275239 119.9385650  76.8191643
  16.3228680 119.0296329  76.7658697  15.1263275 119.9173390  76.4972645
  19.5569486 118.0141647  82.8019192  18.8356072 118.6277615  82.6626665
  20.3462742 118.5499412  82.7235838  22.3595800 115.3496073  89.0759843
  22.8830202 115.5958370  89.8386153  22.1408133 116.1816108  88.6562981
  17.7563081 117.6199748  76.9430968  17.4275787 116.7397127  76.7606074
  18.1102451 117.5647417  77.8307357  20.8704904 117.9072718  77.3106446
  21.2100976 118.4358639  76.5885054  21.3177024 118.2453124  78.0865012
  23.5648345 116.2909768  86.7609514  23.2245165 115.4917581  87.1630194
  22.8587351 116.5911479  86.1886347  24.2164817 113.3759081  85.2136837
  25.0390886 112.9019559  85.0915727  24.4602880 114.1549565  85.7135523
  22.8573051 116.4047339  75.5099739  23.5781414 116.7828592  75.0063455
  22.2338355 117.1236216  75.6134717  27.0004174 117.1092488  76.4458071
  27.2167788 117.9917126  76.1446899  26.5198241 116.7178702  75.7163713
  21.7403395 120.0678201  83.0228816  21.5947976 120.3818505  83.9153097
  21.2628599 120.6863102  82.4699714  23.5999778 117.0580749  83.0709705
  23.5861347 116.1621843  82.7342003  24.3172206 117.0651413  83.7047991
  25.4525909 117.4918090  85.1162833  25.1943687 118.4135160  85.1147163
  24.9210949 117.0948524  85.8063297  23.0036674 115.9395130  78.3397275
  23.1252585 115.0111776  78.5388163  22.7138717 115.9533816  77.4275591
  25.8727865 113.6250040  81.4763995  25.8949561 113.6889373  80.5215975
  26.2895924 112.7854549  81.6704501  36.2511489 123.3605300  79.5143218
  36.6942635 122.6112625  79.1162341  35.3737999 123.3515436  79.1316950
  17.0015079 121.7353442  88.8546634  16.2596815 121.8836078  89.4411264
  16.6807824 121.9961708  87.9913383  33.2838693 127.3635347  76.5237147
  33.8090017 127.7022619  75.7986467  33.1961046 126.4282362  76.3400282
  22.4877754 117.4527127  92.5487208  22.5365909 118.3289250  92.1664977
  23.0300268 116.9104520  91.9758851  32.9732599 127.9968250  91.8288345
  32.1828143 127.9792389  91.2892844  32.7365954 128.5356544  92.5837381
  33.0930474 124.8460717  89.1421073  33.1428479 124.6810724  90.0836596
  32.9844398 123.9787976  88.7518954  30.3834237 120.8291645  90.4580380
  31.2844100 120.6898110  90.1664378  30.4582211 120.9946100  91.3978558
  24.7177042 118.2058500  89.3033566  23.8480352 118.4992066  89.0316155
  24.9536522 118.7898945  90.0240830  34.5948671 127.2657658  89.3863095
  34.3033480 127.6287639  90.2226556  33.9820803 126.5524667  89.2076427
  35.7944354 124.8310538  81.9065665  36.6291245 125.2700342  82.0703226
  35.9303482 124.3549191  81.0873911  32.8435859 122.3890273  87.8543153
  33.3189981 122.5817919  87.0462004  31.9201425 122.4449459  87.6086537
  19.7319366 123.5514440  77.4374231  19.4865408 122.6476770  77.6354441
  19.9015281 123.5531591  76.4953709  27.4216076 114.4238116  86.8198987
  27.9398020 115.1599143  86.4945475  27.0671209 114.7302110  87.6545746
  19.0015014 119.2842798  74.9360393  18.3084259 119.3587153  74.2800429
  18.7566766 118.5203141  75.4581910  27.6728670 110.8438399  82.3399883
  27.9530424 110.1761588  82.9660310  28.4579277 111.0367495  81.8274547
  31.5437528 119.2656033  86.0871459  32.4954951 119.3654131  86.1083683
  31.3740979 118.4734302  86.5969543  29.5651908 116.3511616  86.2730860
  28.9701840 116.6316629  85.5777348  29.2801605 116.8405517  87.0447601
  34.0225606 122.4862153  85.2013758  33.9901926 121.5478153  85.3873442
  34.6326230 122.5646189  84.4679583  25.8608937 121.3558206  71.2440962
  26.8068042 121.2264414  71.3129380  25.4823182 120.6172868  71.7210390
  34.1720095 119.2773196  85.2472041  33.6559143 118.4931653  85.0601970
  35.0560043 118.9491913  85.4118561  31.8330822 113.0214212  81.2067854
  31.6355643 112.7129300  82.0911186  32.4430527 113.7475851  81.3365784
  39.8402156 123.5478160  84.3419795  40.5705545 123.2863448  84.9027498
  39.2309102 122.8106881  84.3821863  37.9217453 121.6886022  84.9394246
  37.1950617 121.5541987  84.3310738  37.5064740 121.9962851  85.7450964
  25.7447630 125.4075952  92.7041619  26.6650639 125.5854551  92.8981666
  25.7097213 124.4631997  92.5521319  24.0451854 119.2808182  71.1795848
  23.1383310 118.9841295  71.2558561  24.3227835 118.9838000  70.3130134
  14.9629795 120.6014545  81.6294894  14.6432579 119.7479854  81.3369268
  14.4163223 120.8163124  82.3852861  25.6613920 113.8245072  77.3340089
  24.8514648 113.4792157  77.7095335  26.3498337 113.5152615  77.9227700
  27.5904468 112.9023119  78.9564385  28.1435507 113.3218572  79.6154409
  27.8274555 111.9758867  78.9987341  23.6137568 118.8910192  94.7367149
  23.5134294 119.8404549  94.6679240  23.3959110 118.5628431  93.8643219
  22.8150639 116.1395117  71.3207827  23.6769803 116.4650016  71.5803644
  23.0000983 115.3526613  70.8080892  30.9683275 115.0123644  78.4643050
  30.3881944 115.6708448  78.0821102  30.7019208 114.1900988  78.0530467
  29.4186842 114.4128701  80.6664370  29.9186620 114.5245236  79.8578689
  30.0622450 114.1089754  81.3065178  23.4768838 122.3207331  93.5532211
  22.9935919 123.1207691  93.7596100  23.5629777 122.3315276  92.5999655
  29.7508153 117.1723734  77.5199398  28.8634008 117.4573385  77.3019593
  30.1662142 117.0117497  76.6726675  33.1022690 117.1970255  81.2353737
  33.8783080 117.6866708  81.5078354  32.3770824 117.6228309  81.6925607
  35.5395248 117.9097874  82.2927678  36.1339739 117.6693610  81.5820986
  35.6121832 117.1905005  82.9201214  29.7249177 122.6878270  77.7349688
  29.6684379 123.1446821  76.8957321  30.2777520 121.9268955  77.5572531
  33.5353983 118.4768002  78.5599808  33.2790917 118.0764638  79.3908015
  32.9106851 119.1911796  78.4349947  37.8466321 121.2164075  81.0671099
  37.2865879 121.2857264  81.8402661  37.2409824 121.0405060  80.3470595
  30.8038064 127.3750938  73.6645878  31.6383668 126.9432136  73.4823353
  30.6422407 127.2032952  74.5922772  30.4583956 123.8783051  75.0302217
  30.4032760 123.7127323  74.0890661  29.8330012 124.5859084  75.1864407
  15.2476471 119.1151116  88.8563640  15.8935335 118.6050070  89.3450865
  15.0393623 119.8519797  89.4307065  27.7729864 126.1831963  94.3555780
  28.6421023 126.3572615  93.9942415  27.2936615 127.0026380  94.2331509
  23.7680082 113.3791160  74.6087536  23.7558752 114.3233000  74.7655807
  24.6603504 113.1961306  74.3146997  27.5832201 109.9733937  78.8633472
  26.8164597 109.4192424  79.0090155  27.9942906 110.0455806  79.7247624
  19.5873962 116.2618733  92.9538654  20.4505424 115.9055538  93.1641978
  19.0139373 115.9232628  93.6414058  41.9097455 129.2668850  86.1981850
  41.5780780 130.1364261  85.9743065  41.3143069 128.9505134  86.8775880
  43.6687765 132.1880375  85.0553074  43.0262145 132.4812908  84.4092868
  43.1642694 132.0733295  85.8606271  39.0080587 127.1138431  85.8153164
  38.6644857 128.0040073  85.7392274  39.3759550 126.9240089  84.9522749
  38.0877128 129.4843087  83.7802397  37.5841923 129.4473222  82.9670202
  38.3807734 130.3935829  83.8399053  34.2405000 128.6725273  78.8860015
  33.5869413 128.3574290  78.2616630  34.1985474 128.0501014  79.6119838
  40.8068253 126.3731991  80.9170901  41.1127130 125.5129354  80.6296816
  41.5320858 126.9649611  80.7169895  41.0769871 128.8026226  83.4154822
  40.1632951 129.0330453  83.5837029  41.5062972 128.8864670  84.2668854
  35.0558571 128.7050999  85.2136837  35.8784640 128.2311477  85.0915727
  35.2996635 129.4841482  85.7135523  36.7121619 128.9541958  81.4763995
  36.7343316 129.0181291  80.5215975  37.1289678 128.1146467  81.6704501
  38.2609830 129.7530034  86.8198987  38.7791774 130.4891061  86.4945475
  37.9064963 130.0594027  87.6545746  38.5122425 126.1730317  82.3399883
  38.7924178 125.5053506  82.9660310  39.2973032 126.3659412  81.8274547
  42.6724576 128.3506129  81.2067854  42.4749397 128.0421218  82.0911186
  43.2824282 129.0767768  81.3365784  36.5007674 129.1536989  77.3340089
  35.6908403 128.8084074  77.7095335  37.1892091 128.8444533  77.9227700
  38.4298223 128.2315036  78.9564385  38.9829261 128.6510490  79.6154409
  38.6668309 127.3050784  78.9987341  41.8077030 130.3415561  78.4643050
  41.2275699 131.0000365  78.0821102  41.5412963 129.5192906  78.0530467
  40.2580596 129.7420619  80.6664370  40.7580375 129.8537154  79.8578689
  40.9016204 129.4381672  81.3065178  46.3789003 133.2389792  82.2927678
  46.9733493 132.9985528  81.5820986  46.4515586 132.5196923  82.9201214
  38.4225956 125.3025855  78.8633472  37.6558352 124.7484341  79.0090155
  38.8336661 125.3747723  79.7247624   6.9114479  54.4088919  68.3344857
   6.1578187  53.8396317  68.1788862   7.0462020  54.3751584  69.2815492
   0.9878624  54.5617556  65.4447001   0.8496523  54.7519152  64.5168190
   0.6314843  55.3236938  65.9015052   1.0148004  56.6294083  70.4558272
   1.4484511  56.5369372  71.3041326   1.7279585  56.6051583  69.8178288
   1.8763554  56.6717783  72.9891158   2.0699444  57.5763594  73.2350433
   1.7764172  56.2125202  73.8229743   3.1305617  53.2291450  69.6339061
   3.1195493  54.1116165  69.2632994   2.2622996  52.8763001  69.4393598
   3.7330227  54.3791669  66.2388524   4.1761373  53.6298995  65.8407648
   2.8556737  54.3701806  65.8562256   0.7657431  58.3821716  63.2482454
   1.2908755  58.7208989  62.5231774   0.6779784  57.4468732  63.0645588
   0.5749212  55.8647086  75.8666380   0.6247217  55.6997094  76.8081903
   0.4663136  54.9974345  75.4764261   2.0767409  58.2844028  76.1108402
   1.7852217  58.6474008  76.9471863   1.4639540  57.5711036  75.9321734
   3.2763091  55.8496908  68.6310972   4.1109983  56.2886712  68.7948532
   3.4122220  55.3735561  67.8119218   1.5044344  53.5048522  71.9259065
   1.4720664  52.5664523  72.1118749   2.1144968  53.5832559  71.1924890
   1.6538833  50.2959566  71.9717348   1.1377881  49.5118022  71.7847277
   2.5378781  49.9678282  72.1363868   7.3220894  54.5664529  71.0665102
   8.0524282  54.3049817  71.6272805   6.7127839  53.8293251  71.1067170
   5.4036191  52.7072392  71.6639553   4.6769355  52.5728357  71.0556044
   4.9883478  53.0149220  72.4696271   3.0213986  48.9284244  69.0172984
   3.6158477  48.6879980  68.3066293   3.0940570  48.2091374  69.6446521
   1.0172721  49.4954371  65.2845114   0.7609655  49.0951007  66.1153322
   0.3925589  50.2098165  65.1595253   5.3285059  52.2350445  67.7916406
   4.7684617  52.3043634  68.5647968   4.7228562  52.0591429  67.0715902
   6.9141077  68.9106959  70.4846361   7.5519487  68.7913706  69.7809701
   6.7961920  69.8587803  70.5434314   3.7230783  68.8634387  70.4207886
   3.3849295  68.7475451  69.5328421   4.5920552  68.4625552  70.4008892
   4.2050566  70.0169238  76.3794092   4.1939207  69.6222037  75.5074595
   4.3671206  69.2835311  76.9727863   5.1617158  74.3840831  61.7219242
   4.5105138  74.9694911  61.3353256   5.9561521  74.9147026  61.7814279
   0.9257828  72.8006350  75.3273276   0.6347694  73.7051981  75.2119942
   1.5614812  72.8422878  76.0417345   1.8514034  70.1783199  71.9174635
   2.4477607  69.9539221  71.2031598   1.9089006  69.4367944  72.5200083
   1.4239063  67.6322634  59.7524826   1.6764583  67.1104155  58.9908289
   0.4863622  67.4688780  59.8551510   6.4682346  66.6358412  67.5599569
   7.2545435  66.2177836  67.2089986   6.7321050  67.5404505  67.7281218
   6.6392423  72.0731263  62.2588226   6.0038256  72.1465889  62.9709131
   6.3089829  72.6624862  61.5807305  11.8690773  66.5733646  68.4632548
  12.6015945  66.0032862  68.6970377  11.1130128  66.1855246  68.9039054
   1.1435352  69.5350740  61.9549201   1.0271610  68.8595643  62.6230285
   1.2537611  69.0483114  61.1381354   3.4866892  68.9960887  65.6595890
   3.1225100  68.4691508  66.3708812   4.3434008  68.6059356  65.4862376
   9.3916193  60.2855220  72.9227157   9.0599518  61.1550631  72.6988372
   8.7961806  59.9691504  73.6021187   3.1272379  64.0250787  60.6557239
   3.2946782  64.8931023  61.0227710   2.9369549  64.1878069  59.7318528
   5.8847713  72.4867766  72.3223069   5.5848436  73.3892805  72.2138876
   5.5398772  72.2199949  73.1744222   9.2844856  65.0050306  70.0020507
   8.3761734  64.9365714  69.7079268   9.2332452  65.4822251  70.8302332
   3.1061600  66.4808444  61.6403906   2.9861226  66.9265495  62.4789386
   2.4114189  66.8293762  61.0817444   3.3585722  66.4239952  77.9455404
   2.5819056  66.9833872  77.9358268   3.9976285  66.9096735  78.4670274
  11.1506503  63.2066744  71.7798381  10.5080883  63.4999278  71.1338175
  10.6461431  63.0919665  72.5851577   8.8046666  66.9529918  62.4684240
   9.7164523  67.1857304  62.2931937   8.2956314  67.5366962  61.9059318
   1.6132095  69.2325405  77.5073371   2.3546779  69.7710449  77.2308194
   0.9069080  69.8591694  77.6644923   7.0887434  71.3754545  76.1045532
   7.4970790  70.9336956  75.3600165   6.3664696  70.8007173  76.3579725
   3.4418504  66.3127152  73.4779089   4.2879699  66.7366566  73.6213738
   3.3817142  65.6560776  74.1717652   7.4116249  71.9355736  69.8597821
   6.7825111  72.1001450  69.1573889   7.0241911  72.3497346  70.6308785
  11.2905481  72.8710174  67.2142185  10.6056519  73.2509075  66.6639218
  11.3749330  73.4805501  67.9474133   6.5917950  63.9731521  75.1360263
   6.3478881  64.7273581  74.5994539   6.8677880  64.3516868  75.9707510
   8.5456412  70.5170133  73.8137529   8.7573308  71.1601893  73.1371910
   8.4986161  69.6832449  73.3459459   6.1482641  63.1287954  70.7174101
   5.2867120  63.4269207  71.0090838   6.1745076  63.3458352  69.7855133
   2.9644211  71.6730144  67.1247906   3.4282556  71.9517847  66.3352529
   2.7001009  70.7713589  66.9420997   1.9013097  67.7953296  63.9337471
   2.6037140  68.2474340  64.4011398   1.5693725  67.1537115  64.5617365
   9.6602240  73.3942088  71.9859886  10.4819684  72.9922276  71.7042567
   9.6564643  73.2910322  72.9376002   3.4258844  72.9426132  74.1420596
   3.4903276  73.4046539  74.9778768   2.7169768  72.3123497  74.2702906
  17.7508233  69.7380837  68.3344857  16.9971942  69.1688235  68.1788862
  17.8855775  69.7043501  69.2815492   3.1406861  74.6094239  64.0099577
   3.0052536  75.4545775  64.4384425   3.6816674  74.8113517  63.2465510
   2.5442162  62.1043698  78.2634188   3.2851875  62.7050851  78.1838651
   2.7760085  61.3621336  77.7052231   4.7675338  75.2317806  78.1399919
   4.3239192  74.4454184  77.8220823   5.4292551  75.4196956  77.4743810
   6.8656576  75.5120606  76.1681320   6.8475051  76.3329487  75.6761589
   7.7876496  75.3874681  76.3931461   3.3229630  73.0264735  77.0104828
   3.8557967  72.2653023  76.7804136   2.7943711  72.7338387  77.7528983
   6.4899325  58.1324801  72.5398470   6.1463594  59.0226443  72.4637581
   6.8578288  57.9426459  71.6768055   6.4549608  68.1233412  61.0470905
   5.9396231  68.8938017  61.2859293   6.1826916  67.4498548  61.6703967
   4.0396719  62.9683113  66.1056144   3.1838315  62.5789963  65.9261782
   4.4523670  63.0475074  65.2455929   5.5695865  60.5029456  70.5047703
   5.0660661  60.4659591  69.6915509   5.8626472  61.4122199  70.5644360
   1.8138751  60.5868186  69.5113885   2.6791748  60.3910995  69.1519775
   1.8816260  60.3578538  70.4383242  11.4283882  70.8765767  62.9824079
  10.6513325  70.5376926  62.5379241  12.1075363  70.8818390  62.3079044
   6.2435911  65.9960504  62.8730686   5.9386046  66.3106653  63.7240830
   7.1966353  66.0741924  62.9158019   4.6882343  72.1550727  64.5223640
   4.1603704  71.4203487  64.2096878   4.1869845  72.9325404  64.2763609
   9.6675189  70.3499748  69.6390687   9.0098863  71.0399009  69.7270815
  10.4715588  70.7396180  69.9824673   8.4780647  68.7044121  67.6894628
   8.9912529  69.3374113  68.1916338   9.1281871  68.1045316  67.3237988
   1.7223738  59.6911643  65.6105321   1.0688150  59.3760660  64.9861936
   1.6804212  59.0687383  66.3365144   2.8334943  69.9730938  57.5258613
   1.9262005  69.7420191  57.7249762   3.3305975  69.1768557  57.7132595
   5.7403022  78.6828445  60.4455300   5.0664720  78.9860142  61.0540257
   6.1268844  79.4857525  60.0960757   4.9561478  66.1793576  69.9352969
   4.0384040  66.4008523  69.7774657   5.3721622  66.2539887  69.0764676
   5.7396526  67.5784992  65.0655649   6.4868345  68.0906389  64.7562771
   6.0088116  67.2569045  65.9260043   4.0123176  70.0743533  62.0482604
   3.1034396  69.7902565  62.1455073   4.0418260  70.4942611  61.1885910
   9.2442444  73.6850122  65.8173771   8.7904771  72.8441032  65.8738962
   8.6136410  74.3211520  66.1548551   8.1875363  64.6142108  67.0474439
   7.4498120  64.1019494  67.3784681   8.4402137  64.1742490  66.2357715
   7.6875383  75.5226619  66.7523589   7.9798357  76.0831676  66.0335955
   8.1974004  75.8155180  67.5076748   8.2886991  57.3918360  67.6416208
   8.5945867  56.5315724  67.3542123   9.0139595  57.9835980  67.4415202
   2.5608070  67.6872153  68.1492399   2.6156680  66.7345990  68.0734875
   1.7499272  67.8431592  68.6333697   3.7099264  71.6152276  59.3870682
   3.2718694  70.8988135  58.9276319   4.4509705  71.8428391  58.8255774
   2.6509008  76.3006970  67.8417042   2.6085187  76.5267816  66.9125574
   3.5671707  76.0670344  67.9902844   6.0974642  66.7691037  74.7397672
   6.4524030  66.9962511  75.5992137   6.7446773  67.1009414  74.1174927
  11.8272379  69.8909473  65.4447001  11.6890277  70.0811069  64.5168190
  11.4708598  70.6528856  65.9015052  11.8541758  71.9586000  70.4558272
  12.2878265  71.8661289  71.3041326  12.5673339  71.9343501  69.8178288
   5.5869653  75.5588094  71.9891373   5.6406676  76.1279031  72.7569089
   4.7184435  75.7289979  71.6245410  12.7157308  72.0009701  72.9891158
  12.9093198  72.9055511  73.2350433  12.6157926  71.5417120  73.8229743
   4.3693619  61.8867592  75.4881485   3.7221534  62.5857541  75.3945961
   5.1394634  62.3203735  75.8557733   7.7772417  72.1516444  78.5632038
   7.6257923  71.9226995  77.6462122   7.7677096  73.1087045  78.5763383
   4.5457753  69.7248356  73.5478305   5.4749813  69.8759516  73.3747272
   4.1248783  69.8132377  72.6926951   3.3446085  73.7499021  71.3176842
   3.2057171  73.3817805  72.1902780   2.5560681  74.2646660  71.1460800
   3.9394237  78.8508117  62.6602379   4.1145993  78.3796161  63.4748001
   3.2527025  79.4773884  62.8883640   4.8951300  73.1280624  68.7065680
   4.5601133  73.0881394  69.6023330   4.3955246  72.4625340  68.2336090
   7.8310492  70.4736658  58.9802740   7.2139662  69.7483486  58.8835792
   7.3626980  71.2346018  58.6369814   1.4977845  68.2468213  73.7201941
   2.2077463  67.6061405  73.6788559   1.4547153  68.4981108  74.6428122
   9.4864623  75.1835566  76.6408520   9.4277170  74.4994786  75.9739103
   9.8884142  75.9254556  76.1889146   9.4882031  73.1475150  74.8722500
   8.6008809  72.8101072  74.9948899  10.0580582  72.4158181  75.1091265
   3.0183184  77.8076603  71.8383743   2.9453356  78.6131574  72.3503048
   2.5760577  78.0068568  71.0131764   2.8072964  77.0448373  65.3486564
   2.0240486  77.5870053  65.4424789   3.5065709  77.5622352  65.7480806
   6.1169614  62.8543002  67.9920770   6.6138313  62.1012964  67.6721840
   5.3456595  62.8907319  67.4263979  13.9699371  68.5583368  69.6339061
  13.9589247  69.4408083  69.2632994  13.1016751  68.2054918  69.4393598
   5.4781868  77.7063437  73.9941902   6.1909840  78.3410901  73.9217803
   4.9871896  77.8027303  73.1781903   7.1999394  71.6114689  65.5659193
   6.2655673  71.7316152  65.3963898   7.3776063  70.7087156  65.3019203
   2.7004583  64.9960385  67.7192454   2.3302370  64.4431425  68.4073360
   3.1963675  64.3918519  67.1667455  10.5871946  67.4532009  66.1009227
  11.0532398  68.2860000  66.0269530  11.0379446  66.9876990  66.8054486
   8.6548177  73.7975830  63.0995379   8.9308021  73.6832424  64.0089254
   7.7852676  73.3993315  63.0607553   8.5588609  59.8212596  70.1400129
   7.6451688  60.0516822  70.3082336   8.9881710  59.9051040  70.9914161
   8.3295067  68.0102488  72.6400023   7.6766517  68.2578395  71.9852476
   8.7075447  67.1966626  72.3062500   5.2902241  78.0462181  66.7428193
   5.4724635  77.2283837  67.2055945   6.1135227  78.2629873  66.3053083
   5.6244406  76.9730366  64.0043242   6.1532173  76.4622820  63.3913404
   5.8872626  76.6572896  64.8688775   4.3782640  68.7522299  79.1266060
   3.7023277  68.6516428  79.7968435   5.2010274  68.5961512  79.5902057
   3.1205423  80.0589226  73.3623676   3.6723731  80.2220848  74.1272761
   3.4611616  80.6493664  72.6903701   7.9716297  74.8850484  79.2172330
   8.5156201  75.4980442  78.7227285   7.3903142  75.4430062  79.7339343
   6.2573810  78.0071202  70.3487358   6.1324950  77.2060941  69.8398304
   6.9152901  78.5017395  69.8601328   8.3208719  75.8080222  71.9766908
   7.3739054  75.6885573  71.9045235   8.6691492  74.9202720  72.0593170
   0.6808292  61.6974361  75.8005150   1.2042694  61.9436657  76.5631459
   0.4620625  62.5294395  75.3808287   5.3255152  75.6032938  68.1771260
   5.1780114  74.6749645  68.3578830   6.1508645  75.6253029  67.6928336
   8.9289274  76.4261497  69.2636133   9.8535821  76.2204358  69.1260584
   8.7604577  76.1777898  70.1725475   1.8860837  62.6388056  73.4854821
   1.5457657  61.8395869  73.8875500   1.1799843  62.9389767  72.9131654
   2.5377309  59.7237368  71.9382144   3.3603378  59.2497846  71.8161034
   2.7815372  60.5027852  72.4380830   1.1785543  62.7525627  62.2345045
   1.8993906  63.1306879  61.7308762   0.5550847  63.4714503  62.3380023
   5.3216666  63.4570776  63.1703378   5.5380281  64.3395413  62.8692206
   4.8410733  63.0656989  62.4409020   1.9212270  63.4059037  69.7955012
   1.9073839  62.5100130  69.4587310   2.6384699  63.4129700  70.4293298
   3.7738401  63.8396377  71.8408139   3.5156179  64.7613448  71.8392470
   3.2423442  63.4426811  72.5308603   8.7184590  76.9447164  64.6198225
   8.8921467  76.3793587  63.8672077   9.2113481  77.7448059  64.4377714
   1.3249166  62.2873417  65.0642582   1.4465078  61.3590063  65.2633469
   1.0351209  62.3012103  64.1520897   4.1940357  59.9728327  68.2009302
   4.2162054  60.0367661  67.2461281   4.6108416  59.1332836  68.3949808
  14.5723981  69.7083587  66.2388524  15.0155127  68.9590912  65.8407648
  13.6950491  69.6993723  65.8562256   9.7059762  76.2613928  61.7195123
  10.4010667  76.8820621  61.9382437  10.0482913  75.4109280  61.9947501
  11.6051186  73.7113634  63.2482454  12.1302510  74.0500907  62.5231774
  11.5173538  72.7760649  63.0645588   3.2671234  77.6247708  75.3772330
   3.5758361  77.3796854  76.2495030   4.0646716  77.8294346  74.8891200
   3.2891846  79.7785617  67.6077707   2.8496837  79.2861996  68.3010563
   4.0399963  79.2358585  67.3669782   0.8090246  63.8005414  79.2732514
   0.8578401  64.6767537  78.8910284   1.3512760  63.2582807  78.7004158
  11.2945092  74.3446538  78.5533652  10.5040635  74.3270676  78.0138151
  11.0578446  74.8834831  79.3082688  11.4142967  71.1939004  75.8666380
  11.4640972  71.0289011  76.8081903  11.3056890  70.3266263  75.4764261
   8.7046729  67.1769932  77.1825687   9.6056592  67.0376397  76.8909685
   8.7794704  67.3424387  78.1223864   3.0389534  64.5536787  76.0278873
   2.1692844  64.8470353  75.7561462   3.2749015  65.1377232  76.7486137
  12.9161164  73.6135946  76.1108402  12.6245972  73.9765926  76.9471863
  12.3033295  72.9002954  75.9321734  14.1156846  71.1788825  68.6310972
  14.9503737  71.6178629  68.7948532  14.2515975  70.7027478  67.8119218
  11.1648352  68.7368560  74.5788460  11.6402473  68.9296206  73.7707311
  10.2413917  68.7927746  74.3331843   5.7428568  60.7716404  73.5444294
   6.2610512  61.5077431  73.2190782   5.3883701  61.0780397  74.3791053
   5.9941162  57.1916686  69.0645190   6.2742916  56.5239875  69.6905617
   6.7791769  57.3845782  68.5519854   3.7974631  76.3675680  60.6270216
   3.2248598  76.9865867  60.1740688   4.3707425  76.9175042  61.1610138
   9.8650021  65.6134320  72.8116765  10.8167444  65.7132418  72.8328989
   9.6953471  64.8212589  73.3214850   7.8864400  62.6989903  72.9976166
   7.2914332  62.9794916  72.3022655   7.6014097  63.1883804  73.7692907
   7.0171891  76.6512830  61.7578799   7.9502564  76.5858392  61.9611674
   6.9295104  77.4869097  61.2993331   9.6459907  75.9678701  58.7182746
   9.5673539  75.6338564  59.6118504  10.4669574  76.4600469  58.7174219
  12.3438099  68.8340440  71.9259065  12.3114419  67.8956441  72.1118749
  12.9538722  68.9124477  71.1924890   4.1821429  67.7036493  57.9686269
   5.1280534  67.5742701  58.0374687   3.8035674  66.9651155  58.4455697
  12.4932587  65.6251483  71.9717348  11.9771636  64.8409940  71.7847277
  13.3772536  65.2970200  72.1363868  10.1543314  59.3692499  67.9313161
   9.9568135  59.0607587  68.8156493  10.7643020  60.0954138  68.0611091
  18.1614648  69.8956447  71.0665102  18.8918037  69.6341735  71.6272805
  17.5521594  69.1585169  71.1067170  16.2429946  68.0364309  71.6639553
  15.5163109  67.9020274  71.0556044  15.8277232  68.3441138  72.4696271
   4.0660122  71.7554239  79.4286926   4.9863131  71.9332838  79.6226972
   4.0309705  70.8110284  79.2766625   2.3664347  65.6286469  57.9041154
   1.4595802  65.3319582  57.9803868   2.6440328  65.3316287  57.0375440
   3.9826412  60.1723359  64.0585395   3.1727141  59.8270444  64.4340642
   4.6710829  59.8630903  64.6473007   5.9116961  59.2501406  65.6809692
   6.4647999  59.6696859  66.3399715   6.1487047  58.3237154  65.7232648
   1.9350060  65.2388479  81.4612456   1.8346787  66.1882836  81.3924547
   1.7171602  64.9106718  80.5888526   1.1363131  62.4873404  58.0453133
   1.9982295  62.8128303  58.3048951   1.3213475  61.7004900  57.5326199
   9.2895768  61.3601931  65.1888356   8.7094437  62.0186735  64.8066409
   9.0231700  60.5379276  64.7775774   7.7399334  60.7606989  67.3909677
   8.2399112  60.8723523  66.5823996   8.3834942  60.4568042  68.0310485
   1.7981330  68.6685618  80.2777518   1.3148412  69.4685978  80.4841407
   1.8842269  68.6793563  79.3244962   8.0720646  63.5202021  64.2444705
   7.1846501  63.8051672  64.0264899   8.4874635  63.3595785  63.3971981
  11.4235182  63.5448542  67.9599044  12.1995572  64.0344995  68.2323661
  10.6983316  63.9706597  68.4170913  13.8607740  64.2576162  69.0172984
  14.4552231  64.0171897  68.3066293  13.9334324  63.5383292  69.6446521
   7.2163859  73.2846696  58.3392725   7.9199709  73.4896699  58.9550380
   6.4926508  73.8523458  58.6041808   8.0461669  69.0356557  64.4594995
   7.9896871  69.4925109  63.6202627   8.5990012  68.2747242  64.2817838
  11.8566475  64.8246289  65.2845114  11.6003410  64.4242925  66.1153322
  11.2319343  65.5390083  65.1595253  16.1678813  67.5642362  67.7916406
  15.6078371  67.6335552  68.5647968  15.5622317  67.3883347  67.0715902
   9.1250557  73.7229225  60.3891185   9.9596160  73.2910424  60.2068659
   8.9634899  73.5511239  61.3168079   8.7796449  70.2261339  61.7547524
   8.7245253  70.0605610  60.8135968   8.1542504  70.9337371  61.9109714
   6.0942356  72.5310250  81.0801087   6.9633516  72.7050903  80.7187722
   5.6149107  73.3504667  80.9576816   2.0892574  59.7269448  61.3332842
   2.0771244  60.6711287  61.4901113   2.9815996  59.5439593  61.0392304
   2.0182138  78.4038338  69.4200599   1.0677769  78.4040200  69.3064971
   2.3214624  77.6571072  68.9036634   5.9044694  56.3212224  65.5878779
   5.1377089  55.7670711  65.7335461   6.3155399  56.3934093  66.4492931
  17.7534832  84.2398876  70.4846361  18.3913242  84.1205624  69.7809701
  17.6355675  85.1879720  70.5434314  14.5624538  84.1926304  70.4207886
  14.2243049  84.0767369  69.5328421  15.4314306  83.7917470  70.4008892
  10.4211354  86.0461781  66.4104777   9.8576219  85.9551718  65.6421065
  10.3063749  85.2261685  66.8907270  15.0444321  85.3461156  76.3794092
  15.0332962  84.9513954  75.5074595  15.2064960  84.6127229  76.9727863
   7.9675786  87.5412972  69.2488997   8.7597077  87.2003797  68.8335297
   8.2072436  87.6507947  70.1691151  16.0010912  89.7132749  61.7219242
  15.3498892  90.2986829  61.3353256  16.7955275  90.2438943  61.7814279
   9.9266539  86.8021886  62.1206376  10.6997415  86.2550873  61.9819252
  10.2791938  87.6666135  62.3320838  11.7651582  88.1298268  75.3273276
  11.4741448  89.0343899  75.2119942  12.4008566  88.1714796  76.0417345
  12.6907789  85.5075116  71.9174635  13.2871361  85.2831139  71.2031598
  12.7482760  84.7659862  72.5200083  12.2632817  82.9614552  59.7524826
  12.5158338  82.4396073  58.9908289  11.3257376  82.7980697  59.8551510
  17.3076100  81.9650330  67.5599569  18.0939189  81.5469753  67.2089986
  17.5714804  82.8696422  67.7281218  17.4786177  87.4023180  62.2588226
  16.8432010  87.4757807  62.9709131  17.1483584  87.9916779  61.5807305
  22.7084527  81.9025563  68.4632548  23.4409699  81.3324780  68.6970377
  21.9523883  81.5147164  68.9039054  11.9829106  84.8642658  61.9549201
  11.8665364  84.1887561  62.6230285  12.0931366  84.3775032  61.1381354
  14.3260647  84.3252805  65.6595890  13.9618854  83.7983426  66.3708812
  15.1827763  83.9351274  65.4862376  20.2309948  75.6147137  72.9227157
  19.8993272  76.4842548  72.6988372  19.6355561  75.2983421  73.6021187
  13.9666134  79.3542705  60.6557239  14.1340536  80.2222941  61.0227710
  13.7763303  79.5169986  59.7318528  16.7241467  87.8159683  72.3223069
  16.4242190  88.7184722  72.2138876  16.3792527  87.5491867  73.1744222
  10.1753949  84.2673480  68.3559774   9.2504445  84.1349694  68.5637465
  10.4238362  85.0467700  68.8529716  20.1238611  80.3342224  70.0020507
  19.2155488  80.2657632  69.7079268  20.0726207  80.8114169  70.8302332
  13.9455355  81.8100362  61.6403906  13.8254980  82.2557413  62.4789386
  13.2507943  82.1585680  61.0817444   7.5362760  83.9106754  69.1903563
   7.6655141  84.1641233  70.1042974   6.8560211  84.5034462  68.8708218
  11.7062247  94.5804004  65.2894037  11.6286277  95.5311829  65.3682518
  11.1023891  94.2349876  65.9468963  14.1979477  81.7531869  77.9455404
  13.4212811  82.3125789  77.9358268  14.8370040  82.2388652  78.4670274
  21.9900257  78.5358662  71.7798381  21.3474638  78.8291195  71.1338175
  21.4855186  78.4211582  72.5851577  19.6440421  82.2821835  62.4684240
  20.5558277  82.5149222  62.2931937  19.1350068  82.8658879  61.9059318
  12.4525849  84.5617323  77.5073371  13.1940533  85.1002367  77.2308194
  11.7462834  85.1883611  77.6644923  17.9281189  86.7046463  76.1045532
  18.3364545  86.2628874  75.3600165  17.2058450  86.1299091  76.3579725
  14.2812259  81.6419070  73.4779089  15.1273454  82.0658483  73.6213738
  14.2210896  80.9852694  74.1717652  18.2510003  87.2647654  69.8597821
  17.6218866  87.4293368  69.1573889  17.8635665  87.6789263  70.6308785
  22.1299235  88.2002092  67.2142185  21.4450273  88.5800993  66.6639218
  22.2143084  88.8097418  67.9474133  17.4311704  79.3023438  75.1360263
  17.1872636  80.0565499  74.5994539  17.7071635  79.6808786  75.9707510
  19.3850167  85.8462051  73.8137529  19.5967062  86.4893810  73.1371910
  19.3379915  85.0124367  73.3459459  16.9876396  78.4579871  70.7174101
  16.1260875  78.7561125  71.0090838  17.0138830  78.6750270  69.7855133
  13.8037965  87.0022062  67.1247906  14.2676311  87.2809765  66.3352529
  13.5394763  86.1005506  66.9420997  10.6962046  86.5493543  70.0627670
  11.2663403  86.9780812  69.4245154  11.2870158  86.2676128  70.7611855
  12.7406851  83.1245214  63.9337471  13.4430895  83.5766258  64.4011398
  12.4087480  82.4829033  64.5617365  11.1887213  81.7156971  78.3088681
  10.5585873  82.3973252  78.5424078  11.0823301  81.6040052  77.3641819
   6.4832185  81.3828767  69.2354605   5.6931239  81.6386295  68.7594716
   6.9743433  82.1977105  69.3406646  20.4995995  88.7234006  71.9859886
  21.3213438  88.3214193  71.7042567  20.4958398  88.6202240  72.9376002
   8.4346931  81.7473346  66.1938082   7.6378094  81.8592040  66.7121577
   8.2072523  82.0859998  65.3278972  14.2652598  88.2718049  74.1420596
  14.3297031  88.7338457  74.9778768  13.5563522  87.6415414  74.2702906
   4.7669888  81.6359257  71.6669596   5.0177927  82.5206267  71.9327172
   5.3029437  81.4563859  70.8944688  28.5901988  85.0672754  68.3344857
  27.8365696  84.4980153  68.1788862  28.7249529  85.0335419  69.2815492
  13.9800616  89.9386157  64.0099577  13.8446291  90.7837693  64.4384425
  14.5210428  90.1405434  63.2465510  10.4667955  76.0177737  80.6713932
  10.0734901  75.4643935  81.3461576  11.2834096  76.3288315  81.0620449
   7.4330013  87.4561595  64.5827502   7.9454534  88.2504845  64.7333066
   8.0852726  86.7587885  64.5161103   9.2424898  90.5727351  66.6650255
   9.4191526  91.4945316  66.4771239  10.0381731  90.2585770  67.0944635
  13.3835916  77.4335616  78.2634188  14.1245630  78.0342769  78.1838651
  13.6153839  76.6913254  77.7052231   8.5277254  82.6191983  76.5412418
   8.4130770  81.7177240  76.8419517   7.6721772  82.8655680  76.1897235
  15.6069092  90.5609723  78.1399919  15.1632946  89.7746102  77.8220823
  16.2686306  90.7488874  77.4743810  10.3656213  92.0905525  72.6660597
  10.9163639  91.9622588  71.8937591   9.5267689  92.3900414  72.3155490
  17.7050330  90.8412523  76.1681320  17.6868806  91.6621404  75.6761589
  18.6270250  90.7166598  76.3931461  14.1623384  88.3556653  77.0104828
  14.6951721  87.5944941  76.7804136  13.6337466  88.0630305  77.7528983
  17.3293079  73.4616719  72.5398470  16.9857349  74.3518360  72.4637581
  17.6972042  73.2718376  71.6768055   5.3978930  85.7850249  65.3587072
   6.2354152  86.1947257  65.1420780   5.5757198  84.8449691  65.3287266
  17.2943362  83.4525330  61.0470905  16.7789986  84.2229934  61.2859293
  17.0220671  82.7790466  61.6703967  14.8790473  78.2975031  66.1056144
  14.0232070  77.9081881  65.9261782  15.2917425  78.3766991  65.2455929
  16.4089620  75.8321374  70.5047703  15.9054415  75.7951509  69.6915509
  16.7020227  76.7414117  70.5644360  12.6532506  75.9160104  69.5113885
  13.5185502  75.7202912  69.1519775  12.7210015  75.6870455  70.4383242
  22.2677636  86.2057684  62.9824079  21.4907079  85.8668844  62.5379241
  22.9469117  86.2110308  62.3079044  17.0829665  81.3252422  62.8730686
  16.7779801  81.6398571  63.7240830  18.0360107  81.4033842  62.9158019
  15.5276097  87.4842645  64.5223640  14.9997459  86.7495405  64.2096878
  15.0263600  88.2617322  64.2763609  20.5068943  85.6791666  69.6390687
  19.8492618  86.3690927  69.7270815  21.3109342  86.0688098  69.9824673
  10.2594825  78.1462311  66.8830252  10.8338577  77.9237493  66.1503445
  10.8465807  78.2151006  67.6358853  19.3174402  84.0336038  67.6894628
  19.8306284  84.6666030  68.1916338  19.9675626  83.4337234  67.3237988
  10.5864412  80.1766772  60.9026137   9.7501724  80.5141459  61.2235412
  10.4469182  80.0415752  59.9653274  12.5617492  75.0203560  65.6105321
  11.9081905  74.7052578  64.9861936  12.5197967  74.3979301  66.3365144
  13.6728697  85.3022855  57.5258613  12.7655759  85.0712109  57.7249762
  14.1699729  84.5060475  57.7132595  16.5796776  94.0120363  60.4455300
  15.9058475  94.3152059  61.0540257  16.9662598  94.8149443  60.0960757
  15.7955233  81.5085494  69.9352969  14.8777794  81.7300441  69.7774657
  16.2115376  81.5831804  69.0764676  16.5790281  82.9076910  65.0655649
  17.3262100  83.4198307  64.7562771  16.8481870  82.5860962  65.9260043
  14.8516931  85.4035450  62.0482604  13.9428150  85.1194483  62.1455073
  14.8812015  85.8234529  61.1885910  20.0836198  89.0142040  65.8173771
  19.6298525  88.1732950  65.8738962  19.4530165  89.6503438  66.1548551
  19.0269118  79.9434026  67.0474439  18.2891875  79.4311412  67.3784681
  19.2795891  79.5034407  66.2357715  18.5269137  90.8518536  66.7523589
  18.8192112  91.4123594  66.0335955  19.0367758  91.1447097  67.5076748
  19.1280745  72.7210278  67.6416208  19.4339622  71.8607641  67.3542123
  19.8533350  73.3127898  67.4415202   5.4205101  83.1240964  66.0297806
   5.2229501  82.5310325  65.3048872   4.8651765  82.8193175  66.7473745
  13.4001825  83.0164071  68.1492399  13.4550435  82.0637907  68.0734875
  12.5893027  83.1723510  68.6333697  14.5493019  86.9444194  59.3870682
  14.1112449  86.2280053  58.9276319  15.2903459  87.1720309  58.8255774
  11.3394185  81.6341131  65.9082778  10.5262050  81.9335301  66.3147970
  11.8353179  81.2396819  66.6257260  13.4902763  91.6298888  67.8417042
  13.4478941  91.8559734  66.9125574  14.4065461  91.3962262  67.9902844
  16.9368396  82.0982955  74.7397672  17.2917784  82.3254428  75.5992137
  17.5840528  82.4301332  74.1174927  22.6666133  85.2201391  65.4447001
  22.5284032  85.4102987  64.5168190  22.3102352  85.9820774  65.9015052
  10.8308259  79.2059486  71.5244013  11.4707639  79.0648245  70.8266976
   9.9985790  78.9194000  71.1482615  22.6935513  87.2877918  70.4558272
  23.1272020  87.1953207  71.3041326  23.4067094  87.2635418  69.8178288
  11.6068563  88.5061917  67.6379005  12.4009162  88.0112237  67.4361580
  10.8960256  87.9779780  67.2746711  16.4263408  90.8880012  71.9891373
  16.4800430  91.4570948  72.7569089  15.5578189  91.0581897  71.6245410
   7.9151327  82.6504998  63.7138758   6.9848915  82.5889454  63.9308720
   8.0108799  82.1280951  62.9175399   7.8336876  79.1759811  66.3017000
   8.0943693  80.0905144  66.1926160   8.6554048  78.7084254  66.4513612
   9.3061801  80.5897568  73.4715824   9.9784855  80.3814930  72.8228473
   8.4791588  80.3919654  73.0321056  23.5551063  87.3301619  72.9891158
  23.7486953  88.2347429  73.2350433  23.4551681  86.8709038  73.8229743
  15.2087373  77.2159509  75.4881485  14.5615288  77.9149459  75.3945961
  15.9788389  77.6495653  75.8557733  18.6166171  87.4808361  78.5632038
  18.4651678  87.2518913  77.6462122  18.6070851  88.4378963  78.5763383
  15.3851508  85.0540274  73.5478305  16.3143568  85.2051434  73.3747272
  14.9642538  85.1424295  72.6926951  14.1839839  89.0790939  71.3176842
  14.0450925  88.7109723  72.1902780  13.3954436  89.5938578  71.1460800
  14.7787991  94.1800035  62.6602379  14.9539747  93.7088078  63.4748001
  14.0920779  94.8065801  62.8883640  15.7345055  88.4572541  68.7065680
  15.3994887  88.4173311  69.6023330  15.2349000  87.7917257  68.2336090
   9.7089298  83.8640171  74.2318261   9.5709096  83.1320410  74.8329800
  10.6194222  83.7749071  73.9502449  18.6704246  85.8028576  58.9802740
  18.0533417  85.0775404  58.8835792  18.2020735  86.5637936  58.6369814
  12.3371599  83.5760131  73.7201941  13.0471218  82.9353323  73.6788559
  12.2940907  83.8273025  74.6428122  20.3258378  90.5127484  76.6408520
  20.2670924  89.8286704  75.9739103  20.7277896  91.2546474  76.1889146
  11.0500533  80.5625349  75.5397580  10.5137890  80.1116087  76.1919177
  10.4617242  80.6971257  74.7968045   9.3449077  97.3289398  69.4342239
   9.5845675  97.9607922  70.1121258   8.5018273  96.9777438  69.7207598
  10.4602792  80.0214000  58.1024044   9.5832258  79.9002801  57.7386291
  10.9360545  79.2300078  57.8502933  20.3275785  88.4767068  74.8722500
  19.4402564  88.1392990  74.9948899  20.8974336  87.7450099  75.1091265
   1.9804932  84.8091160  68.1965551   2.6675972  84.4952890  67.6086566
   1.8253061  85.7132524  67.9232803   6.7839654  79.6981356  72.6250575
   6.6997843  79.0907026  71.8900985   5.9622361  80.1890375  72.6260071
  13.8576939  93.1368520  71.8383743  13.7847110  93.9423492  72.3503048
  13.4154332  93.3360486  71.0131764  13.6466718  92.3740290  65.3486564
  12.8634240  92.9161970  65.4424789  14.3459463  92.8914270  65.7480806
  16.9563368  78.1834920  67.9920770  17.4532068  77.4304882  67.6721840
  16.1850350  78.2199236  67.4263979  24.8093126  83.8875285  69.6339061
  24.7983002  84.7700001  69.2632994  23.9410505  83.5346836  69.4393598
  16.3175622  93.0355354  73.9941902  17.0303594  93.6702819  73.9217803
  15.8265651  93.1319220  73.1781903  18.0393149  86.9406607  65.5659193
  17.1049428  87.0608069  65.3963898  18.2169817  86.0379074  65.3019203
  13.5398337  80.3252303  67.7192454  13.1696125  79.7723343  68.4073360
  14.0357429  79.7210436  67.1667455  21.4265700  82.7823926  66.1009227
  21.8926152  83.6151918  66.0269530  21.8773201  82.3168908  66.8054486
  11.3687536  90.7849798  74.8147472  12.0696995  91.4186281  74.9676867
  10.8982651  91.1264529  74.0543112  19.4941931  89.1267748  63.0995379
  19.7701775  89.0124342  64.0089254  18.6246430  88.7285232  63.0607553
  19.3982363  75.1504513  70.1400129  18.4845443  75.3808740  70.3082336
  19.8275464  75.2342957  70.9914161  19.1688822  83.3394405  72.6400023
  18.5160272  83.5870313  71.9852476  19.5469201  82.5258543  72.3062500
  16.1295995  93.3754098  66.7428193  16.3118390  92.5575754  67.2055945
  16.9528981  93.5921791  66.3053083  16.4638161  92.3022284  64.0043242
  16.9925927  91.7914738  63.3913404  16.7266380  91.9864814  64.8688775
  15.2176395  84.0814216  79.1266060  14.5417032  83.9808346  79.7968435
  16.0404028  83.9253430  79.5902057   6.9655254  90.3186153  71.7478575
   7.5508690  89.5729841  71.8806479   6.7680092  90.6290110  72.6315239
   9.8193909  93.3537400  66.7641017   9.1504284  93.8383528  66.2805058
   9.6806779  93.6006621  67.6784396   1.5572908  82.8891753  70.4683018
   1.5957008  82.3555344  71.2620136   1.0513201  82.3626959  69.8493995
  13.9599177  95.3881144  73.3623676  14.5117485  95.5512765  74.1272761
  14.3005371  95.9785582  72.6903701   8.9363671  77.7356294  73.9645561
   9.0004997  78.5971124  73.5522958   8.8730791  77.1230295  73.2317919
   8.4115943  79.8079426  77.6118595   9.0387982  79.4256503  78.2256119
   7.5543862  79.5893628  77.9774287  18.8110052  90.2142401  79.2172330
  19.3549956  90.8272359  78.7227285  18.2296897  90.7721980  79.7339343
   5.1881486  81.6155855  63.5436950   5.4834927  80.7066534  63.4904003
   4.2869522  81.5943595  63.2217952  17.0967565  93.3363119  70.3487358
  16.9718704  92.5352859  69.8398304  17.7546656  93.8309313  69.8601328
   8.7175733  79.6911852  69.5264498   7.9962319  80.3047819  69.3871972
   9.5068989  80.2269617  69.4481144  19.1602473  91.1372139  71.9766908
  18.2132809  91.0177491  71.9045235  19.5085246  90.2494637  72.0593170
  11.5202046  77.0266278  75.8005150  12.0436448  77.2728575  76.5631459
  11.3014380  77.8586313  75.3808287   6.9169328  79.2969953  63.6676275
   6.5882034  78.4167332  63.4851381   7.2708698  79.2417622  64.5552664
  16.1648906  90.9324856  68.1771260  16.0173869  90.0041563  68.3578830
  16.9902400  90.9544946  67.6928336  10.0311151  79.5842923  64.0351752
  10.3707223  80.1128844  63.3130361  10.4783271  79.9223329  64.8110319
  19.7683028  91.7553414  69.2636133  20.6929576  91.5496276  69.1260584
  19.5998332  91.5069815  70.1725475  12.7254592  77.9679973  73.4854821
  12.3851412  77.1687786  73.8875500  12.0193598  78.2681684  72.9131654
  13.3771063  75.0529286  71.9382144  14.1997133  74.5789764  71.8161034
  13.6209127  75.8319770  72.4380830  12.0179298  78.0817544  62.2345045
  12.7387660  78.4598797  61.7308762  11.3944602  78.8006421  62.3380023
  16.1610421  78.7862693  63.1703378  16.3774035  79.6687331  62.8692206
  15.6804488  78.3948907  62.4409020  10.9009642  81.7448406  69.7474122
  10.7554223  82.0588709  70.6398404  10.4234846  82.3633307  69.1945021
  12.7606025  78.7350954  69.7955012  12.7467594  77.8392048  69.4587310
  13.4778453  78.7421618  70.4293298  14.6132156  79.1688295  71.8408139
  14.3549934  80.0905365  71.8392470  14.0817196  78.7718729  72.5308603
  19.5578344  92.2739082  64.6198225  19.7315222  91.7085504  63.8672077
  20.0507236  93.0739977  64.4377714   5.3755304  84.2853751  72.6861783
   4.8308772  85.0613559  72.8182058   6.2534654  84.6324555  72.5280905
  12.1642921  77.6165335  65.0642582  12.2858832  76.6881981  65.2633469
  11.8744963  77.6304021  64.1520897  15.0334111  75.3020245  68.2009302
  15.0555808  75.3659578  67.2461281  15.4502170  74.4624754  68.3949808
  25.4117736  85.0375505  66.2388524  25.8548882  84.2882830  65.8407648
  24.5344246  85.0285641  65.8562256  20.5453517  91.5905846  61.7195123
  21.2404422  92.2112539  61.9382437  20.8876667  90.7401197  61.9947501
   6.1621326  83.4123647  75.5791940   5.4203062  83.5606282  76.1656571
   5.8414070  83.6731913  74.7158690  22.4444940  89.0405552  63.2482454
  22.9696264  89.3792824  62.5231774  22.3567293  88.1052567  63.0645588
  14.1064989  92.9539625  75.3772330  14.4152115  92.7088772  76.2495030
  14.9040471  93.1586264  74.8891200  14.1285601  95.1077535  67.6077707
  13.6890591  94.6153914  68.3010563  14.8793718  94.5650503  67.3669782
   6.6077940  91.2989076  67.6102335   7.4335960  90.9992848  67.2300978
   6.2571992  90.5296698  68.0592124  11.5759473  90.6515544  69.6800008
  10.9539482  89.9886249  69.3802236  12.2464340  90.6776676  68.9973656
   4.8086545  89.2175402  68.5691268   3.9718453  88.7897577  68.3875270
   4.7810190  89.4107846  69.5062060  11.6484000  79.1297332  79.2732514
  11.6972156  80.0059455  78.8910284  12.1906515  78.5874725  78.7004158
  22.1338846  89.6738455  78.5533652  21.3434390  89.6562594  78.0138151
  21.8972201  90.2126749  79.3082688  22.2536721  86.5230922  75.8666380
  22.3034726  86.3580929  76.8081903  22.1450645  85.6558181  75.4764261
  11.1372980  89.2019467  63.1558469  11.2861100  89.8854932  62.5025142
  11.9439423  89.1824557  63.6707925  19.5440484  82.5061850  77.1825687
  20.4450346  82.3668315  76.8909685  19.6188458  82.6716305  78.1223864
  13.8783289  79.8828704  76.0278873  13.0086598  80.1762271  75.7561462
  14.1142769  80.4669149  76.7486137  23.7554918  88.9427863  76.1108402
  23.4639726  89.3057844  76.9471863  23.1427049  88.2294871  75.9321734
  24.9550600  86.5080743  68.6310972  25.7897492  86.9470547  68.7948532
  25.0909729  86.0319396  67.8119218  22.0042106  84.0660478  74.5788460
  22.4796228  84.2588124  73.7707311  21.0807672  84.1219664  74.3331843
   8.8925613  85.2284645  64.1619538   8.6471655  84.3246975  64.3599748
   9.0621527  85.2301795  63.2199016  16.5822323  76.1008321  73.5444294
  17.1004267  76.8369348  73.2190782  16.2277455  76.4072315  74.3791053
   8.1621260  80.9613003  61.6605699   7.4690505  81.0357358  61.0045735
   7.9173012  80.1973346  62.1827216  16.8334917  72.5208604  69.0645190
  17.1136671  71.8531793  69.6905617  17.6185524  72.7137700  68.5519854
  14.6368385  91.6967598  60.6270216  14.0642352  92.3157785  60.1740688
  15.2101179  92.2466960  61.1610138  20.7043775  80.9426238  72.8116765
  21.6561198  81.0424336  72.8328989  20.5347226  80.1504506  73.3214850
  18.7258155  78.0281821  72.9976166  18.1308087  78.3086834  72.3022655
  18.4407851  78.5175722  73.7692907  17.8565645  91.9804748  61.7578799
  18.7896318  91.9150310  61.9611674  17.7688858  92.8161015  61.2993331
  20.4853662  91.2970618  58.7182746  20.4067293  90.9630482  59.6118504
  21.3063329  91.7892386  58.7174219  23.1831853  84.1632358  71.9259065
  23.1508173  83.2248358  72.1118749  23.7932477  84.2416394  71.1924890
  15.0215184  83.0328411  57.9686269  15.9674289  82.9034619  58.0374687
  14.6429429  82.2943072  58.4455697  23.3326342  80.9543401  71.9717348
  22.8165390  80.1701858  71.7847277  24.2166290  80.6262118  72.1363868
  20.9937068  74.6984417  67.9313161  20.7961890  74.3899505  68.8156493
  21.6036774  75.4246056  68.0611091  29.0008403  85.2248364  71.0665102
  29.7311791  84.9633653  71.6272805  28.3915348  84.4877086  71.1067170
  27.0823700  83.3656227  71.6639553  26.3556864  83.2312192  71.0556044
  26.6670987  83.6733056  72.4696271  14.9053876  87.0846157  79.4286926
  15.8256886  87.2624756  79.6226972  14.8703459  86.1402202  79.2766625
  13.2058101  80.9578387  57.9041154  12.2989556  80.6611500  57.9803868
  13.4834082  80.6608205  57.0375440   4.1236041  82.2784750  68.3540201
   3.8038826  81.4250059  68.0614575   3.5769470  82.4933329  69.1098168
   7.9015949  84.9947191  72.0709707   8.1201959  85.9264299  72.0897741
   8.3141723  84.6355166  72.8564511  14.8220167  75.5015277  64.0585395
  14.0120895  75.1562362  64.4340642  15.5104584  75.1922820  64.6473007
  16.7510715  74.5793323  65.6809692  17.3041754  74.9988777  66.3399715
  16.9880801  73.6529072  65.7232648  12.7743814  80.5680397  81.4612456
  12.6740541  81.5174754  81.3924547  12.5565356  80.2398636  80.5888526
  11.9756886  77.8165322  58.0453133  12.8376050  78.1420220  58.3048951
  12.1607230  77.0296818  57.5326199   3.9924301  85.8987662  70.3233322
   3.2987773  85.4841615  69.8103277   4.7397292  85.9408198  69.7266741
  20.1289522  76.6893849  65.1888356  19.5488191  77.3478653  64.8066409
  19.8625455  75.8671193  64.7775774  18.5793089  76.0898906  67.3909677
  19.0792867  76.2015441  66.5823996  19.2228696  75.7859959  68.0310485
  12.6375084  83.9977536  80.2777518  12.1542166  84.7977896  80.4841407
  12.7236023  84.0085481  79.3244962   5.9061044  85.8305916  68.1999337
   5.8831732  85.9293603  67.2481220   6.2161680  86.6771066  68.5216503
   8.5648422  87.8882071  72.3145951   9.5191675  87.8566013  72.2475883
   8.3660945  87.4272694  73.1296177   9.1547804  86.4583187  74.8816749
   9.9740693  86.9527265  74.9051586   9.4284612  85.5415155  74.8534317
  18.9114400  78.8493939  64.2444705  18.0240255  79.1343590  64.0264899
  19.3268389  78.6887702  63.3971981  22.2628936  78.8740460  67.9599044
  23.0389326  79.3636912  68.2323661  21.5377070  79.2998514  68.4170913
  24.7001495  79.5868079  69.0172984  25.2945986  79.3463815  68.3066293
  24.7728079  78.8675210  69.6446521   6.9198651  93.4301690  69.3316149
   6.7853119  92.6702091  68.7654147   6.5030713  94.1542590  68.8644938
  18.0557614  88.6138614  58.3392725  18.7593464  88.8188616  58.9550380
  17.3320262  89.1815376  58.6041808  18.8855424  84.3648475  64.4594995
  18.8290625  84.8217026  63.6202627  19.4383766  83.6039160  64.2817838
  22.6960230  80.1538207  65.2845114  22.4397164  79.7534842  66.1153322
  22.0713098  80.8682001  65.1595253  27.0072568  82.8934280  67.7916406
  26.4472126  82.9627469  68.5647968  26.4016071  82.7175265  67.0715902
  10.0767776  94.3271007  69.5434592   9.9600161  95.2716440  69.4413282
   9.2560223  94.0244569  69.9320391  19.9644311  89.0521143  60.3891185
  20.7989915  88.6202341  60.2068659  19.8028654  88.8803157  61.3168079
  19.6190203  85.5553256  61.7547524  19.5639007  85.3897528  60.8135968
  18.9936258  86.2629289  61.9109714   4.4082718  80.7921321  75.5808946
   5.0541582  80.2820275  76.0696171   4.1999869  81.5290002  76.1552371
  16.9336110  87.8602168  81.0801087  17.8027270  88.0342820  80.7187722
  16.4542862  88.6796585  80.9576816  12.9286329  75.0561365  61.3332842
  12.9164999  76.0003205  61.4901113  13.8209751  74.8731511  61.0392304
  11.1022291  94.9799269  72.7590520  12.0049537  95.0122879  73.0757015
  10.8759661  94.0499720  72.7736856  12.8575893  93.7330256  69.4200599
  11.9071524  93.7332117  69.3064971  13.1608379  92.9862990  68.9036634
  16.7438448  71.6504142  65.5878779  15.9770844  71.0962629  65.7335461
  17.1549153  71.7226011  66.4492931   8.7480209  77.9388938  79.6783960
   9.6111671  77.5825742  79.8887285   8.1745620  77.6002832  80.3659365
  28.5928586  99.5690794  70.4846361  29.2306996  99.4497541  69.7809701
  28.4749429 100.5171638  70.5434314  25.4018292  99.5218222  70.4207886
  25.0636804  99.4059287  69.5328421  26.2708061  99.1209387  70.4008892
  21.2605108 101.3753699  66.4104777  20.6969973 101.2843635  65.6421065
  21.1457503 100.5553603  66.8907270  25.8838075 100.6753074  76.3794092
  25.8726716 100.2805872  75.5074595  26.0458715  99.9419146  76.9727863
  18.8069540 102.8704890  69.2488997  19.5990832 102.5295715  68.8335297
  19.0466190 102.9799865  70.1691151  26.8404667 105.0424666  61.7219242
  26.1892647 105.6278747  61.3353256  27.6349030 105.5730861  61.7814279
  20.7660294 102.1313803  62.1206376  21.5391170 101.5842790  61.9819252
  21.1185693 102.9958053  62.3320838  22.6045337 103.4590186  75.3273276
  22.3135203 104.3635816  75.2119942  23.2402321 103.5006713  76.0417345
  23.5301543 100.8367034  71.9174635  24.1265116 100.6123057  71.2031598
  23.5876515 100.0951780  72.5200083  23.1026572  98.2906469  59.7524826
  23.3552092  97.7687991  58.9908289  22.1651131  98.1272615  59.8551510
  28.1469855  97.2942248  67.5599569  28.9332944  96.8761671  67.2089986
  28.4108559  98.1988340  67.7281218  28.3179932 102.7315098  62.2588226
  27.6825765 102.8049725  62.9709131  27.9877338 103.3208697  61.5807305
  33.5478282  97.2317481  68.4632548  34.2803454  96.6616698  68.6970377
  32.7917637  96.8439081  68.9039054  22.8222861 100.1934575  61.9549201
  22.7059119  99.5179479  62.6230285  22.9325120  99.7066949  61.1381354
  25.1654401  99.6544723  65.6595890  24.8012609  99.1275344  66.3708812
  26.0221517  99.2643192  65.4862376  31.0703702  90.9439055  72.9227157
  30.7387027  91.8134466  72.6988372  30.4749315  90.6275339  73.6021187
  24.8059888  94.6834622  60.6557239  24.9734291  95.5514859  61.0227710
  24.6157058  94.8461904  59.7318528  27.5635222 103.1451601  72.3223069
  27.2635945 104.0476640  72.2138876  27.2186281 102.8783784  73.1744222
  21.0147703  99.5965398  68.3559774  20.0898200  99.4641612  68.5637465
  21.2632116 100.3759617  68.8529716  30.9632365  95.6634141  70.0020507
  30.0549243  95.5949550  69.7079268  30.9119961  96.1406086  70.8302332
  24.7849109  97.1392280  61.6403906  24.6648735  97.5849331  62.4789386
  24.0901698  97.4877597  61.0817444  18.3756514  99.2398672  69.1903563
  18.5048895  99.4933150  70.1042974  17.6953965  99.8326380  68.8708218
  22.5456001 109.9095921  65.2894037  22.4680031 110.8603747  65.3682518
  21.9417645 109.5641794  65.9468963  25.0373231  97.0823787  77.9455404
  24.2606565  97.6417707  77.9358268  25.6763794  97.5680570  78.4670274
  32.8294012  93.8650580  71.7798381  32.1868392  94.1583113  71.1338175
  32.3248940  93.7503500  72.5851577  30.4834175  97.6113753  62.4684240
  31.3952032  97.8441140  62.2931937  29.9743823  98.1950797  61.9059318
  23.2919603  99.8909240  77.5073371  24.0334288 100.4294284  77.2308194
  22.5856589 100.5175529  77.6644923  28.7674943 102.0338381  76.1045532
  29.1758299 101.5920791  75.3600165  28.0452205 101.4591008  76.3579725
  25.1206013  96.9710988  73.4779089  25.9667208  97.3950401  73.6213738
  25.0604651  96.3144612  74.1717652  29.0903758 102.5939571  69.8597821
  28.4612620 102.7585286  69.1573889  28.7029420 103.0081181  70.6308785
  32.9692990 103.5294009  67.2142185  32.2844028 103.9092911  66.6639218
  33.0536839 104.1389336  67.9474133  28.2705459  94.6315356  75.1360263
  28.0266390  95.3857416  74.5994539  28.5465389  95.0100703  75.9707510
  30.2243921 101.1753968  73.8137529  30.4360817 101.8185728  73.1371910
  30.1773670 100.3416285  73.3459459  27.8270150  93.7871789  70.7174101
  26.9654629  94.0853042  71.0090838  27.8532585  94.0042188  69.7855133
  24.6431720 102.3313979  67.1247906  25.1070065 102.6101682  66.3352529
  24.3788518 101.4297424  66.9420997  21.5355801 101.8785461  70.0627670
  22.1057158 102.3072729  69.4245154  22.1263913 101.5968046  70.7611855
  23.5800606  98.4537132  63.9337471  24.2824649  98.9058175  64.4011398
  23.2481234  97.8120951  64.5617365  22.0280967  97.0448888  78.3088681
  21.3979628  97.7265169  78.5424078  21.9217055  96.9331970  77.3641819
  17.3225940  96.7120684  69.2354605  16.5324994  96.9678213  68.7594716
  17.8137187  97.5269022  69.3406646  31.3389749 104.0525924  71.9859886
  32.1607193 103.6506111  71.7042567  31.3352152 103.9494158  72.9376002
  19.2740685  97.0765264  66.1938082  18.4771848  97.1883958  66.7121577
  19.0466277  97.4151916  65.3278972  25.1046353 103.6009967  74.1420596
  25.1690785 104.0630374  74.9778768  24.3957277 102.9707332  74.2702906
  15.6063643  96.9651175  71.6669596  15.8571681  97.8498185  71.9327172
  16.1423191  96.7855776  70.8944688  39.4295742 100.3964672  68.3344857
  38.6759451  99.8272070  68.1788862  39.5643283 100.3627337  69.2815492
  24.8194370 105.2678074  64.0099577  24.6840045 106.1129610  64.4384425
  25.3604183 105.4697352  63.2465510  21.3061710  91.3469654  80.6713932
  20.9128656  90.7935853  81.3461576  22.1227850  91.6580233  81.0620449
  18.2723768 102.7853512  64.5827502  18.7848288 103.5796763  64.7333066
  18.9246481 102.0879803  64.5161103  20.0818652 105.9019269  66.6650255
  20.2585281 106.8237233  66.4771239  20.8775486 105.5877688  67.0944635
  24.2229671  92.7627533  78.2634188  24.9639384  93.3634687  78.1838651
  24.4547594  92.0205171  77.7052231  19.3671009  97.9483901  76.5412418
  19.2524524  97.0469158  76.8419517  18.5115527  98.1947597  76.1897235
  26.4462847 105.8901641  78.1399919  26.0026701 105.1038020  77.8220823
  27.1080060 106.0780791  77.4743810  21.2049968 107.4197443  72.6660597
  21.7557393 107.2914506  71.8937591  20.3661444 107.7192332  72.3155490
  28.5444085 106.1704441  76.1681320  28.5262560 106.9913322  75.6761589
  29.4664005 106.0458516  76.3931461  25.0017139 103.6848570  77.0104828
  25.5345476 102.9236859  76.7804136  24.4731220 103.3922222  77.7528983
  28.1686834  88.7908636  72.5398470  27.8251103  89.6810278  72.4637581
  28.5365797  88.6010294  71.6768055  16.2372685 101.1142167  65.3587072
  17.0747907 101.5239175  65.1420780  16.4150952 100.1741609  65.3287266
  28.1337117  98.7817247  61.0470905  27.6183740  99.5521852  61.2859293
  27.8614425  98.1082384  61.6703967  25.7184228  93.6266948  66.1056144
  24.8625824  93.2373799  65.9261782  26.1311179  93.7058909  65.2455929
  27.2483374  91.1613291  70.5047703  26.7448170  91.1243427  69.6915509
  27.5413981  92.0706034  70.5644360  23.4926260  91.2452021  69.5113885
  24.3579257  91.0494830  69.1519775  23.5603769  91.0162373  70.4383242
  33.1071391 101.5349602  62.9824079  32.3300834 101.1960762  62.5379241
  33.7862872 101.5402225  62.3079044  27.9223420  96.6544340  62.8730686
  27.6173555  96.9690489  63.7240830  28.8753862  96.7325759  62.9158019
  26.3669852 102.8134563  64.5223640  25.8391213 102.0787322  64.2096878
  25.8657354 103.5909239  64.2763609  31.3462698 101.0083583  69.6390687
  30.6886372 101.6982845  69.7270815  32.1503097 101.3980015  69.9824673
  21.0988579  93.4754229  66.8830252  21.6732331  93.2529411  66.1503445
  21.6859562  93.5442924  67.6358853  30.1568156  99.3627956  67.6894628
  30.6700038  99.9957948  68.1916338  30.8069380  98.7629152  67.3237988
  21.4258166  95.5058690  60.9026137  20.5895479  95.8433377  61.2235412
  21.2862936  95.3707670  59.9653274  23.4011247  90.3495478  65.6105321
  22.7475659  90.0344495  64.9861936  23.3591721  89.7271218  66.3365144
  24.5122452 100.6314773  57.5258613  23.6049514 100.4004027  57.7249762
  25.0093484  99.8352392  57.7132595  27.4190531 109.3412280  60.4455300
  26.7452229 109.6443977  61.0540257  27.8056353 110.1441361  60.0960757
  26.6348987  96.8377412  69.9352969  25.7171549  97.0592359  69.7774657
  27.0509131  96.9123722  69.0764676  27.4184035  98.2368827  65.0655649
  28.1655854  98.7490224  64.7562771  27.6875625  97.9152880  65.9260043
  25.6910685 100.7327368  62.0482604  24.7821905 100.4486401  62.1455073
  25.7205769 101.1526447  61.1885910  30.9229953 104.3433957  65.8173771
  30.4692280 103.5024867  65.8738962  30.2923919 104.9795356  66.1548551
  29.8662872  95.2725944  67.0474439  29.1285629  94.7603330  67.3784681
  30.1189646  94.8326325  66.2357715  29.3662892 106.1810454  66.7523589
  29.6585866 106.7415511  66.0335955  29.8761512 106.4739015  67.5076748
  29.9674500  88.0502196  67.6416208  30.2733376  87.1899559  67.3542123
  30.6927104  88.6419816  67.4415202  16.2598856  98.4532882  66.0297806
  16.0623255  97.8602243  65.3048872  15.7045520  98.1485092  66.7473745
  24.2395579  98.3455989  68.1492399  24.2944189  97.3929825  68.0734875
  23.4286781  98.5015428  68.6333697  25.3886773 102.2736112  59.3870682
  24.9506203 101.5571971  58.9276319  26.1297214 102.5012226  58.8255774
  22.1787939  96.9633048  65.9082778  21.3655805  97.2627219  66.3147970
  22.6746933  96.5688737  66.6257260  24.3296517 106.9590805  67.8417042
  24.2872696 107.1851652  66.9125574  25.2459216 106.7254180  67.9902844
  27.7762151  97.4274873  74.7397672  28.1311539  97.6546346  75.5992137
  28.4234282  97.7593250  74.1174927  33.5059888 100.5493309  65.4447001
  33.3677786 100.7394905  64.5168190  33.1496107 101.3112692  65.9015052
  21.6702014  94.5351404  71.5244013  22.3101393  94.3940163  70.8266976
  20.8379545  94.2485917  71.1482615  33.5329267 102.6169836  70.4558272
  33.9665774 102.5245125  71.3041326  34.2460848 102.5927336  69.8178288
  22.4462318 103.8353834  67.6379005  23.2402916 103.3404154  67.4361580
  21.7354010 103.3071697  67.2746711  27.2657162 106.2171930  71.9891373
  27.3194185 106.7862866  72.7569089  26.3971944 106.3873815  71.6245410
  18.7545081  97.9796916  63.7138758  17.8242669  97.9181371  63.9308720
  18.8502553  97.4572869  62.9175399  18.6730630  94.5051729  66.3017000
  18.9337448  95.4197062  66.1926160  19.4947803  94.0376171  66.4513612
  20.1455556  95.9189486  73.4715824  20.8178609  95.7106848  72.8228473
  19.3185342  95.7211572  73.0321056  34.3944817 102.6593536  72.9891158
  34.5880707 103.5639347  73.2350433  34.2945435 102.2000955  73.8229743
  26.0481128  92.5451427  75.4881485  25.4009043  93.2441377  75.3945961
  26.8182143  92.9787571  75.8557733  29.4559926 102.8100279  78.5632038
  29.3045432 102.5810831  77.6462122  29.4464605 103.7670881  78.5763383
  26.2245262 100.3832192  73.5478305  27.1537322 100.5343351  73.3747272
  25.8036292 100.4716213  72.6926951  25.0233594 104.4082856  71.3176842
  24.8844680 104.0401641  72.1902780  24.2348190 104.9230496  71.1460800
  25.6181746 109.5091953  62.6602379  25.7933502 109.0379996  63.4748001
  24.9314534 110.1357719  62.8883640  26.5738809 103.7864459  68.7065680
  26.2388642 103.7465229  69.6023330  26.0742755 103.1209175  68.2336090
  20.5483053  99.1932089  74.2318261  20.4102851  98.4612328  74.8329800
  21.4587976  99.1040989  73.9502449  29.5098001 101.1320493  58.9802740
  28.8927171 100.4067321  58.8835792  29.0414489 101.8929854  58.6369814
  23.1765354  98.9052048  73.7201941  23.8864972  98.2645241  73.6788559
  23.1334662  99.1564943  74.6428122  31.1652132 105.8419402  76.6408520
  31.1064678 105.1578622  75.9739103  31.5671651 106.5838392  76.1889146
  21.8894288  95.8917266  75.5397580  21.3531645  95.4408005  76.1919177
  21.3010996  96.0263175  74.7968045  20.1842831 112.6581315  69.4342239
  20.4239429 113.2899840  70.1121258  19.3412028 112.3069356  69.7207598
  21.2996547  95.3505918  58.1024044  20.4226013  95.2294718  57.7386291
  21.7754300  94.5591996  57.8502933  31.1669540 103.8058986  74.8722500
  30.2796318 103.4684907  74.9948899  31.7368091 103.0742017  75.1091265
  12.8198687 100.1383077  68.1965551  13.5069727  99.8244807  67.6086566
  12.6646815 101.0424442  67.9232803  17.6233409  95.0273274  72.6250575
  17.5391598  94.4198943  71.8900985  16.8016115  95.5182292  72.6260071
  24.6970693 108.4660438  71.8383743  24.6240864 109.2715409  72.3503048
  24.2548086 108.6652404  71.0131764  24.4860473 107.7032208  65.3486564
  23.7027995 108.2453888  65.4424789  25.1853218 108.2206188  65.7480806
  27.7957123  93.5126837  67.9920770  28.2925822  92.7596800  67.6721840
  27.0244104  93.5491154  67.4263979  35.6486880  99.2167203  69.6339061
  35.6376756 100.0991918  69.2632994  34.7804260  98.8638754  69.4393598
  27.1569377 108.3647272  73.9941902  27.8697349 108.9994737  73.9217803
  26.6659405 108.4611138  73.1781903  28.8786903 102.2698525  65.5659193
  27.9443182 102.3899987  65.3963898  29.0563572 101.3670991  65.3019203
  24.3792091  95.6544220  67.7192454  24.0089879  95.1015261  68.4073360
  24.8751184  95.0502354  67.1667455  32.2659455  98.1115844  66.1009227
  32.7319907  98.9443836  66.0269530  32.7166955  97.6460825  66.8054486
  22.2081290 106.1141715  74.8147472  22.9090750 106.7478198  74.9676867
  21.7376405 106.4556447  74.0543112  30.3335686 104.4559665  63.0995379
  30.6095530 104.3416260  64.0089254  29.4640185 104.0577150  63.0607553
  30.2376118  90.4796431  70.1400129  29.3239197  90.7100658  70.3082336
  30.6669219  90.5634875  70.9914161  30.0082576  98.6686323  72.6400023
  29.3554026  98.9162230  71.9852476  30.3862956  97.8550461  72.3062500
  26.9689750 108.7046016  66.7428193  27.1512144 107.8867672  67.2055945
  27.7922736 108.9213708  66.3053083  27.3031915 107.6314201  64.0043242
  27.8319682 107.1206656  63.3913404  27.5660135 107.3156731  64.8688775
  26.0570149  99.4106134  79.1266060  25.3810786  99.3100263  79.7968435
  26.8797783  99.2545348  79.5902057  17.8049008 105.6478070  71.7478575
  18.3902445 104.9021758  71.8806479  17.6073847 105.9582027  72.6315239
  20.6587663 108.6829318  66.7641017  19.9898039 109.1675445  66.2805058
  20.5200533 108.9298538  67.6784396  12.3966663  98.2183671  70.4683018
  12.4350762  97.6847261  71.2620136  11.8906956  97.6918876  69.8493995
  24.7992932 110.7173061  73.3623676  25.3511240 110.8804683  74.1272761
  25.1399125 111.3077499  72.6903701  19.7757425  93.0648211  73.9645561
  19.8398752  93.9263042  73.5522958  19.7124545  92.4522213  73.2317919
  19.2509698  95.1371344  77.6118595  19.8781736  94.7548421  78.2256119
  18.3937617  94.9185546  77.9774287  29.6503806 105.5434319  79.2172330
  30.1943710 106.1564277  78.7227285  29.0690651 106.1013897  79.7339343
  16.0275240  96.9447773  63.5436950  16.3228682  96.0358451  63.4904003
  15.1263276  96.9235512  63.2217952  27.9361319 108.6655037  70.3487358
  27.8112459 107.8644777  69.8398304  28.5940410 109.1601230  69.8601328
  19.5569487  95.0203769  69.5264498  18.8356073  95.6339737  69.3871972
  20.3462743  95.5561534  69.4481144  29.9996228 106.4664057  71.9766908
  29.0526563 106.3469408  71.9045235  30.3479001 105.5786555  72.0593170
  22.3595801  92.3558196  75.8005150  22.8830203  92.6020492  76.5631459
  22.1408134  93.1878231  75.3808287  17.7563082  94.6261870  63.6676275
  17.4275788  93.7459249  63.4851381  18.1102453  94.5709539  64.5552664
  27.0042661 106.2616773  68.1771260  26.8567623 105.3333481  68.3578830
  27.8296154 106.2836864  67.6928336  20.8704905  94.9134840  64.0351752
  21.2100978  95.4420762  63.3130361  21.3177026  95.2515246  64.8110319
  30.6076783 107.0845332  69.2636133  31.5323330 106.8788193  69.1260584
  30.4392086 106.8361733  70.1725475  23.5648346  93.2971891  73.4854821
  23.2245166  92.4979704  73.8875500  22.8587352  93.5973602  72.9131654
  24.2164818  90.3821203  71.9382144  25.0390887  89.9081682  71.8161034
  24.4602881  91.1611687  72.4380830  22.8573052  93.4109462  62.2345045
  23.5781415  93.7890715  61.7308762  22.2338356  94.1298339  62.3380023
  27.0004175  94.1154611  63.1703378  27.2167790  94.9979249  62.8692206
  26.5198242  93.7240824  62.4409020  21.7403397  97.0740324  69.7474122
  21.5947977  97.3880627  70.6398404  21.2628600  97.6925224  69.1945021
  23.5999779  94.0642872  69.7955012  23.5861348  93.1683965  69.4587310
  24.3172208  94.0713536  70.4293298  25.4525910  94.4980212  71.8408139
  25.1943688  95.4197283  71.8392470  24.9210951  94.1010647  72.5308603
  30.3972099 107.6030999  64.6198225  30.5708976 107.0377422  63.8672077
  30.8900990 108.4031894  64.4377714  16.2149059  99.6145668  72.6861783
  15.6702527 100.3905476  72.8182058  17.0928409  99.9616473  72.5280905
  23.0036675  92.9457252  65.0642582  23.1252587  92.0173899  65.2633469
  22.7138718  92.9595938  64.1520897  25.8727866  90.6312163  68.2009302
  25.8949563  90.6951496  67.2461281  26.2895925  89.7916671  68.3949808
  36.2511490 100.3667422  66.2388524  36.6942636  99.6174748  65.8407648
  35.3738000 100.3577559  65.8562256  31.3847271 106.9197764  61.7195123
  32.0798176 107.5404456  61.9382437  31.7270422 106.0693115  61.9947501
  17.0015081  98.7415565  75.5791940  16.2596817  98.8898200  76.1656571
  16.6807825  99.0023830  74.7158690  33.2838695 104.3697469  63.2482454
  33.8090019 104.7084742  62.5231774  33.1961047 103.4344485  63.0645588
  24.9458743 108.2831543  75.3772330  25.2545870 108.0380690  76.2495030
  25.7434225 108.4878181  74.8891200  24.9679355 110.4369453  67.6077707
  24.5284346 109.9445831  68.3010563  25.7187472 109.8942420  67.3669782
  17.4471694 106.6280993  67.6102335  18.2729714 106.3284765  67.2300978
  17.0965746 105.8588616  68.0592124  22.4153227 105.9807462  69.6800008
  21.7933237 105.3178167  69.3802236  23.0858094 106.0068594  68.9973656
  15.6480299 104.5467320  68.5691268  14.8112208 104.1189494  68.3875270
  15.6203945 104.7399763  69.5062060  22.4877755  94.4589250  79.2732514
  22.5365910  95.3351373  78.8910284  23.0300269  93.9166643  78.7004158
  32.9732601 105.0030373  78.5533652  32.1828144 104.9854512  78.0138151
  32.7365955 105.5418667  79.3082688  33.0930476 101.8522839  75.8666380
  33.1428481 101.6872847  76.8081903  32.9844399 100.9850098  75.4764261
  21.9766734 104.5311385  63.1558469  22.1254855 105.2146849  62.5025142
  22.7833178 104.5116475  63.6707925  30.3834238  97.8353767  77.1825687
  31.2844101  97.6960232  76.8909685  30.4582213  98.0008222  78.1223864
  24.7177043  95.2120622  76.0278873  23.8480353  95.5054188  75.7561462
  24.9536524  95.7961067  76.7486137  34.5948672 104.2719781  76.1108402
  34.3033481 104.6349761  76.9471863  33.9820804 103.5586789  75.9321734
  35.7944355 101.8372661  68.6310972  36.6291246 102.2762465  68.7948532
  35.9303484 101.3611314  67.8119218  32.8435861  99.3952395  74.5788460
  33.3189982  99.5880042  73.7707311  31.9201426  99.4511581  74.3331843
  19.7319367 100.5576563  64.1619538  19.4865409  99.6538893  64.3599748
  19.9015282 100.5593713  63.2199016  27.4216077  91.4300239  73.5444294
  27.9398021  92.1661266  73.2190782  27.0671210  91.7364232  74.3791053
  19.0015015  96.2904920  61.6605699  18.3084260  96.3649275  61.0045735
  18.7566767  95.5265264  62.1827216  27.6728671  87.8500522  69.0645190
  27.9530425  87.1823711  69.6905617  28.4579278  88.0429617  68.5519854
  25.4762140 107.0259515  60.6270216  24.9036107 107.6449703  60.1740688
  26.0494934 107.5758877  61.1610138  31.5437530  96.2718156  72.8116765
  32.4954953  96.3716253  72.8328989  31.3740980  95.4796424  73.3214850
  29.5651909  93.3573739  72.9976166  28.9701841  93.6378752  72.3022655
  29.2801606  93.8467640  73.7692907  28.6959400 107.3096666  61.7578799
  29.6290073 107.2442227  61.9611674  28.6082612 108.1452932  61.2993331
  31.3247416 106.6262536  58.7182746  31.2461048 106.2922400  59.6118504
  32.1457083 107.1184304  58.7174219  34.0225608  99.4924275  71.9259065
  33.9901928  98.5540276  72.1118749  34.6326231  99.5708312  71.1924890
  25.8608938  98.3620328  57.9686269  26.8068043  98.2326536  58.0374687
  25.4823183  97.6234990  58.4455697  34.1720096  96.2835319  71.9717348
  33.6559145  95.4993775  71.7847277  35.0560045  95.9554035  72.1363868
  31.8330823  90.0276334  67.9313161  31.6355644  89.7191422  68.8156493
  32.4430528  90.7537973  68.0611091  39.8402157 100.5540282  71.0665102
  40.5705546 100.2925570  71.6272805  39.2309103  99.8169004  71.1067170
  37.9217454  98.6948145  71.6639553  37.1950618  98.5604110  71.0556044
  37.5064741  99.0024973  72.4696271  25.7447631 102.4138074  79.4286926
  26.6650640 102.5916673  79.6226972  25.7097214 101.4694120  79.2766625
  24.0451856  96.2870305  57.9041154  23.1383311  95.9903417  57.9803868
  24.3227837  95.9900123  57.0375440  14.9629796  97.6076668  68.3540201
  14.6432580  96.7541976  68.0614575  14.4163224  97.8225246  69.1098168
  18.7409703 100.3239109  72.0709707  18.9595713 101.2556217  72.0897741
  19.1535477  99.9647083  72.8564511  25.6613921  90.8307194  64.0585395
  24.8514650  90.4854279  64.4340642  26.3498338  90.5214738  64.6473007
  27.5904470  89.9085241  65.6809692  28.1435508  90.3280695  66.3399715
  27.8274556  88.9820989  65.7232648  23.6137569  95.8972315  81.4612456
  23.5134296  96.8466672  81.3924547  23.3959111  95.5690554  80.5888526
  22.8150640  93.1457240  58.0453133  23.6769804  93.4712138  58.3048951
  23.0000984  92.3588736  57.5326199  14.8318056 101.2279580  70.3233322
  14.1381527 100.8133532  69.8103277  15.5791047 101.2700116  69.7266741
  30.9683277  92.0185766  65.1888356  30.3881946  92.6770570  64.8066409
  30.7019209  91.1963111  64.7775774  29.4186843  91.4190824  67.3909677
  29.9186621  91.5307359  66.5823996  30.0622451  91.1151877  68.0310485
  23.4768839  99.3269454  80.2777518  22.9935921 100.1269814  80.4841407
  23.5629778  99.3377398  79.3244962  16.7454798 101.1597833  68.1999337
  16.7225487 101.2585521  67.2481220  17.0555435 102.0062984  68.5216503
  19.4042176 103.2173988  72.3145951  20.3585430 103.1857931  72.2475883
  19.2054700 102.7564612  73.1296177  19.9941558 101.7875104  74.8816749
  20.8134447 102.2819183  74.9051586  20.2678366 100.8707073  74.8534317
  29.7508155  94.1785857  64.2444705  28.8634010  94.4635507  64.0264899
  30.1662144  94.0179620  63.3971981  33.1022691  94.2032378  67.9599044
  33.8783081  94.6928830  68.2323661  32.3770825  94.6290432  68.4170913
  35.5395249  94.9159997  69.0172984  36.1339740  94.6755733  68.3066293
  35.6121833  94.1967127  69.6446521  17.7592405 108.7593608  69.3316149
  17.6246873 107.9994009  68.7654147  17.3424467 109.4834508  68.8644938
  28.8951368 103.9430531  58.3392725  29.5987218 104.1480534  58.9550380
  28.1714017 104.5107293  58.6041808  29.7249178  99.6940393  64.4594995
  29.6684380 100.1508944  63.6202627  30.2777521  98.9331077  64.2817838
  33.5353984  95.4830124  65.2845114  33.2790919  95.0826760  66.1153322
  32.9106852  96.1973918  65.1595253  37.8466322  98.2226198  67.7916406
  37.2865880  98.2919387  68.5647968  37.2409826  98.0467182  67.0715902
  20.9161531 109.6562925  69.5434592  20.7993915 110.6008357  69.4413282
  20.0953977 109.3536486  69.9320391  30.8038066 104.3813061  60.3891185
  31.6383669 103.9494259  60.2068659  30.6422408 104.2095074  61.3168079
  30.4583958 100.8845174  61.7547524  30.4032761 100.7189445  60.8135968
  29.8330013 101.5921207  61.9109714  15.2476473  96.1213238  75.5808946
  15.8935336  95.6112192  76.0696171  15.0393624  96.8581920  76.1552371
  27.7729865 103.1894086  81.0801087  28.6421025 103.3634738  80.7187722
  27.2936616 104.0088503  80.9576816  23.7680083  90.3853283  61.3332842
  23.7558753  91.3295123  61.4901113  24.6603505  90.2023428  61.0392304
  21.9416045 110.3091187  72.7590520  22.8443292 110.3414797  73.0757015
  21.7153415 109.3791638  72.7736856  23.6969647 109.0622173  69.4200599
  22.7465278 109.0624035  69.3064971  24.0002133 108.3154908  68.9036634
  27.5832203  86.9796060  65.5878779  26.8164598  86.4254546  65.7335461
  27.9942908  87.0517928  66.4492931  19.5873964  93.2680855  79.6783960
  20.4505425  92.9117660  79.8887285  19.0139374  92.9294750  80.3659365
  39.4322341 114.8982712  70.4846361  40.0700751 114.7789459  69.7809701
  39.3143184 115.8463556  70.5434314  36.2412047 114.8510140  70.4207886
  35.9030558 114.7351204  69.5328421  37.1101815 114.4501305  70.4008892
  32.0998863 116.7045616  66.4104777  31.5363728 116.6135553  65.6421065
  31.9851258 115.8845521  66.8907270  36.7231830 116.0044992  76.3794092
  36.7120471 115.6097790  75.5074595  36.8852469 115.2711064  76.9727863
  29.6463295 118.1996808  69.2488997  30.4384586 117.8587632  68.8335297
  29.8859945 118.3091783  70.1691151  37.6798421 120.3716584  61.7219242
  37.0286401 120.9570664  61.3353256  38.4742784 120.9022779  61.7814279
  31.6054048 117.4605721  62.1206376  32.3784924 116.9134708  61.9819252
  31.9579447 118.3249970  62.3320838  33.4439091 118.7882103  75.3273276
  33.1528957 119.6927734  75.2119942  34.0796075 118.8298631  76.0417345
  34.3695298 116.1658952  71.9174635  34.9658870 115.9414974  71.2031598
  34.4270269 115.4243697  72.5200083  33.9420326 113.6198387  59.7524826
  34.1945847 113.0979908  58.9908289  33.0044885 113.4564533  59.8551510
  38.9863609 112.6234166  67.5599569  39.7726698 112.2053589  67.2089986
  39.2502313 113.5280258  67.7281218  39.1573686 118.0607016  62.2588226
  38.5219519 118.1341642  62.9709131  38.8271093 118.6500615  61.5807305
  44.3872036 112.5609399  68.4632548  45.1197208 111.9908616  68.6970377
  43.6311392 112.1730999  68.9039054  33.6616615 115.5226493  61.9549201
  33.5452873 114.8471396  62.6230285  33.7718875 115.0358867  61.1381354
  36.0048156 114.9836640  65.6595890  35.6406363 114.4567261  66.3708812
  36.8615272 114.5935109  65.4862376  41.9097457 106.2730973  72.9227157
  41.5780781 107.1426384  72.6988372  41.3143070 105.9567257  73.6021187
  35.6453643 110.0126540  60.6557239  35.8128045 110.8806776  61.0227710
  35.4550812 110.1753822  59.7318528  38.4028976 118.4743519  72.3223069
  38.1029699 119.3768558  72.2138876  38.0580036 118.2075702  73.1744222
  31.8541458 114.9257316  68.3559774  30.9291954 114.7933530  68.5637465
  32.1025871 115.7051535  68.8529716  41.8026120 110.9926059  70.0020507
  40.8942997 110.9241467  69.7079268  41.7513716 111.4698004  70.8302332
  35.6242864 112.4684197  61.6403906  35.5042489 112.9141248  62.4789386
  34.9295452 112.8169515  61.0817444  29.2150269 114.5690589  69.1903563
  29.3442650 114.8225068  70.1042974  28.5347720 115.1618297  68.8708218
  33.3849756 125.2387839  65.2894037  33.3073786 126.1895664  65.3682518
  32.7811399 124.8933712  65.9468963  35.8766986 112.4115705  77.9455404
  35.1000320 112.9709625  77.9358268  36.5157549 112.8972488  78.4670274
  43.6687766 109.1942497  71.7798381  43.0262147 109.4875031  71.1338175
  43.1642695 109.0795418  72.5851577  41.3227930 112.9405671  62.4684240
  42.2345786 113.1733057  62.2931937  40.8137577 113.5242715  61.9059318
  34.1313358 115.2201158  77.5073371  34.8728042 115.7586202  77.2308194
  33.4250343 115.8467447  77.6644923  39.6068698 117.3630298  76.1045532
  40.0152054 116.9212709  75.3600165  38.8845959 116.7882926  76.3579725
  35.9599768 112.3002905  73.4779089  36.8060963 112.7242319  73.6213738
  35.8998405 111.6436530  74.1717652  39.9297512 117.9231489  69.8597821
  39.3006375 118.0877203  69.1573889  39.5423174 118.3373099  70.6308785
  43.8086744 118.8585927  67.2142185  43.1237782 119.2384828  66.6639218
  43.8930593 119.4681254  67.9474133  39.1099213 109.9607274  75.1360263
  38.8660145 110.7149334  74.5994539  39.3859144 110.3392621  75.9707510
  41.0637676 116.5045886  73.8137529  41.2754571 117.1477646  73.1371910
  41.0167424 115.6708202  73.3459459  38.6663905 109.1163707  70.7174101
  37.8048384 109.4144960  71.0090838  38.6926339 109.3334105  69.7855133
  35.4825474 117.6605897  67.1247906  35.9463820 117.9393600  66.3352529
  35.2182272 116.7589342  66.9420997  32.3749555 117.2077379  70.0627670
  32.9450912 117.6364647  69.4245154  32.9657667 116.9259963  70.7611855
  34.4194360 113.7829050  63.9337471  35.1218404 114.2350093  64.4011398
  34.0874989 113.1412868  64.5617365  32.8674722 112.3740806  78.3088681
  32.2373382 113.0557087  78.5424078  32.7610810 112.2623888  77.3641819
  28.1619694 112.0412602  69.2354605  27.3718748 112.2970131  68.7594716
  28.6530942 112.8560940  69.3406646  42.1783504 119.3817841  71.9859886
  43.0000947 118.9798029  71.7042567  42.1745907 119.2786076  72.9376002
  30.1134440 112.4057181  66.1938082  29.3165603 112.5175876  66.7121577
  29.8860032 112.7443834  65.3278972  35.9440107 118.9301885  74.1420596
  36.0084540 119.3922292  74.9778768  35.2351031 118.2999250  74.2702906
  26.4457397 112.2943093  71.6669596  26.6965436 113.1790103  71.9327172
  26.9816946 112.1147694  70.8944688  50.2689497 115.7256590  68.3344857
  49.5153205 115.1563988  68.1788862  50.4037038 115.6919254  69.2815492
  35.6588125 120.5969992  64.0099577  35.5233800 121.4421528  64.4384425
  36.1997937 120.7989270  63.2465510  32.1455464 106.6761572  80.6713932
  31.7522410 106.1227771  81.3461576  32.9621605 106.9872150  81.0620449
  29.1117522 118.1145430  64.5827502  29.6242043 118.9088680  64.7333066
  29.7640235 117.4171721  64.5161103  30.9212407 121.2311186  66.6650255
  31.0979035 122.1529151  66.4771239  31.7169240 120.9169606  67.0944635
  35.0623425 108.0919451  78.2634188  35.8033139 108.6926604  78.1838651
  35.2941348 107.3497089  77.7052231  30.2064763 113.2775818  76.5412418
  30.0918279 112.3761076  76.8419517  29.3509281 113.5239515  76.1897235
  37.2856601 121.2193559  78.1399919  36.8420455 120.4329937  77.8220823
  37.9473815 121.4072709  77.4743810  32.0443722 122.7489360  72.6660597
  32.5951148 122.6206424  71.8937591  31.2055198 123.0484249  72.3155490
  39.3837839 121.4996359  76.1681320  39.3656315 122.3205240  75.6761589
  40.3057759 121.3750434  76.3931461  35.8410893 119.0140488  77.0104828
  36.3739230 118.2528776  76.7804136  35.3124975 118.7214140  77.7528983
  39.0080588 104.1200554  72.5398470  38.6644858 105.0102196  72.4637581
  39.3759551 103.9302212  71.6768055  27.0766439 116.4434084  65.3587072
  27.9141661 116.8531093  65.1420780  27.2544707 115.5033527  65.3287266
  38.9730871 114.1109165  61.0470905  38.4577495 114.8813770  61.2859293
  38.7008180 113.4374301  61.6703967  36.5577982 108.9558866  66.1056144
  35.7019578 108.5665716  65.9261782  36.9704934 109.0350827  65.2455929
  38.0877129 106.4905209  70.5047703  37.5841924 106.4535344  69.6915509
  38.3807736 107.3997952  70.5644360  34.3320015 106.5743939  69.5113885
  35.1973011 106.3786748  69.1519775  34.3997524 106.3454291  70.4383242
  43.9465145 116.8641520  62.9824079  43.1694588 116.5252679  62.5379241
  44.6256626 116.8694143  62.3079044  38.7617174 111.9836257  62.8730686
  38.4567310 112.2982406  63.7240830  39.7147616 112.0617677  62.9158019
  37.2063606 118.1426481  64.5223640  36.6784968 117.4079240  64.2096878
  36.7051109 118.9201157  64.2763609  42.1856452 116.3375501  69.6390687
  41.5280127 117.0274762  69.7270815  42.9896851 116.7271933  69.9824673
  31.9382334 108.8046147  66.8830252  32.5126086 108.5821328  66.1503445
  32.5253316 108.8734841  67.6358853  40.9961911 114.6919874  67.6894628
  41.5093793 115.3249866  68.1916338  41.6463135 114.0921069  67.3237988
  32.2651921 110.8350608  60.9026137  31.4289233 111.1725294  61.2235412
  32.1256690 110.6999588  59.9653274  34.2405001 105.6787396  65.6105321
  33.5869414 105.3636413  64.9861936  34.1985476 105.0563136  66.3365144
  35.3516206 115.9606691  57.5258613  34.4443268 115.7295944  57.7249762
  35.8487238 115.1644310  57.7132595  38.2584285 124.6704198  60.4455300
  37.5845984 124.9735895  61.0540257  38.6450107 125.4733278  60.0960757
  37.4742742 112.1669329  69.9352969  36.5565303 112.3884276  69.7774657
  37.8902885 112.2415640  69.0764676  38.2577790 113.5660745  65.0655649
  39.0049609 114.0782142  64.7562771  38.5269379 113.2444798  65.9260043
  36.5304440 116.0619286  62.0482604  35.6215659 115.7778318  62.1455073
  36.5599524 116.4818364  61.1885910  41.7623707 119.6725875  65.8173771
  41.3086034 118.8316785  65.8738962  41.1317674 120.3087274  66.1548551
  40.7056627 110.6017861  67.0474439  39.9679384 110.0895247  67.3784681
  40.9583400 110.1618243  66.2357715  40.2056646 121.5102372  66.7523589
  40.4979621 122.0707429  66.0335955  40.7155267 121.8030933  67.5076748
  40.8068254 103.3794113  67.6416208  41.1127131 102.5191477  67.3542123
  41.5320859 103.9711733  67.4415202  27.0992610 113.7824800  66.0297806
  26.9017010 113.1894160  65.3048872  26.5439274 113.4777010  66.7473745
  35.0789334 113.6747906  68.1492399  35.1337944 112.7221743  68.0734875
  34.2680536 113.8307345  68.6333697  36.2280528 117.6028029  59.3870682
  35.7899957 116.8863888  58.9276319  36.9690968 117.8304144  58.8255774
  33.0181694 112.2924966  65.9082778  32.2049559 112.5919137  66.3147970
  33.5140688 111.8980655  66.6257260  35.1690272 122.2882723  67.8417042
  35.1266450 122.5143569  66.9125574  36.0852970 122.0546098  67.9902844
  38.6155905 112.7566790  74.7397672  38.9705293 112.9838264  75.5992137
  39.2628037 113.0885167  74.1174927  44.3453642 115.8785226  65.4447001
  44.2071541 116.0686822  64.5168190  43.9889861 116.6404609  65.9015052
  32.5095768 109.8643322  71.5244013  33.1495148 109.7232081  70.8266976
  31.6773299 109.5777835  71.1482615  44.3723022 117.9461753  70.4558272
  44.8059529 117.8537042  71.3041326  45.0854603 117.9219254  69.8178288
  33.2856072 119.1645752  67.6379005  34.0796671 118.6696072  67.4361580
  32.5747765 118.6363615  67.2746711  38.1050917 121.5463847  71.9891373
  38.1587939 122.1154784  72.7569089  37.2365698 121.7165733  71.6245410
  29.5938836 113.3088834  63.7138758  28.6636424 113.2473289  63.9308720
  29.6896308 112.7864786  62.9175399  29.5124385 109.8343647  66.3017000
  29.7731202 110.7488980  66.1926160  30.3341557 109.3668089  66.4513612
  30.9849310 111.2481404  73.4715824  31.6572364 111.0398766  72.8228473
  30.1579097 111.0503490  73.0321056  45.2338572 117.9885454  72.9891158
  45.4274462 118.8931265  73.2350433  45.1339190 117.5292873  73.8229743
  36.8874882 107.8743345  75.4881485  36.2402797 108.5733294  75.3945961
  37.6575898 108.3079489  75.8557733  40.2953680 118.1392197  78.5632038
  40.1439187 117.9102748  77.6462122  40.2858360 119.0962798  78.5763383
  37.0639017 115.7124110  73.5478305  37.9931077 115.8635269  73.3747272
  36.6430047 115.8008130  72.6926951  35.8627348 119.7374774  71.3176842
  35.7238434 119.3693558  72.1902780  35.0741945 120.2522413  71.1460800
  36.4575500 124.8383870  62.6602379  36.6327256 124.3671914  63.4748001
  35.7708288 125.4649637  62.8883640  37.4132564 119.1156377  68.7065680
  37.0782396 119.0757147  69.6023330  36.9136509 118.4501093  68.2336090
  31.3876807 114.5224007  74.2318261  31.2496605 113.7904245  74.8329800
  32.2981731 114.4332907  73.9502449  40.3491755 116.4612411  58.9802740
  39.7320926 115.7359239  58.8835792  39.8808244 117.2221771  58.6369814
  34.0159108 114.2343966  73.7201941  34.7258727 113.5937158  73.6788559
  33.9728416 114.4856861  74.6428122  42.0045887 121.1711319  76.6408520
  41.9458433 120.4870539  75.9739103  42.4065405 121.9130309  76.1889146
  32.7288042 111.2209184  75.5397580  32.1925399 110.7699922  76.1919177
  32.1404751 111.3555093  74.7968045  32.1390301 110.6797835  58.1024044
  31.2619767 110.5586636  57.7386291  32.6148054 109.8883914  57.8502933
  42.0063294 119.1350903  74.8722500  41.1190073 118.7976825  74.9948899
  42.5761845 118.4033934  75.1091265  23.6592441 115.4674995  68.1965551
  24.3463481 115.1536725  67.6086566  23.5040570 116.3716360  67.9232803
  28.4627163 110.3565192  72.6250575  28.3785352 109.7490861  71.8900985
  27.6409870 110.8474210  72.6260071  35.5364447 123.7952356  71.8383743
  35.4634619 124.6007327  72.3503048  35.0941841 123.9944321  71.0131764
  35.3254227 123.0324126  65.3486564  34.5421749 123.5745806  65.4424789
  36.0246972 123.5498105  65.7480806  38.6350877 108.8418755  67.9920770
  39.1319577 108.0888717  67.6721840  37.8637859 108.8783072  67.4263979
  46.4880635 114.5459121  69.6339061  46.4770511 115.4283836  69.2632994
  45.6198014 114.1930671  69.4393598  37.9963131 123.6939190  73.9941902
  38.7091103 124.3286654  73.9217803  37.5053160 123.7903056  73.1781903
  39.7180658 117.5990442  65.5659193  38.7836937 117.7191905  65.3963898
  39.8957326 116.6962909  65.3019203  35.2185846 110.9836138  67.7192454
  34.8483634 110.4307178  68.4073360  35.7144938 110.3794272  67.1667455
  43.1053209 113.4407762  66.1009227  43.5713661 114.2735753  66.0269530
  43.5560710 112.9752743  66.8054486  33.0475045 121.4433633  74.8147472
  33.7484504 122.0770116  74.9676867  32.5770160 121.7848365  74.0543112
  41.1729440 119.7851583  63.0995379  41.4489284 119.6708177  64.0089254
  40.3033939 119.3869068  63.0607553  41.0769872 105.8088349  70.1400129
  40.1632952 106.0392575  70.3082336  41.5062973 105.8926793  70.9914161
  40.8476331 113.9978241  72.6400023  40.1947781 114.2454148  71.9852476
  41.2256710 113.1842379  72.3062500  37.8083504 124.0337934  66.7428193
  37.9905899 123.2159590  67.2055945  38.6316490 124.2505626  66.3053083
  38.1425670 122.9606119  64.0043242  38.6713436 122.4498573  63.3913404
  38.4053889 122.6448649  64.8688775  36.8963904 114.7398052  79.1266060
  36.2204541 114.6392181  79.7968435  37.7191537 114.5837265  79.5902057
  28.6442763 120.9769988  71.7478575  29.2296199 120.2313676  71.8806479
  28.4467601 121.2873945  72.6315239  31.4981418 124.0121236  66.7641017
  30.8291793 124.4967363  66.2805058  31.3594288 124.2590456  67.6784396
  23.2360417 113.5475588  70.4683018  23.2744517 113.0139179  71.2620136
  22.7300710 113.0210794  69.8493995  35.6386686 126.0464979  73.3623676
  36.1904994 126.2096601  74.1272761  35.9792880 126.6369417  72.6903701
  30.6151180 108.3940129  73.9645561  30.6792506 109.2554960  73.5522958
  30.5518300 107.7814131  73.2317919  30.0903452 110.4663261  77.6118595
  30.7175491 110.0840339  78.2256119  29.2331371 110.2477463  77.9774287
  40.4897561 120.8726237  79.2172330  41.0337465 121.4856195  78.7227285
  39.9084406 121.4305815  79.7339343  26.8668995 112.2739691  63.5436950
  27.1622436 111.3650369  63.4904003  25.9657031 112.2527430  63.2217952
  38.7755074 123.9946955  70.3487358  38.6506213 123.1936694  69.8398304
  39.4334165 124.4893148  69.8601328  30.3963242 110.3495687  69.5264498
  29.6749828 110.9631655  69.3871972  31.1856498 110.8853452  69.4481144
  40.8389982 121.7955975  71.9766908  39.8920318 121.6761326  71.9045235
  41.1872755 120.9078473  72.0593170  33.1989555 107.6850114  75.8005150
  33.7223957 107.9312410  76.5631459  32.9801889 108.5170148  75.3808287
  28.5956837 109.9553788  63.6676275  28.2669543 109.0751167  63.4851381
  28.9496207 109.9001457  64.5552664  37.8436415 121.5908691  68.1771260
  37.6961378 120.6625398  68.3578830  38.6689909 121.6128782  67.6928336
  31.7098660 110.2426758  64.0351752  32.0494732 110.7712679  63.3130361
  32.1570780 110.5807164  64.8110319  41.4470537 122.4137250  69.2636133
  42.3717085 122.2080111  69.1260584  41.2785841 122.1653651  70.1725475
  34.4042100 108.6263809  73.4854821  34.0638921 107.8271622  73.8875500
  33.6981107 108.9265520  72.9131654  35.0558572 105.7113121  71.9382144
  35.8784642 105.2373599  71.8161034  35.2996636 106.4903605  72.4380830
  33.6966807 108.7401380  62.2345045  34.4175169 109.1182632  61.7308762
  33.0732111 109.4590256  62.3380023  37.8397930 109.4446529  63.1703378
  38.0561544 110.3271166  62.8692206  37.3591997 109.0532742  62.4409020
  32.5797151 112.4032242  69.7474122  32.4341732 112.7172545  70.6398404
  32.1022355 113.0217142  69.1945021  34.4393534 109.3934790  69.7955012
  34.4255103 108.4975883  69.4587310  35.1565962 109.4005453  70.4293298
  36.2919665 109.8272130  71.8408139  36.0337442 110.7489201  71.8392470
  35.7604705 109.4302564  72.5308603  41.2365853 122.9322917  64.6198225
  41.4102731 122.3669340  63.8672077  41.7294745 123.7323812  64.4377714
  27.0542813 114.9437586  72.6861783  26.5096281 115.7197394  72.8182058
  27.9322163 115.2908391  72.5280905  33.8430430 108.2749170  65.0642582
  33.9646341 107.3465816  65.2633469  33.5532472 108.2887856  64.1520897
  36.7121620 105.9604080  68.2009302  36.7343317 106.0243414  67.2461281
  37.1289679 105.1208589  68.3949808  47.0905245 115.6959340  66.2388524
  47.5336391 114.9466665  65.8407648  46.2131755 115.6869476  65.8562256
  42.2241026 122.2489681  61.7195123  42.9191931 122.8696374  61.9382437
  42.5664176 121.3985033  61.9947501  27.8408835 114.0707482  75.5791940
  27.0990571 114.2190118  76.1656571  27.5201579 114.3315748  74.7158690
  44.1232449 119.6989387  63.2482454  44.6483773 120.0376660  62.5231774
  44.0354802 118.7636402  63.0645588  35.7852498 123.6123461  75.3772330
  36.0939624 123.3672607  76.2495030  36.5827980 123.8170099  74.8891200
  35.8073110 125.7661370  67.6077707  35.3678100 125.2737749  68.3010563
  36.5581227 125.2234338  67.3669782  28.2865449 121.9572911  67.6102335
  29.1123469 121.6576683  67.2300978  27.9359501 121.1880534  68.0592124
  33.2546982 121.3099379  69.6800008  32.6326991 120.6470084  69.3802236
  33.9251849 121.3360511  68.9973656  26.4874054 119.8759238  68.5691268
  25.6505962 119.4481412  68.3875270  26.4597699 120.0691681  69.5062060
  33.3271509 109.7881167  79.2732514  33.3759665 110.6643290  78.8910284
  33.8694024 109.2458560  78.7004158  43.8126355 120.3322291  78.5533652
  43.0221899 120.3146429  78.0138151  43.5759710 120.8710584  79.3082688
  43.9324230 117.1814757  75.8666380  43.9822235 117.0164764  76.8081903
  43.8238153 116.3142016  75.4764261  32.8160489 119.8603303  63.1558469
  32.9648609 120.5438767  62.5025142  33.6226932 119.8408393  63.6707925
  41.2227993 113.1645685  77.1825687  42.1237855 113.0252150  76.8909685
  41.2975967 113.3300140  78.1223864  35.5570798 110.5412540  76.0278873
  34.6874107 110.8346106  75.7561462  35.7930278 111.1252985  76.7486137
  45.4342427 119.6011699  76.1108402  45.1427235 119.9641679  76.9471863
  44.8214558 118.8878707  75.9321734  46.6338109 117.1664578  68.6310972
  47.4685001 117.6054382  68.7948532  46.7697238 116.6903232  67.8119218
  43.6829615 114.7244313  74.5788460  44.1583737 114.9171959  73.7707311
  42.7595181 114.7803499  74.3331843  30.5713122 115.8868480  64.1619538
  30.3259164 114.9830810  64.3599748  30.7409036 115.8885631  63.2199016
  38.2609832 106.7592157  73.5444294  38.7791776 107.4953184  73.2190782
  37.9064964 107.0656150  74.3791053  29.8408769 111.6196838  61.6605699
  29.1478014 111.6941193  61.0045735  29.5960521 110.8557182  62.1827216
  38.5122426 103.1792439  69.0645190  38.7924180 102.5115628  69.6905617
  39.2973033 103.3721535  68.5519854  36.3155894 122.3551433  60.6270216
  35.7429861 122.9741620  60.1740688  36.8888688 122.9050795  61.1610138
  42.3831284 111.6010073  72.8116765  43.3348707 111.7008171  72.8328989
  42.2134735 110.8088342  73.3214850  40.4045664 108.6865656  72.9976166
  39.8095596 108.9670669  72.3022655  40.1195360 109.1759557  73.7692907
  39.5353154 122.6388583  61.7578799  40.4683827 122.5734145  61.9611674
  39.4476367 123.4744850  61.2993331  42.1641171 121.9554454  58.7182746
  42.0854802 121.6214317  59.6118504  42.9850838 122.4476222  58.7174219
  44.8619362 114.8216193  71.9259065  44.8295682 113.8832194  72.1118749
  45.4719986 114.9000230  71.1924890  36.7002693 113.6912246  57.9686269
  37.6461798 113.5618454  58.0374687  36.3216938 112.9526908  58.4455697
  45.0113850 111.6127236  71.9717348  44.4952899 110.8285693  71.7847277
  45.8953799 111.2845953  72.1363868  42.6724577 105.3568252  67.9313161
  42.4749399 105.0483340  68.8156493  43.2824283 106.0829891  68.0611091
  50.6795912 115.8832200  71.0665102  51.4099300 115.6217488  71.6272805
  50.0702857 115.1460922  71.1067170  48.7611209 114.0240062  71.6639553
  48.0344373 113.8896027  71.0556044  48.3458496 114.3316891  72.4696271
  36.5841385 117.7429992  79.4286926  37.5044395 117.9208591  79.6226972
  36.5490968 116.7986037  79.2766625  34.8845610 111.6162222  57.9041154
  33.9777065 111.3195335  57.9803868  35.1621591 111.3192040  57.0375440
  25.8023550 112.9368586  68.3540201  25.4826335 112.0833894  68.0614575
  25.2556979 113.1517164  69.1098168  29.5803458 115.6531027  72.0709707
  29.7989468 116.5848135  72.0897741  29.9929232 115.2939001  72.8564511
  36.5007676 106.1599112  64.0585395  35.6908404 105.8146197  64.4340642
  37.1892093 105.8506656  64.6473007  38.4298224 105.2377159  65.6809692
  38.9829263 105.6572612  66.3399715  38.6668310 104.3112907  65.7232648
  34.4531323 111.2264232  81.4612456  34.3528050 112.1758589  81.3924547
  34.2352865 110.8982471  80.5888526  33.6544395 108.4749158  58.0453133
  34.5163559 108.8004056  58.3048951  33.8394739 107.6880653  57.5326199
  25.6711810 116.5571497  70.3233322  24.9775282 116.1425450  69.8103277
  26.4184801 116.5992034  69.7266741  41.8077031 107.3477684  65.1888356
  41.2275700 108.0062488  64.8066409  41.5412964 106.5255029  64.7775774
  40.2580597 106.7482742  67.3909677  40.7580376 106.8599276  66.5823996
  40.9016205 106.4443795  68.0310485  34.3162593 114.6561371  80.2777518
  33.8329675 115.4561731  80.4841407  34.4023532 114.6669316  79.3244962
  27.5848553 116.4889751  68.1999337  27.5619241 116.5877438  67.2481220
  27.8949189 117.3354902  68.5216503  30.2435931 118.5465906  72.3145951
  31.1979184 118.5149848  72.2475883  30.0448454 118.0856530  73.1296177
  30.8335313 117.1167022  74.8816749  31.6528202 117.6111101  74.9051586
  31.1072121 116.1998990  74.8534317  40.5901909 109.5077774  64.2444705
  39.7027764 109.7927425  64.0264899  41.0055898 109.3471538  63.3971981
  43.9416445 109.5324295  67.9599044  44.7176835 110.0220748  68.2323661
  43.2164579 109.9582350  68.4170913  46.3789004 110.2451915  69.0172984
  46.9733495 110.0047651  68.3066293  46.4515588 109.5259045  69.6446521
  28.5986160 124.0885526  69.3316149  28.4640628 123.3285926  68.7654147
  28.1818222 124.8126425  68.8644938  39.7345123 119.2722449  58.3392725
  40.4380973 119.4772452  58.9550380  39.0107771 119.8399211  58.6041808
  40.5642933 115.0232310  64.4594995  40.5078134 115.4800862  63.6202627
  41.1171275 114.2622995  64.2817838  44.3747739 110.8122042  65.2845114
  44.1184673 110.4118678  66.1153322  43.7500607 111.5265836  65.1595253
  48.6860077 113.5518115  67.7916406  48.1259635 113.6211305  68.5647968
  48.0803580 113.3759100  67.0715902  31.7555285 124.9854843  69.5434592
  31.6387670 125.9300275  69.4413282  30.9347732 124.6828404  69.9320391
  41.6431820 119.7104978  60.3891185  42.4777424 119.2786177  60.2068659
  41.4816163 119.5386992  61.3168079  41.2977712 116.2137092  61.7547524
  41.2426516 116.0481363  60.8135968  40.6723767 116.9213124  61.9109714
  26.0870227 111.4505156  75.5808946  26.7329091 110.9404110  76.0696171
  25.8787378 112.1873838  76.1552371  38.6123619 118.5186003  81.0801087
  39.4814779 118.6926656  80.7187722  38.1330371 119.3380420  80.9576816
  34.6073838 105.7145201  61.3332842  34.5952507 106.6587040  61.4901113
  35.4997260 105.5315346  61.0392304  32.7809800 125.6383104  72.7590520
  33.6837046 125.6706715  73.0757015  32.5547170 124.7083555  72.7736856
  34.5363402 124.3914091  69.4200599  33.5859033 124.3915953  69.3064971
  34.8395888 123.6446826  68.9036634  38.4225957 102.3087977  65.5878779
  37.6558353 101.7546464  65.7335461  38.8336662 102.3809846  66.4492931
  30.4267718 108.5972773  79.6783960  31.2899180 108.2409578  79.8887285
  29.8533129 108.2586668  80.3659365  50.2716095 130.2274629  70.4846361
  50.9094505 130.1081377  69.7809701  50.1536938 131.1755473  70.5434314
  47.0805801 130.1802057  70.4207886  46.7424313 130.0643122  69.5328421
  47.9495570 129.7793223  70.4008892  42.9392617 132.0337534  66.4104777
  42.3757482 131.9427471  65.6421065  42.8245012 131.2137438  66.8907270
  47.5625584 131.3336909  76.3794092  47.5514225 130.9389707  75.5074595
  47.7246224 130.6002982  76.9727863  45.2089052 131.4950870  71.9174635
  45.8052625 131.2706892  71.2031598  45.2664024 130.7535615  72.5200083
  44.7814081 128.9490305  59.7524826  45.0339601 128.4271826  58.9908289
  43.8438640 128.7856450  59.8551510  49.8257364 127.9526083  67.5599569
  50.6120453 127.5345506  67.2089986  50.0896068 128.8572175  67.7281218
  49.9967441 133.3898934  62.2588226  49.3613274 133.4633560  62.9709131
  49.6664847 133.9792532  61.5807305  55.2265791 127.8901316  68.4632548
  55.9590963 127.3200533  68.6970377  54.4705146 127.5022917  68.9039054
  44.5010370 130.8518411  61.9549201  44.3846628 130.1763314  62.6230285
  44.6112629 130.3650785  61.1381354  46.8441910 130.3128558  65.6595890
  46.4800118 129.7859179  66.3708812  47.7009026 129.9227027  65.4862376
  52.7491211 121.6022891  72.9227157  52.4174536 122.4718301  72.6988372
  52.1536824 121.2859175  73.6021187  46.4847397 125.3418458  60.6557239
  46.6521800 126.2098694  61.0227710  46.2944566 125.5045739  59.7318528
  49.2422731 133.8035436  72.3223069  48.9423454 134.7060475  72.2138876
  48.8973790 133.5367620  73.1744222  42.6935212 130.2549233  68.3559774
  41.7685709 130.1225447  68.5637465  42.9419625 131.0343453  68.8529716
  52.6419874 126.3217977  70.0020507  51.7336752 126.2533385  69.7079268
  52.5907470 126.7989922  70.8302332  46.4636618 127.7976115  61.6403906
  46.3436243 128.2433166  62.4789386  45.7689207 128.1461433  61.0817444
  40.0544023 129.8982507  69.1903563  40.1836404 130.1516986  70.1042974
  39.3741474 130.4910215  68.8708218  46.7160740 127.7407622  77.9455404
  45.9394074 128.3001542  77.9358268  47.3551303 128.2264405  78.4670274
  54.5081521 124.5234415  71.7798381  53.8655901 124.8166948  71.1338175
  54.0036449 124.4087335  72.5851577  52.1621684 128.2697588  62.4684240
  53.0739541 128.5024975  62.2931937  51.6531332 128.8534632  61.9059318
  44.9707112 130.5493076  77.5073371  45.7121797 131.0878120  77.2308194
  44.2644098 131.1759364  77.6644923  50.4462452 132.6922216  76.1045532
  50.8545808 132.2504627  75.3600165  49.7239714 132.1174844  76.3579725
  46.7993522 127.6294823  73.4779089  47.6454717 128.0534236  73.6213738
  46.7392160 126.9728447  74.1717652  50.7691267 133.2523407  69.8597821
  50.1400129 133.4169121  69.1573889  50.3816929 133.6665016  70.6308785
  54.6480499 134.1877845  67.2142185  53.9631537 134.5676746  66.6639218
  54.7324348 134.7973171  67.9474133  49.9492967 125.2899191  75.1360263
  49.7053899 126.0441252  74.5994539  50.2252898 125.6684539  75.9707510
  51.9031430 131.8337804  73.8137529  52.1148326 132.4769563  73.1371910
  51.8561179 131.0000120  73.3459459  49.5057659 124.4455624  70.7174101
  48.6442138 124.7436878  71.0090838  49.5320094 124.6626023  69.7855133
  46.3219229 132.9897815  67.1247906  46.7857574 133.2685518  66.3352529
  46.0576027 132.0881259  66.9420997  45.2588115 129.1120967  63.9337471
  45.9612158 129.5642011  64.4011398  44.9268743 128.4704786  64.5617365
  43.7068476 127.7032724  78.3088681  43.0767137 128.3849005  78.5424078
  43.6004564 127.5915805  77.3641819  39.0013449 127.3704520  69.2354605
  38.2112503 127.6262048  68.7594716  39.4924696 128.1852858  69.3406646
  53.0177258 134.7109759  71.9859886  53.8394702 134.3089946  71.7042567
  53.0139661 134.6077993  72.9376002  40.9528194 127.7349099  66.1938082
  40.1559357 127.8467793  66.7121577  40.7253786 128.0735751  65.3278972
  37.2851152 127.6235010  71.6669596  37.5359190 128.5082020  71.9327172
  37.8210700 127.4439612  70.8944688  61.1083251 131.0548507  68.3344857
  60.3546960 130.4855906  68.1788862  61.2430792 131.0211172  69.2815492
  42.9849219 122.0053490  80.6713932  42.5916165 121.4519688  81.3461576
  43.8015359 122.3164068  81.0620449  45.9017180 123.4211369  78.2634188
  46.6426893 124.0218522  78.1838651  46.1335103 122.6789007  77.7052231
  41.0458518 128.6067736  76.5412418  40.9312033 127.7052993  76.8419517
  40.1903036 128.8531433  76.1897235  49.8474343 119.4492472  72.5398470
  49.5038612 120.3394113  72.4637581  50.2153305 119.2594129  71.6768055
  49.8124626 129.4401083  61.0470905  49.2971249 130.2105687  61.2859293
  49.5401934 128.7666219  61.6703967  47.3971737 124.2850784  66.1056144
  46.5413333 123.8957634  65.9261782  47.8098688 124.3642744  65.2455929
  48.9270883 121.8197127  70.5047703  48.4235679 121.7827262  69.6915509
  49.2201490 122.7289870  70.5644360  45.1713769 121.9035857  69.5113885
  46.0366766 121.7078665  69.1519775  45.2391278 121.6746208  70.4383242
  54.7858900 132.1933437  62.9824079  54.0088343 131.8544597  62.5379241
  55.4650381 132.1986061  62.3079044  49.6010929 127.3128175  62.8730686
  49.2961064 127.6274324  63.7240830  50.5541371 127.3909595  62.9158019
  53.0250207 131.6667419  69.6390687  52.3673881 132.3566680  69.7270815
  53.8290606 132.0563851  69.9824673  42.7776088 124.1338064  66.8830252
  43.3519840 123.9113246  66.1503445  43.3647071 124.2026759  67.6358853
  51.8355665 130.0211791  67.6894628  52.3487547 130.6541783  68.1916338
  52.4856889 129.4212987  67.3237988  43.1045675 126.1642526  60.9026137
  42.2682988 126.5017212  61.2235412  42.9650445 126.0291505  59.9653274
  45.0798756 121.0079313  65.6105321  44.4263168 120.6928331  64.9861936
  45.0379230 120.3855054  66.3365144  46.1909961 131.2898608  57.5258613
  45.2837023 131.0587862  57.7249762  46.6880993 130.4936228  57.7132595
  48.3136496 127.4961247  69.9352969  47.3959058 127.7176194  69.7774657
  48.7296640 127.5707557  69.0764676  49.0971544 128.8952663  65.0655649
  49.8443363 129.4074060  64.7562771  49.3663134 128.5736715  65.9260043
  47.3698194 131.3911203  62.0482604  46.4609413 131.1070236  62.1455073
  47.3993278 131.8110282  61.1885910  52.6017462 135.0017793  65.8173771
  52.1479789 134.1608703  65.8738962  51.9711428 135.6379191  66.1548551
  51.5450381 125.9309779  67.0474439  50.8073138 125.4187165  67.3784681
  51.7977155 125.4910160  66.2357715  51.6462009 118.7086031  67.6416208
  51.9520885 117.8483394  67.3542123  52.3714613 119.3003651  67.4415202
  37.9386365 129.1116717  66.0297806  37.7410764 128.5186078  65.3048872
  37.3833029 128.8068928  66.7473745  45.9183088 129.0039824  68.1492399
  45.9731698 128.0513660  68.0734875  45.1074290 129.1599263  68.6333697
  47.0674282 132.9319947  59.3870682  46.6293712 132.2155806  58.9276319
  47.8084723 133.1596062  58.8255774  43.8575448 127.6216884  65.9082778
  43.0443314 127.9211054  66.3147970  44.3534442 127.2272572  66.6257260
  49.4549660 128.0858708  74.7397672  49.8099048 128.3130181  75.5992137
  50.1021791 128.4177085  74.1174927  55.1847397 131.2077144  65.4447001
  55.0465295 131.3978740  64.5168190  54.8283616 131.9696527  65.9015052
  43.3489523 125.1935239  71.5244013  43.9888902 125.0523998  70.8266976
  42.5167054 124.9069753  71.1482615  55.2116776 133.2753671  70.4558272
  55.6453283 133.1828960  71.3041326  55.9248357 133.2511172  69.8178288
  40.4332590 128.6380751  63.7138758  39.5030178 128.5765207  63.9308720
  40.5290062 128.1156704  62.9175399  40.3518139 125.1635564  66.3017000
  40.6124957 126.0780897  66.1926160  41.1735312 124.6960007  66.4513612
  41.8243065 126.5773321  73.4715824  42.4966118 126.3690683  72.8228473
  40.9972851 126.3795407  73.0321056  56.0732326 133.3177372  72.9891158
  56.2668216 134.2223182  73.2350433  55.9732944 132.8584791  73.8229743
  47.7268637 123.2035262  75.4881485  47.0796552 123.9025212  75.3945961
  48.4969652 123.6371406  75.8557733  51.1347435 133.4684114  78.5632038
  50.9832941 133.2394666  77.6462122  51.1252114 134.4254716  78.5763383
  47.9032771 131.0416027  73.5478305  48.8324831 131.1927187  73.3747272
  47.4823801 131.1300048  72.6926951  42.2270562 129.8515924  74.2318261
  42.0890360 129.1196163  74.8329800  43.1375485 129.7624824  73.9502449
  51.1885510 131.7904329  58.9802740  50.5714680 131.0651157  58.8835792
  50.7201998 132.5513689  58.6369814  44.8552863 129.5635884  73.7201941
  45.5652481 128.9229076  73.6788559  44.8122171 129.8148779  74.6428122
  43.5681797 126.5501102  75.5397580  43.0319154 126.0991840  76.1919177
  42.9798505 126.6847010  74.7968045  42.9784056 126.0089753  58.1024044
  42.1013522 125.8878554  57.7386291  43.4541809 125.2175831  57.8502933
  52.8457049 134.4642821  74.8722500  51.9583827 134.1268743  74.9948899
  53.4155600 133.7325852  75.1091265  39.3020918 125.6857109  72.6250575
  39.2179107 125.0782779  71.8900985  38.4803624 126.1766128  72.6260071
  49.4744632 124.1710673  67.9920770  49.9713331 123.4180635  67.6721840
  48.7031613 124.2074989  67.4263979  57.3274389 129.8751038  69.6339061
  57.3164265 130.7575754  69.2632994  56.4591769 129.5222589  69.4393598
  50.5574412 132.9282360  65.5659193  49.6230691 133.0483822  65.3963898
  50.7351081 132.0254827  65.3019203  46.0579600 126.3128056  67.7192454
  45.6877388 125.7599096  68.4073360  46.5538693 125.7086189  67.1667455
  53.9446964 128.7699679  66.1009227  54.4107416 129.6027671  66.0269530
  54.3954464 128.3044661  66.8054486  52.0123195 135.1143501  63.0995379
  52.2883039 135.0000095  64.0089254  51.1427694 134.7160985  63.0607553
  51.9163627 121.1380266  70.1400129  51.0026706 121.3684493  70.3082336
  52.3456728 121.2218710  70.9914161  51.6870085 129.3270158  72.6400023
  51.0341535 129.5746066  71.9852476  52.0650465 128.5134296  72.3062500
  47.7357658 130.0689969  79.1266060  47.0598295 129.9684099  79.7968435
  48.5585292 129.9129183  79.5902057  34.0754172 128.8767506  70.4683018
  34.1138271 128.3431097  71.2620136  33.5694465 128.3502712  69.8493995
  41.4544934 123.7232047  73.9645561  41.5186261 124.5846877  73.5522958
  41.3912054 123.1106048  73.2317919  40.9297207 125.7955179  77.6118595
  41.5569245 125.4132256  78.2256119  40.0725126 125.5769381  77.9774287
  37.7062749 127.6031608  63.5436950  38.0016190 126.6942287  63.4904003
  36.8050785 127.5819348  63.2217952  41.2356996 125.6787605  69.5264498
  40.5143582 126.2923572  69.3871972  42.0250252 126.2145370  69.4481144
  44.0383310 123.0142031  75.8005150  44.5617712 123.2604328  76.5631459
  43.8195643 123.8462066  75.3808287  39.4350591 125.2845706  63.6676275
  39.1063297 124.4043085  63.4851381  39.7889962 125.2293375  64.5552664
  42.5492414 125.5718676  64.0351752  42.8888487 126.1004597  63.3130361
  42.9964535 125.9099082  64.8110319  45.2435855 123.9555726  73.4854821
  44.9032675 123.1563539  73.8875500  44.5374861 124.2557437  72.9131654
  45.8952327 121.0405039  71.9382144  46.7178396 120.5665517  71.8161034
  46.1390390 121.8195523  72.4380830  44.5360561 124.0693297  62.2345045
  45.2568924 124.4474550  61.7308762  43.9125865 124.7882174  62.3380023
  48.6791684 124.7738446  63.1703378  48.8955299 125.6563084  62.8692206
  48.1985751 124.3824660  62.4409020  43.4190906 127.7324159  69.7474122
  43.2735486 128.0464463  70.6398404  42.9416109 128.3509060  69.1945021
  45.2787288 124.7226707  69.7955012  45.2648857 123.8267801  69.4587310
  45.9959717 124.7297371  70.4293298  47.1313419 125.1564048  71.8408139
  46.8731197 126.0781118  71.8392470  46.5998460 124.7594482  72.5308603
  44.6824184 123.6041088  65.0642582  44.8040096 122.6757734  65.2633469
  44.3926227 123.6179774  64.1520897  47.5515375 121.2895998  68.2009302
  47.5737072 121.3535331  67.2461281  47.9683434 120.4500507  68.3949808
  57.9298999 131.0251258  66.2388524  58.3730145 130.2758583  65.8407648
  57.0525509 131.0161394  65.8562256  38.6802590 129.3999400  75.5791940
  37.9384326 129.5482035  76.1656571  38.3595334 129.6607666  74.7158690
  54.9626204 135.0281305  63.2482454  55.4877528 135.3668577  62.5231774
  54.8748556 134.0928320  63.0645588  44.1665264 125.1173085  79.2732514
  44.2153419 125.9935208  78.8910284  44.7087778 124.5750478  78.7004158
  54.6520110 135.6614208  78.5533652  53.8615653 135.6438347  78.0138151
  54.4153464 136.2002502  79.3082688  54.7717985 132.5106675  75.8666380
  54.8215990 132.3456682  76.8081903  54.6631908 131.6433934  75.4764261
  52.0621747 128.4937603  77.1825687  52.9631610 128.3544068  76.8909685
  52.1369722 128.6592058  78.1223864  46.3964552 125.8704457  76.0278873
  45.5267862 126.1638024  75.7561462  46.6324033 126.4544902  76.7486137
  56.2736181 134.9303616  76.1108402  55.9820990 135.2933597  76.9471863
  55.6608313 134.2170625  75.9321734  57.4731864 132.4956496  68.6310972
  58.3078755 132.9346300  68.7948532  57.6090993 132.0195149  67.8119218
  54.5223370 130.0536231  74.5788460  54.9977491 130.2463877  73.7707311
  53.5988935 130.1095417  74.3331843  41.4106876 131.2160398  64.1619538
  41.1652918 130.3122728  64.3599748  41.5802791 131.2177548  63.2199016
  49.1003586 122.0884074  73.5444294  49.6185530 122.8245101  73.2190782
  48.7458719 122.3948068  74.3791053  40.6802524 126.9488756  61.6605699
  39.9871769 127.0233111  61.0045735  40.4354276 126.1849099  62.1827216
  49.3516180 118.5084357  69.0645190  49.6317934 117.8407546  69.6905617
  50.1366787 118.7013453  68.5519854  53.2225039 126.9301991  72.8116765
  54.1742462 127.0300089  72.8328989  53.0528489 126.1380259  73.3214850
  51.2439418 124.0157574  72.9976166  50.6489350 124.2962587  72.3022655
  50.9589115 124.5051475  73.7692907  55.7013116 130.1508111  71.9259065
  55.6689437 129.2124111  72.1118749  56.3113740 130.2292147  71.1924890
  47.5396447 129.0204164  57.9686269  48.4855552 128.8910372  58.0374687
  47.1610692 128.2818825  58.4455697  55.8507605 126.9419154  71.9717348
  55.3346654 126.1577611  71.7847277  56.7347554 126.6137871  72.1363868
  53.5118332 120.6860170  67.9313161  53.3143153 120.3775258  68.8156493
  54.1218037 121.4121809  68.0611091  61.5189666 131.2124117  71.0665102
  62.2493055 130.9509406  71.6272805  60.9096612 130.4752839  71.1067170
  59.6004963 129.3531980  71.6639553  58.8738127 129.2187945  71.0556044
  59.1852250 129.6608809  72.4696271  47.4235140 133.0721910  79.4286926
  48.3438149 133.2500509  79.6226972  47.3884723 132.1277955  79.2766625
  45.7239365 126.9454140  57.9041154  44.8170820 126.6487253  57.9803868
  46.0015346 126.6483958  57.0375440  36.6417305 128.2660503  68.3540201
  36.3220089 127.4125812  68.0614575  36.0950733 128.4809082  69.1098168
  47.3401430 121.4891030  64.0585395  46.5302159 121.1438115  64.4340642
  48.0285847 121.1798573  64.6473007  49.2691979 120.5669077  65.6809692
  49.8223017 120.9864530  66.3399715  49.5062065 119.6404825  65.7232648
  45.2925078 126.5556150  81.4612456  45.1921805 127.5050507  81.3924547
  45.0746620 126.2274389  80.5888526  44.4938149 123.8041075  58.0453133
  45.3557313 124.1295974  58.3048951  44.6788493 123.0172571  57.5326199
  52.6470786 122.6769602  65.1888356  52.0669455 123.3354406  64.8066409
  52.3806718 121.8546946  64.7775774  51.0974352 122.0774659  67.3909677
  51.5974130 122.1891194  66.5823996  51.7409960 121.7735712  68.0310485
  45.1556348 129.9853289  80.2777518  44.6723430 130.7853649  80.4841407
  45.2417287 129.9961234  79.3244962  51.4295664 124.8369692  64.2444705
  50.5421519 125.1219343  64.0264899  51.8449653 124.6763455  63.3971981
  54.7810200 124.8616213  67.9599044  55.5570590 125.3512665  68.2323661
  54.0558334 125.2874267  68.4170913  57.2182758 125.5743832  69.0172984
  57.8127249 125.3339568  68.3066293  57.2909342 124.8550963  69.6446521
  51.4036687 130.3524228  64.4594995  51.3471889 130.8092779  63.6202627
  51.9565030 129.5914913  64.2817838  55.2141493 126.1413960  65.2845114
  54.9578428 125.7410596  66.1153322  54.5894361 126.8557754  65.1595253
  59.5253831 128.8810033  67.7916406  58.9653389 128.9503222  68.5647968
  58.9197335 128.7051018  67.0715902  52.4825574 135.0396896  60.3891185
  53.3171178 134.6078094  60.2068659  52.3209917 134.8678910  61.3168079
  52.1371467 131.5429009  61.7547524  52.0820270 131.3773281  60.8135968
  51.5117522 132.2505042  61.9109714  36.9263982 126.7797074  75.5808946
  37.5722845 126.2696028  76.0696171  36.7181133 127.5165755  76.1552371
  49.4517374 133.8477921  81.0801087  50.3208533 134.0218573  80.7187722
  48.9724125 134.6672338  80.9576816  45.4467592 121.0437118  61.3332842
  45.4346262 121.9878958  61.4901113  46.3391014 120.8607264  61.0392304
  49.2619712 117.6379895  65.5878779  48.4952107 117.0838382  65.7335461
  49.6730417 117.7101764  66.4492931  41.2661473 123.9264691  79.6783960
  42.1292934 123.5701496  79.8887285  40.6926883 123.5878585  80.3659365
  63.5884966 136.9314808  72.9227157  63.2568290 137.8010219  72.6988372
  62.9930579 136.6151092  73.6021187  65.3475275 139.8526333  71.7798381
  64.7049656 140.1458866  71.1338175  64.8430204 139.7379253  72.5851577
  60.6868097 134.7784389  72.5398470  60.3432367 135.6686031  72.4637581
  61.0547060 134.5886047  71.6768055  59.7664638 137.1489045  70.5047703
  59.2629433 137.1119180  69.6915509  60.0595245 138.0581787  70.5644360
  55.9192510 136.3371231  65.6105321  55.2656923 136.0220248  64.9861936
  55.8772985 135.7146972  66.3365144  62.4855763 134.0377949  67.6416208
  62.7914640 133.1775312  67.3542123  63.2108368 134.6295569  67.4415202
  62.7557381 136.4672184  70.1400129  61.8420461 136.6976411  70.3082336
  63.1850482 136.5510628  70.9914161  56.7346081 136.3696956  71.9382144
  57.5572151 135.8957435  71.8161034  56.9784145 137.1487440  72.4380830
  58.3909129 136.6187916  68.2009302  58.4130826 136.6827249  67.2461281
  58.8077188 135.7792424  68.3949808  59.9397341 137.4175992  73.5444294
  60.4579285 138.1537019  73.2190782  59.5852473 137.7239985  74.3791053
  60.1909935 133.8376275  69.0645190  60.4711689 133.1699464  69.6905617
  60.9760542 134.0305370  68.5519854  64.3512086 136.0152087  67.9313161
  64.1536908 135.7067175  68.8156493  64.9611792 136.7413726  68.0611091
  58.1795185 136.8182947  64.0585395  57.3695913 136.4730032  64.4340642
  58.8679602 136.5090491  64.6473007  60.1085733 135.8960994  65.6809692
  60.6616772 136.3156448  66.3399715  60.3455819 134.9696742  65.7232648
  63.4864540 138.0061519  65.1888356  62.9063209 138.6646323  64.8066409
  63.2200473 137.1838864  64.7775774  61.9368106 137.4066577  67.3909677
  62.4367885 137.5183112  66.5823996  62.5803714 137.1027630  68.0310485
  68.0576513 140.9035750  69.0172984  68.6521004 140.6631486  68.3066293
  68.1303097 140.1842880  69.6446521  60.1013466 132.9671813  65.5878779
  59.3345862 132.4130299  65.7335461  60.5124171 133.0393681  66.4492931
   6.9114480  31.4151042  55.0590164   6.1578188  30.8458440  54.9034168
   7.0462021  31.3813706  56.0060799   0.9878626  31.5679678  52.1692307
   0.8496524  31.7581274  51.2413497   0.6314844  32.3299061  52.6260358
   1.0148005  33.6356205  57.1803579   1.4484512  33.5431494  58.0286633
   1.7279586  33.6113706  56.5423595   1.8763555  33.6779906  59.7136464
   2.0699445  34.5825716  59.9595739   1.7764173  33.2187325  60.5475049
   3.1305618  30.2353573  56.3584368   3.1195494  31.1178288  55.9878301
   2.2622997  29.8825123  56.1638905   3.7330228  31.3853792  52.9633831
   4.1761374  30.6361117  52.5652954   2.8556738  31.3763928  52.5807563
   0.7657432  35.3883839  49.9727760   1.2908756  35.7271112  49.2477080
   0.6779785  34.4530854  49.7890895   0.5749213  32.8709209  62.5911687
   0.6247218  32.7059216  63.5327210   0.4663137  32.0036468  62.2009568
   2.0767410  35.2906150  62.8353708   1.7852219  35.6536131  63.6717169
   1.4639542  34.5773159  62.6567040   3.2763093  32.8559030  55.3556278
   4.1109984  33.2948834  55.5193839   3.4122221  32.3797683  54.5364524
   1.5044345  30.5110645  58.6504372   1.4720665  29.5726646  58.8364055
   2.1144969  30.5894682  57.9170196   1.6538834  27.3021688  58.6962655
   1.1377882  26.5180145  58.5092584   2.5378782  26.9740405  58.8609174
   7.3220895  31.5726652  57.7910408   8.0524284  31.3111940  58.3518112
   6.7127841  30.8355374  57.8312476   5.4036192  29.7134514  58.3884859
   4.6769356  29.5790479  57.7801351   4.9883479  30.0211343  59.1941578
   3.0213987  25.9346366  55.7418291   3.6158478  25.6942102  55.0311599
   3.0940571  25.2153497  56.3691827   1.0172722  26.5016494  52.0090421
   0.7609656  26.1013130  52.8398629   0.3925590  27.2160288  51.8840560
   5.3285060  29.2412567  54.5161712   4.7684618  29.3105757  55.2893274
   4.7228563  29.0653552  53.7961209   6.9141078  45.9169081  57.2091668
   7.5519488  45.7975829  56.5055008   6.7961921  46.8649925  57.2679620
   3.7230785  45.8696509  57.1453193   3.3849296  45.7537574  56.2573728
   4.5920553  45.4687674  57.1254199   4.2050568  47.0231361  63.1039398
   4.1939208  46.6284159  62.2319902   4.3671207  46.2897434  63.6973170
   5.1617159  51.3902953  48.4464549   4.5105139  51.9757034  48.0598562
   5.9561522  51.9209148  48.5059586   0.9257829  49.8068473  62.0518582
   0.6347695  50.7114104  61.9365249   1.5614813  49.8485000  62.7662652
   1.8514036  47.1845321  58.6419942   2.4477608  46.9601344  57.9276905
   1.9089007  46.4430067  59.2445390   1.4239064  44.6384757  46.4770133
   1.6764585  44.1166278  45.7153596   0.4863623  44.4750902  46.5796816
   6.4682347  43.6420535  54.2844876   7.2545436  43.2239958  53.9335293
   6.7321051  44.5466627  54.4526524   6.6392424  49.0793385  48.9833533
   6.0038257  49.1528012  49.6954438   6.3089831  49.6686984  48.3052612
  11.8690774  43.5795768  55.1877855  12.6015946  43.0094985  55.4215684
  11.1130130  43.1917369  55.6284360   1.1435353  46.5412863  48.6794508
   1.0271611  45.8657766  49.3475592   1.2537613  46.0545237  47.8626661
   3.4866894  46.0023010  52.3841197   3.1225101  45.4753631  53.0954118
   4.3434010  45.6121479  52.2107682   9.3916194  37.2917342  59.6472463
   9.0599519  38.1612753  59.4233678   8.7961808  36.9753626  60.3266494
   3.1272381  41.0312909  47.3802546   3.2946783  41.8993146  47.7473017
   2.9369550  41.1940191  46.4563835   5.8847714  49.4929888  59.0468376
   5.5848437  50.3954927  58.9384183   5.5398773  49.2262072  59.8989529
   9.2844858  42.0112429  56.7265813   8.3761735  41.9427837  56.4324574
   9.2332453  42.4884374  57.5547639   3.1061602  43.4870567  48.3649212
   2.9861227  43.9327618  49.2034693   2.4114190  43.8355885  47.8062751
   3.3585723  43.4302074  64.6700711   2.5819058  43.9895994  64.6603575
   3.9976287  43.9158857  65.1915581  11.1506504  40.2128867  58.5043687
  10.5080884  40.5061400  57.8583482  10.6461433  40.0981787  59.3096884
   8.8046668  43.9592040  49.1929546   9.7164524  44.1919427  49.0177244
   8.2956315  44.5429084  48.6304625   1.6132096  46.2387528  64.2318678
   2.3546780  46.7772571  63.9553501   0.9069081  46.8653816  64.3890229
   7.0887435  48.3816668  62.8290839   7.4970791  47.9399079  62.0845471
   6.3664697  47.8069296  63.0825032   3.4418505  43.3189275  60.2024396
   4.2879701  43.7428688  60.3459045   3.3817143  42.6622899  60.8962959
   7.4116250  48.9417859  56.5843128   6.7825113  49.1063573  55.8819196
   7.0241912  49.3559468  57.3554092  11.2905482  49.8772296  53.9387492
  10.6056520  50.2571198  53.3884525  11.3749331  50.4867623  54.6719439
   6.5917951  40.9793643  61.8605570   6.3478883  41.7335704  61.3239845
   6.8677881  41.3578991  62.6952817   8.5456414  47.5232255  60.5382835
   8.7573309  48.1664015  59.8617216   8.4986162  46.6894572  60.0704765
   6.1482643  40.1350076  57.4419407   5.2867122  40.4331330  57.7336145
   6.1745077  40.3520475  56.5100440   2.9644212  48.6792267  53.8493213
   3.4282557  48.9579970  53.0597835   2.7001010  47.7775711  53.6666304
   1.9013098  44.8015419  50.6582778   2.6037141  45.2536463  51.1256704
   1.5693726  44.1599238  51.2862671   9.6602242  50.4004211  58.7105193
  10.4819685  49.9984398  58.4287874   9.6564644  50.2972445  59.6621308
   3.4258845  49.9488254  60.8665903   3.4903277  50.4108661  61.7024075
   2.7169769  49.3185619  60.9948213  17.7508235  46.7442959  55.0590164
  16.9971943  46.1750357  54.9034168  17.8855776  46.7105624  56.0060799
   3.1406863  51.6156362  50.7344883   3.0052537  52.4607897  51.1629731
   3.6816675  51.8175639  49.9710817   2.5442163  39.1105821  64.9879495
   3.2851877  39.7112974  64.9083958   2.7760086  38.3683458  64.4297538
   4.7675339  52.2379928  64.8645225   4.3239193  51.4516307  64.5466130
   5.4292553  52.4259079  64.1989116   6.8656577  52.5182728  62.8926627
   6.8475052  53.3391609  62.4006896   7.7876497  52.3936803  63.1176768
   3.3229631  50.0326858  63.7350135   3.8557968  49.2715146  63.5049443
   2.7943712  49.7400509  64.4774290   6.4899326  35.1386924  59.2643777
   6.1463596  36.0288565  59.1882887   6.8578289  34.9488581  58.4013362
   6.4549609  45.1295535  47.7716212   5.9396232  45.9000139  48.0104599
   6.1826917  44.4560671  48.3949273   4.0396720  39.9745235  52.8301450
   3.1838316  39.5852086  52.6507089   4.4523672  40.0537196  51.9701236
   5.5695867  37.5091579  57.2293010   5.0660662  37.4721714  56.4160815
   5.8626473  38.4184321  57.2889667   1.8138752  37.5930308  56.2359192
   2.6791749  37.3973117  55.8765081   1.8816261  37.3640660  57.1628549
  11.4283883  47.8827889  49.7069385  10.6513326  47.5439049  49.2624547
  12.1075364  47.8880512  49.0324350   6.2435912  43.0022627  49.5975993
   5.9386048  43.3168776  50.4486136   7.1966354  43.0804047  49.6403326
   4.6882344  49.1612850  51.2468947   4.1603705  48.4265610  50.9342185
   4.1869847  49.9387526  51.0008915   9.6675190  47.3561871  56.3635993
   9.0098864  48.0461132  56.4516122  10.4715589  47.7458303  56.7069980
   8.4780649  45.7106243  54.4139935   8.9912530  46.3436235  54.9161645
   9.1281873  45.1107439  54.0483295   1.7223739  36.6973765  52.3350628
   1.0688152  36.3822782  51.7107243   1.6804213  36.0749506  53.0610451
   2.8334944  46.9793060  44.2503920   1.9262006  46.7482314  44.4495069
   3.3305976  46.1830680  44.4377902   5.7403023  55.6890568  47.1700606
   5.0664722  55.9922264  47.7785564   6.1268845  56.4919648  46.8206063
   4.9561480  43.1855699  56.6598276   4.0384041  43.4070646  56.5019964
   5.3721623  43.2602009  55.8009983   5.7396527  44.5847115  51.7900956
   6.4868346  45.0968512  51.4808078   6.0088117  44.2631167  52.6505349
   4.0123178  47.0805655  48.7727910   3.1034397  46.7964688  48.8700380
   4.0418261  47.5004734  47.9131217   9.2442445  50.6912245  52.5419078
   8.7904772  49.8503155  52.5984268   8.6136412  51.3273643  52.8793858
   8.1875365  41.6204231  53.7719745   7.4498121  41.1081617  54.1029988
   8.4402138  41.1804612  52.9603022   7.6875384  52.5288741  53.4768896
   7.9798359  53.0893799  52.7581262   8.1974005  52.8217302  54.2322055
   8.2886992  34.3980483  54.3661514   8.5945869  33.5377846  54.0787430
   9.0139597  34.9898103  54.1660508   2.5608072  44.6934276  54.8737706
   2.6156681  43.7408112  54.7980182   1.7499274  44.8493715  55.3579004
   3.7099265  48.6214399  46.1115989   3.2718695  47.9050258  45.6521626
   4.4509706  48.8490514  45.5501080   2.6509009  53.3069092  54.5662349
   2.6085188  53.5329939  53.6370881   3.5671708  53.0732467  54.7148150
   6.0974643  43.7753160  61.4642978   6.4524031  44.0024633  62.3237444
   6.7446774  44.1071537  60.8420234  11.8272380  46.8971596  52.1692307
  11.6890279  47.0873192  51.2413497  11.4708599  47.6590979  52.6260358
  11.8541760  48.9648123  57.1803579  12.2878266  48.8723412  58.0286633
  12.5673340  48.9405623  56.5423595   5.5869655  52.5650217  58.7136679
   5.6406677  53.1341153  59.4814395   4.7184436  52.7352102  58.3490717
  12.7157309  49.0071824  59.7136464  12.9093199  49.9117634  59.9595739
  12.6157927  48.5479243  60.5475049   4.3693620  38.8929714  62.2126792
   3.7221535  39.5919664  62.1191268   5.1394635  39.3265858  62.5803040
   7.7772418  49.1578566  65.2877345   7.6257924  48.9289118  64.3707429
   7.7677097  50.1149168  65.3008690   4.5457754  46.7310479  60.2723611
   5.4749814  46.8821639  60.0992579   4.1248784  46.8194500  59.4172258
   3.3446086  50.7561144  58.0422149   3.2057172  50.3879928  58.9148087
   2.5560682  51.2708783  57.8706107   3.9394238  55.8570240  49.3847685
   4.1145994  55.3858283  50.1993308   3.2527026  56.4836006  49.6128946
   4.8951301  50.1342746  55.4310987   4.5601134  50.0943516  56.3268637
   4.3955247  49.4687462  54.9581397   7.8310493  47.4798781  45.7048046
   7.2139664  46.7545609  45.6081099   7.3626981  48.2408141  45.3615121
   1.4977846  45.2530336  60.4447248   2.2077464  44.6123528  60.4033866
   1.4547154  45.5043230  61.3673428   9.4864625  52.1897689  63.3653827
   9.4277171  51.5056909  62.6984410   9.8884143  52.9316679  62.9134453
   9.4882032  50.1537273  61.5967806   8.6008811  49.8163195  61.7194205
  10.0580583  49.4220304  61.8336572   3.0183185  54.8138725  58.5629050
   2.9453357  55.6193697  59.0748354   2.5760578  55.0130691  57.7377071
   2.8072965  54.0510495  52.0731871   2.0240487  54.5932175  52.1670096
   3.5065710  54.5684475  52.4726112   6.1169615  39.8605125  54.7166077
   6.6138315  39.1075087  54.3967147   5.3456597  39.8969441  54.1509286
  13.9699372  45.5645490  56.3584368  13.9589249  46.4470206  55.9878301
  13.1016752  45.2117041  56.1638905   5.4781869  54.7125559  60.7187208
   6.1909841  55.3473024  60.6463110   4.9871897  54.8089425  59.9027210
   7.1999396  48.6176812  52.2904500   6.2655674  48.7378274  52.1209204
   7.3776064  47.7149279  52.0264510   2.7004584  42.0022508  54.4437761
   2.3302371  41.4493548  55.1318667   3.1963676  41.3980641  53.8912761
  10.5871947  44.4594131  52.8254534  11.0532399  45.2922123  52.7514837
  11.0379448  43.9939113  53.5299793   8.6548178  50.8037952  49.8240686
   8.9308022  50.6894547  50.7334560   7.7852677  50.4055437  49.7852859
   8.5588610  36.8274718  56.8645435   7.6451690  37.0578945  57.0327642
   8.9881711  36.9113162  57.7159468   8.3295068  45.0164610  59.3645329
   7.6766519  45.2640518  58.7097782   8.7075448  44.2028748  59.0307807
   5.2902242  55.0524303  53.4673500   5.4724637  54.2345959  53.9301252
   6.1135228  55.2691996  53.0298390   5.6244408  53.9792488  50.7288548
   6.1532174  53.4684943  50.1158710   5.8872627  53.6635019  51.5934081
   4.3782641  45.7584421  65.8511367   3.7023278  45.6578551  66.5213742
   5.2010275  45.6023635  66.3147364   3.1205424  57.0651349  60.0868983
   3.6723732  57.2282970  60.8518068   3.4611618  57.6555786  59.4149007
   7.9716299  51.8912606  65.9417637   8.5156203  52.5042564  65.4472592
   7.3903143  52.4492185  66.4584650   6.2573811  55.0133324  57.0732665
   6.1324951  54.2123064  56.5643610   6.9152903  55.5079518  56.5846635
   8.3208720  52.8142344  58.7012215   7.3739055  52.6947695  58.6290541
   8.6691493  51.9264842  58.7838476   0.6808293  38.7036483  62.5250457
   1.2042695  38.9498780  63.2876766   0.4620627  39.5356518  62.1053594
   5.3255153  52.6095060  54.9016567   5.1780116  51.6811768  55.0824137
   6.1508647  52.6315151  54.4173642   8.9289275  53.4323619  55.9881440
   9.8535822  53.2266481  55.8505891   8.7604578  53.1840020  56.8970781
   1.8860838  39.6450178  60.2100127   1.5457659  38.8457991  60.6120807
   1.1799845  39.9451889  59.6376960   2.5377310  36.7299491  58.6627450
   3.3603379  36.2559969  58.5406341   2.7815374  37.5089974  59.1626136
   1.1785545  39.7587749  48.9590352   1.8993907  40.1369002  48.4554069
   0.5550849  40.4776626  49.0625330   5.3216667  40.4632898  49.8948684
   5.5380282  41.3457536  49.5937512   4.8410735  40.0719112  49.1654326
   1.9212272  40.4121159  56.5200318   1.9073840  39.5162253  56.1832616
   2.6384700  40.4191823  57.1538604   3.7738402  40.8458500  58.5653446
   3.5156180  41.7675570  58.5637776   3.2423443  40.4488934  59.2553910
   8.7184591  53.9509287  51.3443531   8.8921469  53.3855709  50.5917384
   9.2113482  54.7510182  51.1623021   1.3249168  39.2935540  51.7887889
   1.4465079  38.3652186  51.9878776   1.0351210  39.3074226  50.8766204
   4.1940358  36.9790450  54.9254608   4.2162055  37.0429783  53.9706588
   4.6108417  36.1394959  55.1195115  14.5723982  46.7145710  52.9633831
  15.0155128  45.9653035  52.5652954  13.6950493  46.7055846  52.5807563
   9.7059764  53.2676051  48.4440429  10.4010668  53.8882744  48.6627744
  10.0482914  52.4171402  48.7192807  11.6051187  50.7175757  49.9727760
  12.1302511  51.0563029  49.2477080  11.5173539  49.7822772  49.7890895
   3.2671236  54.6309830  62.1017637   3.5758362  54.3858977  62.9740336
   4.0646718  54.8356469  61.6136507   3.2891848  56.7847740  54.3323013
   2.8496838  56.2924119  55.0255870   4.0399965  56.2420708  54.0915089
   0.8090247  40.8067537  65.9977821   0.8578403  41.6829660  65.6155591
   1.3512761  40.2644930  65.4249464  11.2945093  51.3508660  65.2778958
  10.5040637  51.3332799  64.7383458  11.0578447  51.8896954  66.0327995
  11.4142968  48.2001127  62.5911687  11.4640973  48.0351134  63.5327210
  11.3056891  47.3328386  62.2009568   8.7046730  44.1832055  63.9070993
   9.6056593  44.0438519  63.6154991   8.7794705  44.3486509  64.8469171
   3.0389536  41.5598909  62.7524180   2.1692845  41.8532475  62.4806768
   3.2749016  42.1439354  63.4731443  12.9161165  50.6198068  62.8353708
  12.6245973  50.9828049  63.6717169  12.3033296  49.9065076  62.6567040
  14.1156847  48.1850948  55.3556278  14.9503738  48.6240752  55.5193839
  14.2515976  47.7089601  54.5364524  11.1648353  45.7430683  61.3033766
  11.6402475  45.9358329  60.4952618  10.2413918  45.7989869  61.0577150
   5.7428569  37.7778526  60.2689600   6.2610513  38.5139553  59.9436089
   5.3883702  38.0842520  61.1036359   5.9941164  34.1978809  55.7890497
   6.2742917  33.5301998  56.4150923   6.7791771  34.3907904  55.2765161
   3.7974632  53.3737803  47.3515523   3.2248599  53.9927990  46.8985995
   4.3707426  53.9237164  47.8855445   9.8650022  42.6196443  59.5362072
  10.8167445  42.7194540  59.5574296   9.6953472  41.8274711  60.0460156
   7.8864401  39.7052026  59.7221473   7.2914334  39.9857039  59.0267961
   7.6014098  40.1945927  60.4938214   7.0171892  53.6574953  48.4824105
   7.9502565  53.5920515  48.6856981   6.9295105  54.4931220  48.0238638
   9.6459909  52.9740823  45.4428053   9.5673540  52.6400687  46.3363811
  10.4669575  53.4662591  45.4419525  12.3438100  45.8402563  58.6504372
  12.3114420  44.9018563  58.8364055  12.9538723  45.9186599  57.9170196
   4.1821431  44.7098615  44.6931576   5.1280535  44.5804824  44.7619994
   3.8035676  43.9713277  45.1701004  12.4932588  42.6313606  58.6962655
  11.9771637  41.8472063  58.5092584  13.3772537  42.3032323  58.8609174
  10.1543315  36.3754622  54.6558467   9.9568136  36.0669710  55.5401799
  10.7643021  37.1016260  54.7856397  18.1614650  46.9018569  57.7910408
  18.8918038  46.6403857  58.3518112  17.5521595  46.1647291  57.8312476
  16.2429947  45.0426432  58.3884859  15.5163110  44.9082397  57.7801351
  15.8277234  45.3503261  59.1941578   4.0660123  48.7616362  66.1532233
   4.9863133  48.9394961  66.3472279   4.0309706  47.8172407  66.0011932
   2.3664348  42.6348592  44.6286461   1.4595803  42.3381705  44.7049174
   2.6440329  42.3378410  43.7620747   3.9826414  37.1785482  50.7830702
   3.1727142  36.8332567  51.1585948   4.6710830  36.8693025  51.3718314
   5.9116962  36.2563528  52.4054999   6.4648000  36.6758982  53.0645022
   6.1487048  35.3299277  52.4477955   1.9350061  42.2450602  68.1857763
   1.8346788  43.1944959  68.1169854   1.7171603  41.9168841  67.3133833
   1.1363132  39.4935527  44.7698440   1.9982296  39.8190425  45.0294257
   1.3213477  38.7067023  44.2571506   9.2895769  38.3664054  51.9133663
   8.7094438  39.0248858  51.5311715   9.0231702  37.5441398  51.5021080
   7.7399335  37.7669111  54.1154983   8.2399114  37.8785646  53.3069302
   8.3834943  37.4630164  54.7555792   1.7981331  45.6747741  67.0022824
   1.3148413  46.4748101  67.2086713   1.8842270  45.6855686  66.0490268
   8.0720647  40.5264144  50.9690011   7.1846502  40.8113795  50.7510206
   8.4874636  40.3657907  50.1217288  11.4235183  40.5510665  54.6844350
  12.1995573  41.0407117  54.9568967  10.6983317  40.9768719  55.1416220
  13.8607742  41.2638284  55.7418291  14.4552232  41.0234020  55.0311599
  13.9334325  40.5445415  56.3691827   7.2163860  50.2908819  45.0638031
   7.9199711  50.4958821  45.6795687   6.4926509  50.8585580  45.3287115
   8.0461671  46.0418680  51.1840301   7.9896872  46.4987231  50.3447934
   8.5990013  45.2809364  51.0063144  11.8566477  41.8308412  52.0090421
  11.6003411  41.4305047  52.8398629  11.2319345  42.5452206  51.8840560
  16.1678814  44.5704485  54.5161712  15.6078372  44.6397674  55.2893274
  15.5622318  44.3945470  53.7961209   9.1250558  50.7291348  47.1136491
   9.9596162  50.2972546  46.9313966   8.9634901  50.5573361  48.0413386
   8.7796450  47.2323461  48.4792831   8.7245254  47.0667733  47.5381275
   8.1542505  47.9399494  48.6355020   6.0942357  49.5372373  67.8046393
   6.9633517  49.7113025  67.4433028   5.6149109  50.3566790  67.6822123
   2.0892575  36.7331570  48.0578149   2.0771245  37.6773410  48.2146420
   2.9815997  36.5501716  47.7637610   2.0182139  55.4100461  56.1445906
   1.0677770  55.4102322  56.0310278   2.3214626  54.6633195  55.6281940
   5.9044695  33.3274347  52.3124086   5.1377091  32.7732833  52.4580768
   6.3155400  33.3996216  53.1738237  17.7534833  61.2460999  57.2091668
  18.3913243  61.1267746  56.5055008  17.6355676  62.1941843  57.2679620
  14.5624539  61.1988427  57.1453193  14.2243051  61.0829492  56.2573728
  15.4314307  60.7979592  57.1254199  10.4211355  63.0523903  53.1350084
   9.8576220  62.9613840  52.3666371  10.3063750  62.2323808  53.6152576
  15.0444322  62.3523279  63.1039398  15.0332963  61.9576077  62.2319902
  15.2064962  61.6189351  63.6973170   7.9675787  64.5475095  55.9734304
   8.7597079  64.2065920  55.5580603   8.2072437  64.6570070  56.8936457
  16.0010914  66.7194871  48.4464549  15.3498893  67.3048952  48.0598562
  16.7955276  67.2501066  48.5059586   9.9266541  63.8084008  48.8451683
  10.6997417  63.2612995  48.7064559  10.2791940  64.6728258  49.0566144
  11.7651583  65.1360391  62.0518582  11.4741449  66.0406021  61.9365249
  12.4008568  65.1776918  62.7662652  12.6907790  62.5137239  58.6419942
  13.2871362  62.2893261  57.9276905  12.7482762  61.7721985  59.2445390
  12.2632819  59.9676674  46.4770133  12.5158339  59.4458196  45.7153596
  11.3257378  59.8042820  46.5796816  17.3076101  58.9712453  54.2844876
  18.0939191  58.5531876  53.9335293  17.5714806  59.8758545  54.4526524
  17.4786179  64.4085303  48.9833533  16.8432012  64.4819930  49.6954438
  17.1483585  64.9978902  48.3052612  22.7084529  58.9087686  55.1877855
  23.4409700  58.3386903  55.4215684  21.9523884  58.5209286  55.6284360
  11.9829107  61.8704780  48.6794508  11.8665365  61.1949684  49.3475592
  12.0931367  61.3837154  47.8626661  14.3260648  61.3314927  52.3841197
  13.9618855  60.8045548  53.0954118  15.1827764  60.9413397  52.2107682
  20.2309949  52.6209260  59.6472463  19.8993274  53.4904671  59.4233678
  19.6355562  52.3045544  60.3266494  13.9666135  56.3604827  47.3802546
  14.1340538  57.2285064  47.7473017  13.7763304  56.5232109  46.4563835
  16.7241468  64.8221806  59.0468376  16.4242191  65.7246845  58.9384183
  16.3792528  64.5553989  59.8989529  10.1753950  61.2735603  55.0805080
   9.2504446  61.1411817  55.2882772  10.4238363  62.0529822  55.5775023
  20.1238612  57.3404346  56.7265813  19.2155490  57.2719755  56.4324574
  20.0726208  57.8176291  57.5547639  13.9455356  58.8162485  48.3649212
  13.8254981  59.2619535  49.2034693  13.2507944  59.1647802  47.8062751
   7.5362761  60.9168876  55.9148869   7.6655142  61.1703355  56.8288281
   6.8560212  61.5096584  55.5953524  11.7062248  71.5866126  52.0139344
  11.6286278  72.5373951  52.0927824  11.1023892  71.2411999  52.6714270
  14.1979478  58.7593992  64.6700711  13.4212812  59.3187912  64.6603575
  14.8370041  59.2450775  65.1915581  21.9900259  55.5420785  58.5043687
  21.3474639  55.8353318  57.8583482  21.4855187  55.4273705  59.3096884
  19.6440422  59.2883958  49.1929546  20.5558278  59.5211345  49.0177244
  19.1350069  59.8721002  48.6304625  12.4525850  61.5679445  64.2318678
  13.1940535  62.1064489  63.9553501  11.7462836  62.1945734  64.3890229
  17.9281190  63.7108586  62.8290839  18.3364546  63.2690996  62.0845471
  17.2058451  63.1361213  63.0825032  14.2812260  58.6481192  60.2024396
  15.1273455  59.0720606  60.3459045  14.2210898  57.9914817  60.8962959
  18.2510005  64.2709776  56.5843128  17.6218867  64.4355490  55.8819196
  17.8635667  64.6851386  57.3554092  22.1299236  65.2064214  53.9387492
  21.4450275  65.5863115  53.3884525  22.2143086  65.8159541  54.6719439
  17.4311705  56.3085561  61.8605570  17.1872637  57.0627621  61.3239845
  17.7071636  56.6870908  62.6952817  19.3850168  62.8524173  60.5382835
  19.5967063  63.4955933  59.8617216  19.3379916  62.0186490  60.0704765
  16.9876397  55.4641994  57.4419407  16.1260876  55.7623247  57.7336145
  17.0138832  55.6812393  56.5100440  13.8037966  64.0084184  53.8493213
  14.2676312  64.2871887  53.0597835  13.5394765  63.1067629  53.6666304
  10.6962047  63.5555666  56.7872976  11.2663405  63.9842934  56.1490461
  11.2870159  63.2738251  57.4857162  12.7406852  60.1307337  50.6582778
  13.4430896  60.5828380  51.1256704  12.4087481  59.4891156  51.2862671
  11.1887214  58.7219093  65.0333987  10.5585875  59.4035374  65.2669384
  11.0823302  58.6102175  64.0887126   6.4832186  58.3890889  55.9599912
   5.6931240  58.6448418  55.4840022   6.9743434  59.2039227  56.0651952
  20.4995996  65.7296129  58.7105193  21.3213440  65.3276316  58.4287874
  20.4958399  65.6264363  59.6621308   8.4346932  58.7535469  52.9183388
   7.6378095  58.8654163  53.4366884   8.2072524  59.0922121  52.0524279
  14.2652599  65.2780172  60.8665903  14.3297032  65.7400579  61.7024075
  13.5563523  64.6477537  60.9948213   4.7669889  58.6421380  58.3914902
   5.0177928  59.5268390  58.6572478   5.3029438  58.4625981  57.6189994
  28.5901989  62.0734877  55.0590164  27.8365697  61.5042275  54.9034168
  28.7249530  62.0397542  56.0060799  13.9800617  66.9448279  50.7344883
  13.8446292  67.7899815  51.1629731  14.5210430  67.1467557  49.9710817
  10.4667957  53.0239859  67.3959239  10.0734902  52.4706058  68.0706883
  11.2834097  53.3350438  67.7865756   7.4330014  64.4623717  51.3072808
   7.9454535  65.2566968  51.4578373   8.0852727  63.7650008  51.2406410
   9.2424899  67.5789474  53.3895562   9.4191528  68.5007438  53.2016545
  10.0381733  67.2647893  53.8189941  13.3835918  54.4397738  64.9879495
  14.1245631  55.0404891  64.9083958  13.6153841  53.6975376  64.4297538
   8.5277256  59.6254106  63.2657725   8.4130771  58.7239363  63.5664824
   7.6721773  59.8717802  62.9142541  15.6069093  67.5671846  64.8645225
  15.1632948  66.7808224  64.5466130  16.2686307  67.7550996  64.1989116
  10.3656215  69.0967647  59.3905904  10.9163640  68.9684711  58.6182898
   9.5267691  69.3962536  59.0400797  17.7050332  67.8474646  62.8926627
  17.6868807  68.6683527  62.4006896  18.6270252  67.7228721  63.1176768
  14.1623386  65.3618775  63.7350135  14.6951723  64.6007063  63.5049443
  13.6337467  65.0692427  64.4774290  17.3293081  50.4678841  59.2643777
  16.9857350  51.3580483  59.1882887  17.6972043  50.2780499  58.4013362
   5.3978931  62.7912372  52.0832379   6.2354153  63.2009380  51.8666087
   5.5757199  61.8511814  52.0532573  17.2943363  60.4587452  47.7716212
  16.7789987  61.2292057  48.0104599  17.0220672  59.7852589  48.3949273
  14.8790474  55.3037153  52.8301450  14.0232071  54.9144004  52.6507089
  15.2917426  55.3829114  51.9701236  16.4089621  52.8383496  57.2293010
  15.9054417  52.8013632  56.4160815  16.7020228  53.7476239  57.2889667
  12.6532507  52.9222226  56.2359192  13.5185504  52.7265035  55.8765081
  12.7210016  52.6932578  57.1628549  22.2677638  63.2119807  49.7069385
  21.4907080  62.8730966  49.2624547  22.9469118  63.2172430  49.0324350
  17.0829667  58.3314544  49.5975993  16.7779802  58.6460694  50.4486136
  18.0360109  58.4095964  49.6403326  15.5276098  64.4904768  51.2468947
  14.9997460  63.7557527  50.9342185  15.0263601  65.2679444  51.0008915
  20.5068944  62.6853788  56.3635993  19.8492619  63.3753050  56.4516122
  21.3109344  63.0750220  56.7069980  10.2594826  55.1524434  53.6075559
  10.8338578  54.9299616  52.8748752  10.8465808  55.2213129  54.3604160
  19.3174403  61.0398161  54.4139935  19.8306285  61.6728153  54.9161645
  19.9675627  60.4399356  54.0483295  10.5864413  57.1828895  47.6271444
   9.7501725  57.5203582  47.9480719  10.4469183  57.0477875  46.6898581
  12.5617494  52.0265683  52.3350628  11.9081906  51.7114700  51.7107243
  12.5197968  51.4041423  53.0610451  13.6728699  62.3084978  44.2503920
  12.7655760  62.0774231  44.4495069  14.1699731  61.5122597  44.4377902
  16.5796777  71.0182485  47.1700606  15.9058476  71.3214182  47.7785564
  16.9662599  71.8211566  46.8206063  15.7955234  58.5147616  56.6598276
  14.8777795  58.7362564  56.5019964  16.2115378  58.5893927  55.8009983
  16.5790282  59.9139032  51.7900956  17.3262101  60.4260429  51.4808078
  16.8481871  59.5923085  52.6505349  14.8516932  62.4097573  48.7727910
  13.9428151  62.1256606  48.8700380  14.8812016  62.8296651  47.9131217
  20.0836199  66.0204162  52.5419078  19.6298527  65.1795072  52.5984268
  19.4530166  66.6565561  52.8793858  19.0269119  56.9496148  53.7719745
  18.2891876  56.4373535  54.1029988  19.2795893  56.5096530  52.9603022
  18.5269139  67.8580659  53.4768896  18.8192113  68.4185716  52.7581262
  19.0367759  68.1509220  54.2322055  19.1280746  49.7272400  54.3661514
  19.4339623  48.8669764  54.0787430  19.8533351  50.3190021  54.1660508
   5.4205102  60.1303087  52.7543112   5.2229502  59.5372448  52.0294179
   4.8651766  59.8255297  53.4719051  13.4001826  60.0226193  54.8737706
  13.4550436  59.0700030  54.7980182  12.5893028  60.1785633  55.3579004
  14.5493020  63.9506317  46.1115989  14.1112450  63.2342175  45.6521626
  15.2903461  64.1782431  45.5501080  11.3394186  58.6403253  52.6328084
  10.5262052  58.9397424  53.0393277  11.8353180  58.2458942  53.3502567
  13.4902764  68.6361010  54.5662349  13.4478943  68.8621856  53.6370881
  14.4065463  68.4024385  54.7148150  16.9368398  59.1045078  61.4642978
  17.2917785  59.3316551  62.3237444  17.5840529  59.4363455  60.8420234
  22.6666135  62.2263514  52.1692307  22.5284033  62.4165110  51.2413497
  22.3102353  62.9882896  52.6260358  10.8308261  56.2121609  58.2489319
  11.4707640  56.0710368  57.5512283   9.9985791  55.9256122  57.8727921
  22.6935514  64.2940041  57.1803579  23.1272021  64.2015330  58.0286633
  23.4067095  64.2697541  56.5423595  11.6068565  65.5124039  54.3624312
  12.4009163  65.0174359  54.1606887  10.8960257  64.9841902  53.9992017
  16.4263409  67.8942135  58.7136679  16.4800431  68.4633071  59.4814395
  15.5578190  68.0644020  58.3490717   7.9151328  59.6567121  50.4384065
   6.9848916  59.5951576  50.6554027   8.0108800  59.1343074  49.6420706
   7.8336877  56.1821934  53.0262306   8.0943694  57.0967267  52.9171467
   8.6554049  55.7146376  53.1758919   9.3061803  57.5959691  60.1961131
   9.9784856  57.3877053  59.5473780   8.4791589  57.3981777  59.7566363
  23.5551064  64.3363741  59.7136464  23.7486954  65.2409552  59.9595739
  23.4551682  63.8771160  60.5475049  15.2087375  54.2221632  62.2126792
  14.5615290  54.9211582  62.1191268  15.9788390  54.6557776  62.5803040
  18.6166172  64.4870484  65.2877345  18.4651679  64.2581036  64.3707429
  18.6070852  65.4441085  65.3008690  15.3851509  62.0602397  60.2723611
  16.3143569  62.2113556  60.0992579  14.9642539  62.1486418  59.4172258
  14.1839841  66.0853061  58.0422149  14.0450926  65.7171846  58.9148087
  13.3954437  66.6000701  57.8706107  14.7787993  71.1862158  49.3847685
  14.9539748  70.7150201  50.1993308  14.0920781  71.8127924  49.6128946
  15.7345056  65.4634664  55.4310987  15.3994888  65.4235434  56.3268637
  15.2349001  64.7979380  54.9581397   9.7089300  60.8702294  60.9563568
   9.5709098  60.1382533  61.5575107  10.6194223  60.7811194  60.6747756
  18.6704247  62.8090698  45.7048046  18.0533418  62.0837526  45.6081099
  18.2020736  63.5700058  45.3615121  12.3371600  60.5822253  60.4447248
  13.0471219  59.9415445  60.4033866  12.2940909  60.8335148  61.3673428
  20.3258379  67.5189607  63.3653827  20.2670925  66.8348827  62.6984410
  20.7277897  68.2608597  62.9134453  11.0500534  57.5687471  62.2642887
  10.5137891  57.1178210  62.9164483  10.4617243  57.7033380  61.5213351
   9.3449078  74.3351520  56.1587546   9.5845676  74.9670045  56.8366564
   8.5018274  73.9839560  56.4452905  10.4602793  57.0276123  44.8269351
   9.5832260  56.9064923  44.4631597  10.9360546  56.2362201  44.5748239
  20.3275786  65.4829191  61.5967806  19.4402565  65.1455112  61.7194205
  20.8974337  64.7512222  61.8336572   1.9804933  61.8153282  54.9210858
   2.6675973  61.5015012  54.3331873   1.8253062  62.7194647  54.6478109
   6.7839656  56.7043479  59.3495881   6.6997844  56.0969148  58.6146291
   5.9622362  57.1952497  59.3505378  13.8576940  70.1430643  58.5629050
  13.7847111  70.9485614  59.0748354  13.4154333  70.3422609  57.7377071
  13.6466719  69.3802413  52.0731871  12.8634241  69.9224093  52.1670096
  14.3459465  69.8976393  52.4726112  16.9563369  55.1897042  54.7166077
  17.4532069  54.4367005  54.3967147  16.1850351  55.2261359  54.1509286
  24.8093127  60.8937408  56.3584368  24.7983003  61.7762123  55.9878301
  23.9410506  60.5408959  56.1638905  16.3175623  70.0417477  60.7187208
  17.0303595  70.6764942  60.6463110  15.8265652  70.1381343  59.9027210
  18.0393150  63.9468730  52.2904500  17.1049429  64.0670192  52.1209204
  18.2169819  63.0441196  52.0264510  13.5398338  57.3314425  54.4437761
  13.1696126  56.7785466  55.1318667  14.0357431  56.7272559  53.8912761
  21.4265702  59.7886049  52.8254534  21.8926154  60.6214040  52.7514837
  21.8773202  59.3231030  53.5299793  11.3687537  67.7911920  61.5392779
  12.0696996  68.4248403  61.6922173  10.8982652  68.1326652  60.7788418
  19.4941933  66.1329870  49.8240686  19.7701777  66.0186465  50.7334560
  18.6246431  65.7347355  49.7852859  19.3982364  52.1566636  56.8645435
  18.4845444  52.3870863  57.0327642  19.8275466  52.2405080  57.7159468
  19.1688823  60.3456528  59.3645329  18.5160273  60.5932435  58.7097782
  19.5469203  59.5320666  59.0307807  16.1295997  70.3816221  53.4673500
  16.3118391  69.5637877  53.9301252  16.9528983  70.5983913  53.0298390
  16.4638162  69.3084406  50.7288548  16.9925929  68.7976861  50.1158710
  16.7266382  68.9926936  51.5934081  15.2176396  61.0876339  65.8511367
  14.5417033  60.9870468  66.5213742  16.0404030  60.9315553  66.3147364
   6.9655255  67.3248275  58.4723882   7.5508692  66.5791963  58.6051786
   6.7680093  67.6352232  59.3560546   9.8193910  70.3599523  53.4886324
   9.1504285  70.8445650  53.0050364   9.6806780  70.6068743  54.4029703
   1.5572910  59.8953876  57.1928325   1.5957009  59.3617466  57.9865443
   1.0513202  59.3689081  56.5739302  13.9599179  72.3943266  60.0868983
  14.5117487  72.5574888  60.8518068  14.3005372  72.9847704  59.4149007
   8.9363672  54.7418416  60.6890867   9.0004998  55.6033247  60.2768265
   8.8730792  54.1292418  59.9563226   8.4115944  56.8141549  64.3363901
   9.0387983  56.4318626  64.9501426   7.5543863  56.5955751  64.7019594
  18.8110053  67.2204524  65.9417637  19.3549957  67.8334482  65.4472592
  18.2296898  67.7784102  66.4584650   5.1881487  58.6217978  50.2682256
   5.4834928  57.7128656  50.2149310   4.2869523  58.6005717  49.9463259
  17.0967566  70.3425242  57.0732665  16.9718705  69.5414982  56.5643610
  17.7546657  70.8371435  56.5846635   8.7175734  56.6973974  56.2509805
   7.9962320  57.3109942  56.1117278   9.5068990  57.2331739  56.1726451
  19.1602474  68.1434262  58.7012215  18.2132810  68.0239613  58.6290541
  19.5085247  67.2556760  58.7838476  11.5202048  54.0328401  62.5250457
  12.0436450  54.2790697  63.2876766  11.3014381  54.8648436  62.1053594
   6.9169329  56.3032075  50.3921581   6.5882035  55.4229454  50.2096687
   7.2708699  56.2479744  51.2797971  16.1648908  67.9386978  54.9016567
  16.0173870  67.0103686  55.0824137  16.9902401  67.9607069  54.4173642
  10.0311152  56.5905045  50.7597059  10.3707224  57.1190966  50.0375667
  10.4783272  56.9285451  51.5355626  19.7683029  68.7615537  55.9881440
  20.6929577  68.5558398  55.8505891  19.5998333  68.5131938  56.8970781
  12.7254593  54.9742096  60.2100127  12.3851413  54.1749909  60.6120807
  12.0193599  55.2743807  59.6376960  13.3771065  52.0591408  58.6627450
  14.1997134  51.5851887  58.5406341  13.6209128  52.8381892  59.1626136
  12.0179299  55.0879667  48.9590352  12.7387662  55.4660920  48.4554069
  11.3944603  55.8068544  49.0625330  16.1610422  55.7924816  49.8948684
  16.3774036  56.6749454  49.5937512  15.6804489  55.4011029  49.1654326
  10.9009643  58.7510529  56.4719429  10.7554224  59.0650832  57.3643710
  10.4234847  59.3695429  55.9190327  12.7606026  55.7413077  56.5200318
  12.7467595  54.8454170  56.1832616  13.4778454  55.7483741  57.1538604
  14.6132157  56.1750417  58.5653446  14.3549935  57.0967488  58.5637776
  14.0817197  55.7780852  59.2553910  19.5578346  69.2801204  51.3443531
  19.7315223  68.7147627  50.5917384  20.0507237  70.0802099  51.1623021
   5.3755306  61.2915873  59.4107090   4.8308774  62.0675681  59.5427364
   6.2534655  61.6386678  59.2526211  12.1642922  54.6227457  51.7887889
  12.2858833  53.6944103  51.9878776  11.8744965  54.6366143  50.8766204
  15.0334113  52.3082368  54.9254608  15.0555809  52.3721701  53.9706588
  15.4502172  51.4686876  55.1195115  25.4117737  62.0437627  52.9633831
  25.8548883  61.2944952  52.5652954  24.5344247  62.0347764  52.5807563
  20.5453518  68.5967969  48.4440429  21.2404423  69.2174661  48.6627744
  20.8876668  67.7463320  48.7192807   6.1621327  60.4185770  62.3037247
   5.4203063  60.5668405  62.8901877   5.8414072  60.6794035  61.4403996
  22.4444941  66.0467674  49.9727760  22.9696265  66.3854947  49.2477080
  22.3567294  65.1114690  49.7890895  14.1064990  69.9601748  62.1017637
  14.4152116  69.7150895  62.9740336  14.9040472  70.1648386  61.6136507
  14.1285602  72.1139658  54.3323013  13.6890592  71.6216036  55.0255870
  14.8793719  71.5712625  54.0915089   6.6077941  68.3051198  54.3347641
   7.4335961  68.0054970  53.9546285   6.2571993  67.5358821  54.7837430
  11.5759474  67.6577667  56.4045315  10.9539483  66.9948372  56.1047543
  12.2464341  67.6838799  55.7218963   4.8086546  66.2237525  55.2936575
   3.9718454  65.7959699  55.1120576   4.7810192  66.4169968  56.2307366
  11.6484002  56.1359455  65.9977821  11.6972157  57.0121577  65.6155591
  12.1906516  55.5936848  65.4249464  22.2536722  63.5293044  62.5911687
  22.3034727  63.3643052  63.5327210  22.1450646  62.6620303  62.2009568
  11.1372981  66.2081590  49.8803776  11.2861101  66.8917054  49.2270448
  11.9439425  66.1886680  50.3953231  19.5440485  59.5123972  63.9070993
  20.4450348  59.3730437  63.6154991  19.6188459  59.6778427  64.8469171
  13.8783290  56.8890827  62.7524180  13.0086600  57.1824393  62.4806768
  14.1142771  57.4731272  63.4731443  23.7554919  65.9489986  62.8353708
  23.4639728  66.3119966  63.6717169  23.1427051  65.2356994  62.6567040
  24.9550602  63.5142866  55.3556278  25.7897493  63.9532670  55.5193839
  25.0909730  63.0381519  54.5364524  22.0042107  61.0722600  61.3033766
  22.4796229  61.2650247  60.4952618  21.0807673  61.1281786  61.0577150
   8.8925614  62.2346768  50.8864845   8.6471656  61.3309098  51.0845055
   9.0621529  62.2363918  49.9444323  16.5822324  53.1070444  60.2689600
  17.1004268  53.8431471  59.9436089  16.2277457  53.4134437  61.1036359
   8.1621262  57.9675125  48.3851006   7.4690507  58.0419480  47.7291042
   7.9173014  57.2035469  48.9072523  16.8334918  49.5270727  55.7890497
  17.1136672  48.8593916  56.4150923  17.6185525  49.7199822  55.2765161
  14.6368387  68.7029720  47.3515523  14.0642354  69.3219908  46.8985995
  15.2101180  69.2529082  47.8855445  20.7043776  57.9488360  59.5362072
  21.6561199  58.0486458  59.5574296  20.5347227  57.1566629  60.0460156
  18.7258156  55.0343944  59.7221473  18.1308088  55.3148956  59.0267961
  18.4407853  55.5237845  60.4938214  17.8565646  68.9866871  48.4824105
  18.7896320  68.9212432  48.6856981  17.7688859  69.8223137  48.0238638
  20.4853663  68.3032741  45.4428053  20.4067295  67.9692604  46.3363811
  21.3063330  68.7954509  45.4419525  23.1831854  61.1694480  58.6504372
  23.1508174  60.2310481  58.8364055  23.7932478  61.2478517  57.9170196
  15.0215185  60.0390533  44.6931576  15.9674290  59.9096741  44.7619994
  14.6429430  59.3005195  45.1701004  23.3326343  57.9605524  58.6962655
  22.8165391  57.1763980  58.5092584  24.2166291  57.6324240  58.8609174
  20.9937070  51.7046539  54.6558467  20.7961891  51.3961627  55.5401799
  21.6036775  52.4308178  54.7856397  29.0008404  62.2310487  57.7910408
  29.7311793  61.9695775  58.3518112  28.3915350  61.4939209  57.8312476
  27.0823701  60.3718350  58.3884859  26.3556865  60.2374315  57.7801351
  26.6670988  60.6795178  59.1941578  14.9053878  64.0908279  66.1532233
  15.8256887  64.2686878  66.3472279  14.8703461  63.1464325  66.0011932
  13.2058102  57.9640510  44.6286461  12.2989558  57.6673622  44.7049174
  13.4834083  57.6670328  43.7620747   4.1236043  59.2846873  55.0785507
   3.8038827  58.4312181  54.7859881   3.5769471  59.4995451  55.8343474
   7.9015950  62.0009314  58.7955014   8.1201960  62.9326422  58.8143047
   8.3141724  61.6417288  59.5809818  14.8220168  52.5077399  50.7830702
  14.0120896  52.1624484  51.1585948  15.5104585  52.1984943  51.3718314
  16.7510716  51.5855446  52.4054999  17.3041755  52.0050899  53.0645022
  16.9880803  50.6591194  52.4477955  12.7743816  57.5742520  68.1857763
  12.6740542  58.5236877  68.1169854  12.5565358  57.2460759  67.3133833
  11.9756887  54.8227445  44.7698440  12.8376051  55.1482343  45.0294257
  12.1607231  54.0358941  44.2571506   3.9924303  62.9049784  57.0478629
   3.2987774  62.4903737  56.5348583   4.7397294  62.9470321  56.4512048
  20.1289523  53.6955971  51.9133663  19.5488192  54.3540775  51.5311715
  19.8625456  52.8733316  51.5021080  18.5793090  53.0961029  54.1154983
  19.0792868  53.2077563  53.3069302  19.2228698  52.7922082  54.7555792
  12.6375086  61.0039659  67.0022824  12.1542167  61.8040019  67.2086713
  12.7236025  61.0147603  66.0490268   5.9061045  62.8368038  54.9244644
   5.8831733  62.9355726  53.9726527   6.2161682  63.6833189  55.2461810
   8.5648423  64.8944193  59.0391258   9.5191677  64.8628136  58.9721190
   8.3660947  64.4334817  59.8541484   9.1547805  63.4645309  61.6062056
   9.9740694  63.9589388  61.6296893   9.4284613  62.5477277  61.5779623
  18.9114401  55.8556062  50.9690011  18.0240256  56.1405712  50.7510206
  19.3268390  55.6949825  50.1217288  22.2628938  55.8802583  54.6844350
  23.0389328  56.3699035  54.9568967  21.5377072  56.3060637  55.1416220
  24.7001496  56.5930202  55.7418291  25.2945987  56.3525938  55.0311599
  24.7728080  55.8737332  56.3691827   6.9198652  70.4363813  56.0561456
   6.7853120  69.6764214  55.4899454   6.5030714  71.1604713  55.5890245
  18.0557615  65.6200736  45.0638031  18.7593465  65.8250739  45.6795687
  17.3320264  66.1877498  45.3287115  18.8855425  61.3710598  51.1840301
  18.8290627  61.8279149  50.3447934  19.4383768  60.6101282  51.0063144
  22.6960231  57.1600329  52.0090421  22.4397165  56.7596965  52.8398629
  22.0713099  57.8744123  51.8840560  27.0072569  59.8996403  54.5161712
  26.4472127  59.9689592  55.2893274  26.4016072  59.7237387  53.7961209
  10.0767778  71.3333130  56.2679899   9.9600162  72.2778562  56.1658589
   9.2560224  71.0306691  56.6565698  19.9644312  66.0583265  47.1136491
  20.7989916  65.6264464  46.9313966  19.8028655  65.8865279  48.0413386
  19.6190204  62.5615379  48.4792831  19.5639008  62.3959650  47.5381275
  18.9936260  63.2691412  48.6355020   4.4082719  57.7983443  62.3054253
   5.0541583  57.2882397  62.7941478   4.1999871  58.5352125  62.8797678
  16.9336112  64.8664291  67.8046393  17.8027271  65.0404943  67.4433028
  16.4542863  65.6858707  67.6822123  12.9286330  52.0623488  48.0578149
  12.9165000  53.0065328  48.2146420  13.8209752  51.8793633  47.7637610
  11.1022292  71.9861392  59.4835827  12.0049539  72.0185002  59.8002322
  10.8759662  71.0561843  59.4982163  12.8575894  70.7392378  56.1445906
  11.9071525  70.7394240  56.0310278  13.1608380  69.9925113  55.6281940
  16.7438449  48.6566264  52.3124086  15.9770845  48.1024751  52.4580768
  17.1549154  48.7288133  53.1738237   8.7480210  54.9451060  66.4029267
   9.6111672  54.5887865  66.6132592   8.1745621  54.6064955  67.0904671
  28.5928587  76.5752917  57.2091668  29.2306997  76.4559664  56.5055008
  28.4749430  77.5233761  57.2679620  25.4018294  76.5280345  57.1453193
  25.0636805  76.4121409  56.2573728  26.2708062  76.1271510  57.1254199
  21.2605109  78.3815821  53.1350084  20.6969974  78.2905758  52.3666371
  21.1457504  77.5615726  53.6152576  25.8838077  77.6815196  63.1039398
  25.8726717  77.2867995  62.2319902  26.0458716  76.9481269  63.6973170
  18.8069541  79.8767013  55.9734304  19.5990833  79.5357837  55.5580603
  19.0466191  79.9861988  56.8936457  26.8404668  82.0486789  48.4464549
  26.1892648  82.6340869  48.0598562  27.6349031  82.5792984  48.5059586
  20.7660295  79.1375926  48.8451683  21.5391171  78.5904913  48.7064559
  21.1185694  80.0020175  49.0566144  22.6045338  80.4652308  62.0518582
  22.3135204  81.3697939  61.9365249  23.2402322  80.5068836  62.7662652
  23.5301545  77.8429157  58.6419942  24.1265117  77.6185179  57.9276905
  23.5876516  77.1013902  59.2445390  23.1026573  75.2968592  46.4770133
  23.3552094  74.7750113  45.7153596  22.1651132  75.1334738  46.5796816
  28.1469856  74.3004370  54.2844876  28.9332945  73.8823794  53.9335293
  28.4108560  75.2050463  54.4526524  28.3179933  79.7377221  48.9833533
  27.6825766  79.8111847  49.6954438  27.9877340  80.3270820  48.3052612
  33.5478283  74.2379604  55.1877855  34.2803455  73.6678820  55.4215684
  32.7917639  73.8501204  55.6284360  22.8222862  77.1996698  48.6794508
  22.7059120  76.5241601  49.3475592  22.9325122  76.7129072  47.8626661
  25.1654403  76.6606845  52.3841197  24.8012610  76.1337466  53.0954118
  26.0221519  76.2705314  52.2107682  31.0703703  67.9501178  59.6472463
  30.7387028  68.8196589  59.4233678  30.4749317  67.6337462  60.3266494
  24.8059890  71.6896745  47.3802546  24.9734292  72.5576981  47.7473017
  24.6157059  71.8524027  46.4563835  27.5635223  80.1513724  59.0468376
  27.2635946  81.0538763  58.9384183  27.2186282  79.8845907  59.8989529
  21.0147704  76.6027521  55.0805080  20.0898201  76.4703735  55.2882772
  21.2632118  77.3821740  55.5775023  30.9632367  72.6696264  56.7265813
  30.0549244  72.6011672  56.4324574  30.9119962  73.1468209  57.5547639
  24.7849111  74.1454402  48.3649212  24.6648736  74.5911453  49.2034693
  24.0901699  74.4939720  47.8062751  18.3756515  76.2460794  55.9148869
  18.5048897  76.4995273  56.8288281  17.6953967  76.8388502  55.5953524
  22.5456003  86.9158044  52.0139344  22.4680032  87.8665869  52.0927824
  21.9417646  86.5703917  52.6714270  25.0373232  74.0885910  64.6700711
  24.2606567  74.6479830  64.6603575  25.6763796  74.5742692  65.1915581
  32.8294013  70.8712702  58.5043687  32.1868393  71.1645235  57.8583482
  32.3248942  70.7565623  59.3096884  30.4834177  74.6175876  49.1929546
  31.3952033  74.8503262  49.0177244  29.9743824  75.2012920  48.6304625
  23.2919605  76.8971363  64.2318678  24.0334289  77.4356407  63.9553501
  22.5856590  77.5237652  64.3890229  28.7674944  79.0400503  62.8290839
  29.1758300  78.5982914  62.0845471  28.0452206  78.4653131  63.0825032
  25.1206014  73.9773110  60.2024396  25.9667210  74.4012524  60.3459045
  25.0604652  73.3206734  60.8962959  29.0903759  79.6001694  56.5843128
  28.4612621  79.7647408  55.8819196  28.7029421  80.0143304  57.3554092
  32.9692991  80.5356132  53.9387492  32.2844029  80.9155033  53.3884525
  33.0536840  81.1451458  54.6719439  28.2705460  71.6377478  61.8605570
  28.0266392  72.3919539  61.3239845  28.5465390  72.0162826  62.6952817
  30.2243923  78.1816091  60.5382835  30.4360818  78.8247851  59.8617216
  30.1773671  77.3478407  60.0704765  27.8270151  70.7933911  57.4419407
  26.9654631  71.0915165  57.7336145  27.8532586  71.0104310  56.5100440
  24.6431721  79.3376102  53.8493213  25.1070066  79.6163805  53.0597835
  24.3788519  78.4359547  53.6666304  21.5355802  78.8847584  56.7872976
  22.1057159  79.3134852  56.1490461  22.1263914  78.6030168  57.4857162
  23.5800607  75.4599254  50.6582778  24.2824650  75.9120298  51.1256704
  23.2481235  74.8183073  51.2862671  22.0280968  74.0511011  65.0333987
  21.3979629  74.7327292  65.2669384  21.9217056  73.9394093  64.0887126
  17.3225941  73.7182807  55.9599912  16.5324995  73.9740336  55.4840022
  17.8137188  74.5331145  56.0651952  31.3389750  81.0588046  58.7105193
  32.1607194  80.6568234  58.4287874  31.3352153  80.9556280  59.6621308
  19.2740686  74.0827386  52.9183388  18.4771850  74.1946081  53.4366884
  19.0466279  74.4214039  52.0524279  25.1046354  80.6072090  60.8665903
  25.1690786  81.0692497  61.7024075  24.3957278  79.9769454  60.9948213
  15.6063644  73.9713298  58.3914902  15.8571682  74.8560307  58.6572478
  16.1423192  73.7917899  57.6189994  39.4295744  77.4026795  55.0590164
  38.6759452  76.8334193  54.9034168  39.5643285  77.3689459  56.0060799
  24.8194372  82.2740197  50.7344883  24.6840046  83.1191733  51.1629731
  25.3604184  82.4759475  49.9710817  18.2723769  79.7915635  51.3072808
  18.7848290  80.5858885  51.4578373  18.9246482  79.0941926  51.2406410
  20.0818654  82.9081391  53.3895562  20.2585282  83.8299356  53.2016545
  20.8775487  82.5939811  53.8189941  19.3671010  74.9546023  63.2657725
  19.2524525  74.0531280  63.5664824  18.5115528  75.2009720  62.9142541
  26.4462848  82.8963764  64.8645225  26.0026702  82.1100142  64.5466130
  27.1080062  83.0842914  64.1989116  21.2049969  84.4259565  59.3905904
  21.7557394  84.2976629  58.6182898  20.3661445  84.7254454  59.0400797
  28.5444086  83.1766563  62.8926627  28.5262561  83.9975445  62.4006896
  29.4664006  83.0520639  63.1176768  25.0017140  80.6910693  63.7350135
  25.5345477  79.9298981  63.5049443  24.4731221  80.3984345  64.4774290
  28.1686835  65.7970759  59.2643777  27.8251105  66.6872401  59.1882887
  28.5365798  65.6072417  58.4013362  16.2372686  78.1204289  52.0832379
  17.0747908  78.5301298  51.8666087  16.4150953  77.1803732  52.0532573
  28.1337118  75.7879370  47.7716212  27.6183741  76.5583975  48.0104599
  27.8614426  75.1144506  48.3949273  25.7184229  70.6329071  52.8301450
  24.8625825  70.2435921  52.6507089  26.1311181  70.7121032  51.9701236
  27.2483376  68.1675414  57.2293010  26.7448171  68.1305549  56.4160815
  27.5413982  69.0768157  57.2889667  23.4926261  68.2514144  56.2359192
  24.3579258  68.0556952  55.8765081  23.5603770  68.0224496  57.1628549
  33.1071392  78.5411725  49.7069385  32.3300835  78.2022884  49.2624547
  33.7862873  78.5464348  49.0324350  27.9223421  73.6606462  49.5975993
  27.6173557  73.9752611  50.4486136  28.8753863  73.7387882  49.6403326
  26.3669853  79.8196685  51.2468947  25.8391214  79.0849445  50.9342185
  25.8657356  80.5971362  51.0008915  31.3462699  78.0145706  56.3635993
  30.6886373  78.7044967  56.4516122  32.1503098  78.4042138  56.7069980
  21.0988581  70.4816352  53.6075559  21.6732332  70.2591533  52.8748752
  21.6859563  70.5505046  54.3604160  30.1568158  76.3690079  54.4139935
  30.6700039  77.0020070  54.9161645  30.8069382  75.7691274  54.0483295
  21.4258168  72.5120813  47.6271444  20.5895480  72.8495499  47.9480719
  21.2862937  72.3769793  46.6898581  23.4011248  67.3557601  52.3350628
  22.7475661  67.0406618  51.7107243  23.3591722  66.7333341  53.0610451
  24.5122453  77.6376896  44.2503920  23.6049515  77.4066149  44.4495069
  25.0093485  76.8414515  44.4377902  27.4190532  86.3474403  47.1700606
  26.7452231  86.6506100  47.7785564  27.8056354  87.1503483  46.8206063
  26.6348989  73.8439534  56.6598276  25.7171550  74.0654481  56.5019964
  27.0509132  73.9185845  55.8009983  27.4184036  75.2430950  51.7900956
  28.1655855  75.7552347  51.4808078  27.6875626  74.9215003  52.6505349
  25.6910687  77.7389491  48.7727910  24.7821906  77.4548523  48.8700380
  25.7205770  78.1588569  47.9131217  30.9229954  81.3496080  52.5419078
  30.4692281  80.5086990  52.5984268  30.2923921  81.9857478  52.8793858
  29.8662873  72.2788066  53.7719745  29.1285630  71.7665452  54.1029988
  30.1189647  71.8388448  52.9603022  29.3662893  83.1872577  53.4768896
  29.6585868  83.7477634  52.7581262  29.8761514  83.4801138  54.2322055
  29.9674501  65.0564318  54.3661514  30.2733378  64.1961682  54.0787430
  30.6927106  65.6481938  54.1660508  16.2598857  75.4595005  52.7543112
  16.0623257  74.8664365  52.0294179  15.7045521  75.1547215  53.4719051
  24.2395581  75.3518111  54.8737706  24.2944190  74.3991948  54.7980182
  23.4286783  75.5077550  55.3579004  25.3886774  79.2798234  46.1115989
  24.9506204  78.5634093  45.6521626  26.1297215  79.5074349  45.5501080
  22.1787940  73.9695171  52.6328084  21.3655806  74.2689341  53.0393277
  22.6746935  73.5750860  53.3502567  24.3296518  83.9652928  54.5662349
  24.2872697  84.1913774  53.6370881  25.2459217  83.7316302  54.7148150
  27.7762152  74.4336995  61.4642978  28.1311540  74.6608469  62.3237444
  28.4234283  74.7655372  60.8420234  33.5059889  77.5555431  52.1692307
  33.3677788  77.7457027  51.2413497  33.1496108  78.3174814  52.6260358
  21.6702015  71.5413526  58.2489319  22.3101395  71.4002286  57.5512283
  20.8379546  71.2548040  57.8727921  33.5329269  79.6231958  57.1803579
  33.9665775  79.5307247  58.0286633  34.2460849  79.5989459  56.5423595
  22.4462319  80.8415957  54.3624312  23.2402918  80.3466277  54.1606887
  21.7354012  80.3133820  53.9992017  27.2657164  83.2234052  58.7136679
  27.3194186  83.7924989  59.4814395  26.3971945  83.3935937  58.3490717
  18.7545083  74.9859039  50.4384065  17.8242671  74.9243494  50.6554027
  18.8502555  74.4634991  49.6420706  18.6730632  71.5113851  53.0262306
  18.9337449  72.4259185  52.9171467  19.4947804  71.0438294  53.1758919
  20.1455557  72.9251609  60.1961131  20.8178610  72.7168971  59.5473780
  19.3185344  72.7273695  59.7566363  34.3944818  79.6655659  59.7136464
  34.5880708  80.5701469  59.9595739  34.2945436  79.2063078  60.5475049
  26.0481129  69.5513550  62.2126792  25.4009044  70.2503499  62.1191268
  26.8182144  69.9849693  62.5803040  29.4559927  79.8162402  65.2877345
  29.3045433  79.5872953  64.3707429  29.4464606  80.7733003  65.3008690
  26.2245263  77.3894314  60.2723611  27.1537323  77.5405474  60.0992579
  25.8036293  77.4778335  59.4172258  25.0233595  81.4144979  58.0422149
  24.8844681  81.0463763  58.9148087  24.2348191  81.9292618  57.8706107
  25.6181747  86.5154075  49.3847685  25.7933503  86.0442119  50.1993308
  24.9314535  87.1419842  49.6128946  26.5738810  80.7926582  55.4310987
  26.2388643  80.7527352  56.3268637  26.0742756  80.1271297  54.9581397
  20.5483054  76.1994212  60.9563568  20.4102852  75.4674450  61.5575107
  21.4587978  76.1103112  60.6747756  29.5098002  78.1382616  45.7048046
  28.8927173  77.4129444  45.6081099  29.0414490  78.8991976  45.3615121
  23.1765355  75.9114171  60.4447248  23.8864973  75.2707363  60.4033866
  23.1334663  76.1627066  61.3673428  31.1652134  82.8481524  63.3653827
  31.1064680  82.1640744  62.6984410  31.5671652  83.5900514  62.9134453
  21.8894289  72.8979389  62.2642887  21.3531646  72.4470127  62.9164483
  21.3010997  73.0325298  61.5213351  20.1842832  89.6643438  56.1587546
  20.4239431  90.2961962  56.8366564  19.3412029  89.3131478  56.4452905
  21.2996548  72.3568040  44.8269351  20.4226014  72.2356841  44.4631597
  21.7754301  71.5654118  44.5748239  31.1669541  80.8121108  61.5967806
  30.2796320  80.4747030  61.7194205  31.7368092  80.0804139  61.8336572
  12.8198688  77.1445200  54.9210858  13.5069728  76.8306930  54.3331873
  12.6646817  78.0486565  54.6478109  17.6233410  72.0335396  59.3495881
  17.5391599  71.4261066  58.6146291  16.8016117  72.5244415  59.3505378
  24.6970694  85.4722561  58.5629050  24.6240866  86.2777532  59.0748354
  24.2548087  85.6714526  57.7377071  24.4860474  84.7094331  52.0731871
  23.7027996  85.2516011  52.1670096  25.1853219  85.2268310  52.4726112
  27.7957124  70.5188960  54.7166077  28.2925824  69.7658922  54.3967147
  27.0244105  70.5553277  54.1509286  35.6486881  76.2229326  56.3584368
  35.6376758  77.1054041  55.9878301  34.7804261  75.8700876  56.1638905
  27.1569378  85.3709395  60.7187208  27.8697350  86.0056859  60.6463110
  26.6659406  85.4673261  59.9027210  28.8786905  79.2760647  52.2904500
  27.9443183  79.3962110  52.1209204  29.0563573  78.3733114  52.0264510
  24.3792093  72.6606343  54.4437761  24.0089880  72.1077383  55.1318667
  24.8751185  72.0564476  53.8912761  32.2659456  75.1177967  52.8254534
  32.7319908  75.9505958  52.7514837  32.7166957  74.6522948  53.5299793
  22.2081291  83.1203838  61.5392779  22.9090751  83.7540321  61.6922173
  21.7376406  83.4618570  60.7788418  30.3335687  81.4621788  49.8240686
  30.6095531  81.3478382  50.7334560  29.4640186  81.0639273  49.7852859
  30.2376119  67.4858554  56.8645435  29.3239199  67.7162780  57.0327642
  30.6669220  67.5696998  57.7159468  30.0082577  75.6748445  59.3645329
  29.3554028  75.9224353  58.7097782  30.3862957  74.8612584  59.0307807
  26.9689751  85.7108139  53.4673500  27.1512146  84.8929795  53.9301252
  27.7922737  85.9275831  53.0298390  27.3031917  84.6376324  50.7288548
  27.8319683  84.1268778  50.1158710  27.5660136  84.3218854  51.5934081
  26.0570150  76.4168257  65.8511367  25.3810787  76.3162386  66.5213742
  26.8797784  76.2607470  66.3147364  17.8049009  82.6540193  58.4723882
  18.3902446  81.9083881  58.6051786  17.6073848  82.9644150  59.3560546
  20.6587665  85.6891440  53.4886324  19.9898040  86.1737568  53.0050364
  20.5200534  85.9360661  54.4029703  12.3966664  75.2245793  57.1928325
  12.4350764  74.6909384  57.9865443  11.8906957  74.6980999  56.5739302
  24.7992933  87.7235184  60.0868983  25.3511241  87.8866805  60.8518068
  25.1399127  88.3139622  59.4149007  19.7757426  70.0710334  60.6890867
  19.8398753  70.9325165  60.2768265  19.7124547  69.4584335  59.9563226
  19.2509699  72.1433466  64.3363901  19.8781738  71.7610544  64.9501426
  18.3937618  71.9247668  64.7019594  29.6503808  82.5496441  65.9417637
  30.1943711  83.1626400  65.4472592  29.0690652  83.1076020  66.4584650
  16.0275242  73.9509895  50.2682256  16.3228683  73.0420574  50.2149310
  15.1263277  73.9297635  49.9463259  27.9361320  85.6717160  57.0732665
  27.8112460  84.8706899  56.5643610  28.5940412  86.1663353  56.5846635
  19.5569489  72.0265892  56.2509805  18.8356074  72.6401860  56.1117278
  20.3462744  72.5623657  56.1726451  29.9996229  83.4726180  58.7012215
  29.0526564  83.3531531  58.6290541  30.3479002  82.5848678  58.7838476
  22.3595802  69.3620319  62.5250457  22.8830204  69.6082615  63.2876766
  22.1408135  70.1940353  62.1053594  17.7563083  71.6323993  50.3921581
  17.4275789  70.7521372  50.2096687  18.1102454  71.5771662  51.2797971
  27.0042662  83.2678896  54.9016567  26.8567625  82.3395603  55.0824137
  27.8296156  83.2898987  54.4173642  20.8704906  71.9196963  50.7597059
  21.2100979  72.4482884  50.0375667  21.3177027  72.2577369  51.5355626
  30.6076784  84.0907455  55.9881440  31.5323331  83.8850316  55.8505891
  30.4392087  83.8423856  56.8970781  23.5648347  70.3034014  60.2100127
  23.2245168  69.5041827  60.6120807  22.8587354  70.6035724  59.6376960
  24.2164819  67.3883326  58.6627450  25.0390888  66.9143804  58.5406341
  24.4602883  68.1673810  59.1626136  22.8573054  70.4171584  48.9590352
  23.5781416  70.7952837  48.4554069  22.2338358  71.1360461  49.0625330
  27.0004176  71.1216733  49.8948684  27.2167791  72.0041371  49.5937512
  26.5198244  70.7302947  49.1654326  21.7403398  74.0802447  56.4719429
  21.5947979  74.3942750  57.3643710  21.2628601  74.6987347  55.9190327
  23.5999781  71.0704995  56.5200318  23.5861349  70.1746088  56.1832616
  24.3172209  71.0775658  57.1538604  25.4525911  71.5042335  58.5653446
  25.1943689  72.4259406  58.5637776  24.9210952  71.1072769  59.2553910
  30.3972100  84.6093122  51.3443531  30.5708978  84.0439544  50.5917384
  30.8900991  85.4094017  51.1623021  16.2149060  76.6207791  59.4107090
  15.6702528  77.3967599  59.5427364  17.0928410  76.9678596  59.2526211
  23.0036677  69.9519375  51.7887889  23.1252588  69.0236021  51.9878776
  22.7138719  69.9658061  50.8766204  25.8727867  67.6374285  54.9254608
  25.8949564  67.7013618  53.9706588  26.2895926  66.7978794  55.1195115
  36.2511491  77.3729545  52.9633831  36.6942637  76.6236870  52.5652954
  35.3738002  77.3639681  52.5807563  31.3847273  83.9259886  48.4440429
  32.0798177  84.5466579  48.6627744  31.7270423  83.0755238  48.7192807
  17.0015082  75.7477687  62.3037247  16.2596818  75.8960323  62.8901877
  16.6807826  76.0085953  61.4403996  33.2838696  81.3759592  49.9727760
  33.8090020  81.7146865  49.2477080  33.1961048  80.4406607  49.7890895
  24.9458744  85.2893666  62.1017637  25.2545871  85.0442812  62.9740336
  25.7434227  85.4940304  61.6136507  24.9679357  87.4431575  54.3323013
  24.5284347  86.9507954  55.0255870  25.7187474  86.9004543  54.0915089
  17.4471696  83.6343116  54.3347641  18.2729715  83.3346888  53.9546285
  17.0965748  82.8650739  54.7837430  22.4153229  82.9869584  56.4045315
  21.7933238  82.3240289  56.1047543  23.0858096  83.0130716  55.7218963
  15.6480301  81.5529443  55.2936575  14.8112209  81.1251617  55.1120576
  15.6203946  81.7461886  56.2307366  22.4877756  71.4651372  65.9977821
  22.5365912  72.3413495  65.6155591  23.0300270  70.9228765  65.4249464
  32.9732602  82.0092496  65.2778958  32.1828146  81.9916634  64.7383458
  32.7365956  82.5480789  66.0327995  33.0930477  78.8584962  62.5911687
  33.1428482  78.6934969  63.5327210  32.9844400  77.9912221  62.2009568
  21.9766736  81.5373508  49.8803776  22.1254856  82.2208972  49.2270448
  22.7833179  81.5178598  50.3953231  30.3834239  74.8415890  63.9070993
  31.2844102  74.7022355  63.6154991  30.4582214  75.0070345  64.8469171
  24.7177045  72.2182745  62.7524180  23.8480354  72.5116311  62.4806768
  24.9536525  72.8023190  63.4731443  34.5948674  81.2781903  62.8353708
  34.3033482  81.6411884  63.6717169  33.9820805  80.5648912  62.6567040
  35.7944356  78.8434783  55.3556278  36.6291247  79.2824587  55.5193839
  35.9303485  78.3673436  54.5364524  32.8435862  76.4014518  61.3033766
  33.3189984  76.5942164  60.4952618  31.9201427  76.4573704  61.0577150
  19.7319369  77.5638685  50.8864845  19.4865411  76.6601015  51.0845055
  19.9015283  77.5655836  49.9444323  27.4216078  68.4362362  60.2689600
  27.9398022  69.1723389  59.9436089  27.0671211  68.7426355  61.1036359
  19.0015016  73.2967043  48.3851006  18.3084261  73.3711398  47.7291042
  18.7566768  72.5327386  48.9072523  27.6728673  64.8562644  55.7890497
  27.9530426  64.1885833  56.4150923  28.4579280  65.0491740  55.2765161
  25.4762141  84.0321638  47.3515523  24.9036108  84.6511825  46.8985995
  26.0494935  84.5821000  47.8855445  31.5437531  73.2780278  59.5362072
  32.4954954  73.3778376  59.5574296  31.3740981  72.4858547  60.0460156
  29.5651910  70.3635861  59.7221473  28.9701843  70.6440874  59.0267961
  29.2801607  70.8529762  60.4938214  28.6959401  84.3158788  48.4824105
  29.6290074  84.2504350  48.6856981  28.6082614  85.1515055  48.0238638
  31.3247418  83.6324659  45.4428053  31.2461049  83.2984522  46.3363811
  32.1457084  84.1246426  45.4419525  34.0225609  76.4986398  58.6504372
  33.9901929  75.5602399  58.8364055  34.6326232  76.5770435  57.9170196
  25.8608940  75.3682451  44.6931576  26.8068044  75.2388659  44.7619994
  25.4823185  74.6297113  45.1701004  34.1720097  73.2897441  58.6962655
  33.6559146  72.5055898  58.5092584  35.0560046  72.9616158  58.8609174
  31.8330824  67.0338457  54.6558467  31.6355645  66.7253545  55.5401799
  32.4430530  67.7600096  54.7856397  39.8402159  77.5602405  57.7910408
  40.5705547  77.2987693  58.3518112  39.2309104  76.8231127  57.8312476
  37.9217456  75.7010267  58.3884859  37.1950619  75.5666232  57.7801351
  37.5064743  76.0087096  59.1941578  25.7447632  79.4200197  66.1532233
  26.6650642  79.5978796  66.3472279  25.7097215  78.4756242  66.0011932
  24.0451857  73.2932427  44.6286461  23.1383312  72.9965540  44.7049174
  24.3227838  72.9962245  43.7620747  14.9629797  74.6138791  55.0785507
  14.6432582  73.7604099  54.7859881  14.4163225  74.8287369  55.8343474
  18.7409705  77.3301232  58.7955014  18.9595714  78.2618339  58.8143047
  19.1535479  76.9709206  59.5809818  25.6613923  67.8369317  50.7830702
  24.8514651  67.4916402  51.1585948  26.3498339  67.5276861  51.3718314
  27.5904471  66.9147364  52.4054999  28.1435509  67.3342817  53.0645022
  27.8274557  65.9883112  52.4477955  23.6137570  72.9034437  68.1857763
  23.5134297  73.8528794  68.1169854  23.3959112  72.5752676  67.3133833
  22.8150641  70.1519362  44.7698440  23.6769805  70.4774261  45.0294257
  23.0000986  69.3650858  44.2571506  14.8318057  78.2341702  57.0478629
  14.1381529  77.8195655  56.5348583  15.5791048  78.2762239  56.4512048
  30.9683278  69.0247889  51.9133663  30.3881947  69.6832693  51.5311715
  30.7019211  68.2025233  51.5021080  29.4186844  68.4252947  54.1154983
  29.9186623  68.5369481  53.3069302  30.0622452  68.1213999  54.7555792
  23.4768840  76.3331576  67.0022824  22.9935922  77.1331936  67.2086713
  23.5629779  76.3439521  66.0490268  16.7454800  78.1659956  54.9244644
  16.7225488  78.2647643  53.9726527  17.0555436  79.0125107  55.2461810
  19.4042178  80.2236111  59.0391258  20.3585431  80.1920053  58.9721190
  19.2054701  79.7626735  59.8541484  19.9941560  78.7937227  61.6062056
  20.8134449  79.2881306  61.6296893  20.2678367  77.8769195  61.5779623
  29.7508156  71.1847979  50.9690011  28.8634011  71.4697630  50.7510206
  30.1662145  71.0241743  50.1217288  33.1022692  71.2094500  54.6844350
  33.8783082  71.6990953  54.9568967  32.3770826  71.6352554  55.1416220
  35.5395251  71.9222119  55.7418291  36.1339741  71.6817855  55.0311599
  35.6121834  71.2029250  56.3691827  17.7592406  85.7655730  56.0561456
  17.6246874  85.0056131  55.4899454  17.3424469  86.4896630  55.5890245
  28.8951369  80.9492654  45.0638031  29.5987219  81.1542656  45.6795687
  28.1714018  81.5169416  45.3287115  29.7249180  76.7002515  51.1840301
  29.6684381  77.1571067  50.3447934  30.2777522  75.9393200  51.0063144
  33.5353986  72.4892247  52.0090421  33.2790920  72.0888883  52.8398629
  32.9106854  73.2036041  51.8840560  37.8466323  75.2288320  54.5161712
  37.2865881  75.2981510  55.2893274  37.2409827  75.0529305  53.7961209
  20.9161532  86.6625047  56.2679899  20.7993916  87.6070480  56.1658589
  20.0953979  86.3598609  56.6565698  30.8038067  81.3875183  47.1136491
  31.6383671  80.9556382  46.9313966  30.6422410  81.2157197  48.0413386
  30.4583959  77.8907296  48.4792831  30.4032763  77.7251568  47.5381275
  29.8330014  78.5983329  48.6355020  15.2476474  73.1275361  62.3054253
  15.8935338  72.6174315  62.7941478  15.0393625  73.8644042  62.8797678
  27.7729866  80.1956208  67.8046393  28.6421026  80.3696861  67.4433028
  27.2936618  81.0150625  67.6822123  23.7680084  67.3915405  48.0578149
  23.7558754  68.3357245  48.2146420  24.6603506  67.2085551  47.7637610
  21.9416046  87.3153309  59.4835827  22.8443293  87.3476920  59.8002322
  21.7153416  86.3853760  59.4982163  23.6969648  86.0684296  56.1445906
  22.7465279  86.0686157  56.0310278  24.0002135  85.3217030  55.6281940
  27.5832204  63.9858182  52.3124086  26.8164600  63.4316669  52.4580768
  27.9942909  64.0580051  53.1738237  19.5873965  70.2742978  66.4029267
  20.4505427  69.9179783  66.6132592  19.0139376  69.9356873  67.0904671
  36.2412048  91.8572262  57.1453193  35.9030560  91.7413327  56.2573728
  37.1101816  91.4563427  57.1254199  32.0998864  93.7107739  53.1350084
  31.5363729  93.6197676  52.3666371  31.9851259  92.8907643  53.6152576
  36.7231831  93.0107114  63.1039398  36.7120472  92.6159912  62.2319902
  36.8852471  92.2773187  63.6973170  29.6463296  95.2058930  55.9734304
  30.4384588  94.8649755  55.5580603  29.8859946  95.3153905  56.8936457
  37.6798423  97.3778706  48.4464549  37.0286402  97.9632787  48.0598562
  38.4742785  97.9084901  48.5059586  31.6054050  94.4667844  48.8451683
  32.3784926  93.9196831  48.7064559  31.9579449  95.3312093  49.0566144
  33.4439092  95.7944226  62.0518582  33.1528958  96.6989857  61.9365249
  34.0796077  95.8360754  62.7662652  34.3695299  93.1721074  58.6419942
  34.9658871  92.9477097  57.9276905  34.4270271  92.4305820  59.2445390
  33.9420328  90.6260510  46.4770133  34.1945848  90.1042031  45.7153596
  33.0044887  90.4626655  46.5796816  38.9863610  89.6296288  54.2844876
  39.7726700  89.2115711  53.9335293  39.2502315  90.5342380  54.4526524
  39.1573688  95.0669138  48.9833533  38.5219521  95.1403765  49.6954438
  38.8271094  95.6562737  48.3052612  33.6616616  92.5288616  48.6794508
  33.5452874  91.8533519  49.3475592  33.7718876  92.0420990  47.8626661
  36.0048157  91.9898763  52.3841197  35.6406364  91.4629384  53.0954118
  36.8615273  91.5997232  52.2107682  41.9097458  83.2793095  59.6472463
  41.5780783  84.1488506  59.4233678  41.3143071  82.9629379  60.3266494
  35.6453644  87.0188663  47.3802546  35.8128047  87.8868899  47.7473017
  35.4550813  87.1815944  46.4563835  38.4028977  95.4805641  59.0468376
  38.1029700  96.3830680  58.9384183  38.0580037  95.2137825  59.8989529
  31.8541459  91.9319438  55.0805080  30.9291955  91.7995652  55.2882772
  32.1025872  92.7113657  55.5775023  35.6242865  89.4746320  48.3649212
  35.5042490  89.9203371  49.2034693  34.9295453  89.8231638  47.8062751
  29.2150270  91.5752712  55.9148869  29.3442651  91.8287191  56.8288281
  28.5347721  92.1680420  55.5953524  33.3849757 102.2449962  52.0139344
  33.3073787 103.1957787  52.0927824  32.7811401 101.8995834  52.6714270
  35.8766987  89.4177827  64.6700711  35.1000321  89.9771747  64.6603575
  36.5157550  89.9034610  65.1915581  41.3227931  89.9467793  49.1929546
  42.2345787  90.1795180  49.0177244  40.8137578  90.5304837  48.6304625
  34.1313359  92.2263281  64.2318678  34.8728044  92.7648325  63.9553501
  33.4250345  92.8529569  64.3890229  39.6068699  94.3692421  62.8290839
  40.0152055  93.9274832  62.0845471  38.8845960  93.7945049  63.0825032
  35.9599769  89.3065028  60.2024396  36.8060964  89.7304441  60.3459045
  35.8998407  88.6498652  60.8962959  39.9297514  94.9293612  56.5843128
  39.3006376  95.0939326  55.8819196  39.5423176  95.3435221  57.3554092
  43.8086745  95.8648049  53.9387492  43.1237784  96.2446951  53.3884525
  43.8930595  96.4743376  54.6719439  39.1099214  86.9669396  61.8605570
  38.8660146  87.7211457  61.3239845  39.3859145  87.3454744  62.6952817
  41.0637677  93.5108009  60.5382835  41.2754572  94.1539768  59.8617216
  41.0167425  92.6770325  60.0704765  38.6663906  86.1225829  57.4419407
  37.8048385  86.4207083  57.7336145  38.6926341  86.3396228  56.5100440
  35.4825475  94.6668020  53.8493213  35.9463821  94.9455723  53.0597835
  35.2182274  93.7651464  53.6666304  32.3749556  94.2139501  56.7872976
  32.9450914  94.6426770  56.1490461  32.9657668  93.9322086  57.4857162
  34.4194361  90.7891172  50.6582778  35.1218405  91.2412216  51.1256704
  34.0874990  90.1474991  51.2862671  32.8674723  89.3802929  65.0333987
  32.2373384  90.0619210  65.2669384  32.7610811  89.2686010  64.0887126
  28.1619695  89.0474725  55.9599912  27.3718749  89.3032253  55.4840022
  28.6530943  89.8623063  56.0651952  42.1783505  96.3879964  58.7105193
  43.0000949  95.9860151  58.4287874  42.1745908  96.2848198  59.6621308
  30.1134441  89.4119304  52.9183388  29.3165604  89.5237998  53.4366884
  29.8860033  89.7505956  52.0524279  35.9440108  95.9364007  60.8665903
  36.0084541  96.3984414  61.7024075  35.2351032  95.3061372  60.9948213
  26.4457398  89.3005215  58.3914902  26.6965437  90.1852225  58.6572478
  26.9816947  89.1209817  57.6189994  35.6588126  97.6032115  50.7344883
  35.5233801  98.4483650  51.1629731  36.1997939  97.8051392  49.9710817
  32.1455466  83.6823695  67.3959239  31.7522411  83.1289893  68.0706883
  32.9621606  83.9934273  67.7865756  29.1117523  95.1207553  51.3072808
  29.6242044  95.9150803  51.4578373  29.7640236  94.4233843  51.2406410
  30.9212408  98.2373309  53.3895562  31.0979037  99.1591274  53.2016545
  31.7169242  97.9231728  53.8189941  35.0623427  85.0981574  64.9879495
  35.8033140  85.6988727  64.9083958  35.2941350  84.3559211  64.4297538
  30.2064765  90.2837941  63.2657725  30.0918280  89.3823198  63.5664824
  29.3509282  90.5301638  62.9142541  37.2856602  98.2255681  64.8645225
  36.8420457  97.4392060  64.5466130  37.9473816  98.4134832  64.1989116
  32.0443724  99.7551483  59.3905904  32.5951149  99.6268546  58.6182898
  31.2055200 100.0546372  59.0400797  39.3837841  98.5058481  62.8926627
  39.3656316  99.3267362  62.4006896  40.3057761  98.3812556  63.1176768
  35.8410895  96.0202611  63.7350135  36.3739231  95.2590899  63.5049443
  35.3124976  95.7276262  64.4774290  39.0080590  81.1262677  59.2643777
  38.6644859  82.0164318  59.1882887  39.3759552  80.9364334  58.4013362
  27.0766440  93.4496207  52.0832379  27.9141662  93.8593215  51.8666087
  27.2544708  92.5095649  52.0532573  38.9730872  91.1171288  47.7716212
  38.4577496  91.8875892  48.0104599  38.7008181  90.4436424  48.3949273
  36.5577983  85.9620988  52.8301450  35.7019580  85.5727839  52.6507089
  36.9704935  86.0412949  51.9701236  38.0877130  83.4967332  57.2293010
  37.5841926  83.4597467  56.4160815  38.3807737  84.4060074  57.2889667
  34.3320016  83.5806061  56.2359192  35.1973013  83.3848870  55.8765081
  34.3997525  83.3516413  57.1628549  43.9465147  93.8703642  49.7069385
  43.1694589  93.5314802  49.2624547  44.6256627  93.8756266  49.0324350
  38.7617176  88.9898380  49.5975993  38.4567311  89.3044529  50.4486136
  39.7147618  89.0679800  49.6403326  37.2063607  95.1488603  51.2468947
  36.6784969  94.4141363  50.9342185  36.7051110  95.9263279  51.0008915
  31.9382335  85.8108269  53.6075559  32.5126087  85.5883451  52.8748752
  32.5253317  85.8796964  54.3604160  32.2651922  87.8412730  47.6271444
  31.4289234  88.1787417  47.9480719  32.1256692  87.7061710  46.6898581
  34.2405003  82.6849518  52.3350628  33.5869415  82.3698535  51.7107243
  34.1985477  82.0625259  53.0610451  35.3516208  92.9668813  44.2503920
  34.4443269  92.7358067  44.4495069  35.8487240  92.1706433  44.4377902
  38.2584286 101.6766321  47.1700606  37.5845985 101.9798017  47.7785564
  38.6450108 102.4795401  46.8206063  37.4742743  89.1731452  56.6598276
  36.5565304  89.3946399  56.5019964  37.8902887  89.2477762  55.8009983
  38.2577791  90.5722868  51.7900956  39.0049610  91.0844265  51.4808078
  38.5269380  90.2506920  52.6505349  36.5304441  93.0681408  48.7727910
  35.6215660  92.7840441  48.8700380  36.5599525  93.4880487  47.9131217
  41.7623708  96.6787998  52.5419078  41.3086036  95.8378908  52.5984268
  41.1317675  97.3149396  52.8793858  40.7056628  87.6079984  53.7719745
  39.9679385  87.0957370  54.1029988  40.9583402  87.1680365  52.9603022
  40.2056648  98.5164494  53.4768896  40.4979622  99.0769552  52.7581262
  40.7155268  98.8093055  54.2322055  40.8068255  80.3856236  54.3661514
  41.1127132  79.5253599  54.0787430  41.5320860  80.9773856  54.1660508
  27.0992611  90.7886922  52.7543112  26.9017011  90.1956283  52.0294179
  26.5439275  90.4839133  53.4719051  35.0789335  90.6810029  54.8737706
  35.1337945  89.7283865  54.7980182  34.2680537  90.8369468  55.3579004
  36.2280529  94.6090152  46.1115989  35.7899959  93.8926011  45.6521626
  36.9690970  94.8366267  45.5501080  33.0181695  89.2987089  52.6328084
  32.2049561  89.5981259  53.0393277  33.5140689  88.9042777  53.3502567
  35.1690273  99.2944846  54.5662349  35.1266452  99.5205692  53.6370881
  36.0852972  99.0608220  54.7148150  38.6155907  89.7628913  61.4642978
  38.9705294  89.9900386  62.3237444  39.2628038  90.0947290  60.8420234
  44.3453644  92.8847349  52.1692307  44.2071542  93.0748945  51.2413497
  43.9889862  93.6466732  52.6260358  32.5095770  86.8705444  58.2489319
  33.1495149  86.7294203  57.5512283  31.6773300  86.5839958  57.8727921
  44.3723023  94.9523876  57.1803579  44.8059530  94.8599165  58.0286633
  45.0854604  94.9281376  56.5423595  33.2856074  96.1707875  54.3624312
  34.0796672  95.6758195  54.1606887  32.5747766  95.6425738  53.9992017
  38.1050918  98.5525970  58.7136679  38.1587940  99.1216906  59.4814395
  37.2365699  98.7227855  58.3490717  29.5938837  90.3150956  50.4384065
  28.6636425  90.2535412  50.6554027  29.6896309  89.7926909  49.6420706
  29.5124386  86.8405769  53.0262306  29.7731203  87.7551102  52.9171467
  30.3341558  86.3730212  53.1758919  30.9849311  88.2543526  60.1961131
  31.6572365  88.0460888  59.5473780  30.1579098  88.0565612  59.7566363
  45.2338573  94.9947577  59.7136464  45.4274463  95.8993387  59.9595739
  45.1339191  94.5354996  60.5475049  36.8874883  84.8805467  62.2126792
  36.2402799  85.5795417  62.1191268  37.6575899  85.3141611  62.5803040
  40.2953681  95.1454319  65.2877345  40.1439188  94.9164871  64.3707429
  40.2858361  96.1024921  65.3008690  37.0639018  92.7186232  60.2723611
  37.9931078  92.8697392  60.0992579  36.6430048  92.8070253  59.4172258
  35.8627350  96.7436897  58.0422149  35.7238435  96.3755681  58.9148087
  35.0741946  97.2584536  57.8706107  36.4575502 101.8445993  49.3847685
  36.6327257 101.3734036  50.1993308  35.7708290 102.4711759  49.6128946
  37.4132565  96.1218499  55.4310987  37.0782397  96.0819269  56.3268637
  36.9136510  95.4563215  54.9581397  31.3876809  91.5286129  60.9563568
  31.2496607  90.7966368  61.5575107  32.2981732  91.4395029  60.6747756
  40.3491756  93.4674534  45.7048046  39.7320927  92.7421362  45.6081099
  39.8808245  94.2283894  45.3615121  34.0159109  91.2406089  60.4447248
  34.7258728  90.5999281  60.4033866  33.9728418  91.4918983  61.3673428
  42.0045888  98.1773442  63.3653827  41.9458434  97.4932662  62.6984410
  42.4065406  98.9192432  62.9134453  32.7288043  88.2271306  62.2642887
  32.1925400  87.7762045  62.9164483  32.1404752  88.3617215  61.5213351
  31.0236587 104.9935356  56.1587546  31.2633185 105.6253880  56.8366564
  30.1805783 104.6423396  56.4452905  32.1390302  87.6859958  44.8269351
  31.2619769  87.5648759  44.4631597  32.6148055  86.8946036  44.5748239
  42.0063295  96.1413026  61.5967806  41.1190074  95.8038948  61.7194205
  42.5761846  95.4096057  61.8336572  23.6592442  92.4737118  54.9210858
  24.3463482  92.1598848  54.3331873  23.5040571  93.3778482  54.6478109
  28.4627165  87.3627314  59.3495881  28.3785353  86.7552984  58.6146291
  27.6409871  87.8536332  59.3505378  35.5364449 100.8014478  58.5629050
  35.4634620 101.6069450  59.0748354  35.0941842 101.0006444  57.7377071
  35.3254228 100.0386248  52.0731871  34.5421750 100.5807928  52.1670096
  36.0246974 100.5560228  52.4726112  38.6350878  85.8480878  54.7166077
  39.1319578  85.0950840  54.3967147  37.8637860  85.8845194  54.1509286
  37.9963132 100.7001312  60.7187208  38.7091104 101.3348777  60.6463110
  37.5053161 100.7965178  59.9027210  39.7180659  94.6052565  52.2904500
  38.7836938  94.7254027  52.1209204  39.8957328  93.7025032  52.0264510
  35.2185847  87.9898261  54.4437761  34.8483635  87.4369301  55.1318667
  35.7144940  87.3856394  53.8912761  43.1053211  90.4469884  52.8254534
  43.5713663  91.2797876  52.7514837  43.5560711  89.9814866  53.5299793
  33.0475046  98.4495756  61.5392779  33.7484505  99.0832239  61.6922173
  32.5770161  98.7910487  60.7788418  41.1729442  96.7913705  49.8240686
  41.4489286  96.6770300  50.7334560  40.3033940  96.3931190  49.7852859
  41.0769873  82.8150471  56.8645435  40.1632953  83.0454698  57.0327642
  41.5062975  82.8988915  57.7159468  37.8083506 101.0400056  53.4673500
  37.9905900 100.2221712  53.9301252  38.6316492 101.2567749  53.0298390
  38.1425671  99.9668241  50.7288548  38.6713438  99.4560696  50.1158710
  38.4053891  99.6510772  51.5934081  36.8963905  91.7460174  65.8511367
  36.2204542  91.6454304  66.5213742  37.7191539  91.5899388  66.3147364
  28.6442764  97.9832111  58.4723882  29.2296201  97.2375799  58.6051786
  28.4467602  98.2936067  59.3560546  31.4981419 101.0183358  53.4886324
  30.8291794 101.5029486  53.0050364  31.3594289 101.2652579  54.4029703
  23.2360419  90.5537711  57.1928325  23.2744518  90.0201302  57.9865443
  22.7300711  90.0272916  56.5739302  35.6386688 103.0527102  60.0868983
  36.1904996 103.2158723  60.8518068  35.9792881 103.6431539  59.4149007
  30.6151181  85.4002251  60.6890867  30.6792507  86.2617082  60.2768265
  30.5518301  84.7876253  59.9563226  30.0903453  87.4725384  64.3363901
  30.7175492  87.0902461  64.9501426  29.2331372  87.2539586  64.7019594
  40.4897562  97.8788359  65.9417637  41.0337466  98.4918317  65.4472592
  39.9084407  98.4367938  66.4584650  26.8668996  89.2801813  50.2682256
  27.1622437  88.3712492  50.2149310  25.9657032  89.2589553  49.9463259
  38.7755075 101.0009077  57.0732665  38.6506214 100.1998817  56.5643610
  39.4334166 101.4955271  56.5846635  30.3963243  87.3557810  56.2509805
  29.6749829  87.9693777  56.1117278  31.1856499  87.8915575  56.1726451
  40.8389983  98.8018097  58.7012215  39.8920319  98.6823448  58.6290541
  41.1872756  97.9140595  58.7838476  33.1989557  84.6912236  62.5250457
  33.7223959  84.9374533  63.2876766  32.9801890  85.5232271  62.1053594
  28.5956838  86.9615911  50.3921581  28.2669544  86.0813290  50.2096687
  28.9496208  86.9063579  51.2797971  37.8436417  98.5970813  54.9016567
  37.6961379  97.6687521  55.0824137  38.6689910  98.6190904  54.4173642
  31.7098661  87.2488881  50.7597059  32.0494733  87.7774802  50.0375667
  32.1570781  87.5869287  51.5355626  41.4470538  99.4199372  55.9881440
  42.3717086  99.2142234  55.8505891  41.2785842  99.1715773  56.8970781
  34.4042102  85.6325931  60.2100127  34.0638922  84.8333744  60.6120807
  33.6981108  85.9327642  59.6376960  35.0558574  82.7175244  58.6627450
  35.8784643  82.2435722  58.5406341  35.2996637  83.4965727  59.1626136
  33.6966808  85.7463502  48.9590352  34.4175171  86.1244755  48.4554069
  33.0732112  86.4652379  49.0625330  37.8397931  86.4508651  49.8948684
  38.0561545  87.3333289  49.5937512  37.3591998  86.0594865  49.1654326
  32.5797152  89.4094364  56.4719429  32.4341733  89.7234667  57.3643710
  32.1022356  90.0279265  55.9190327  34.4393535  86.3996912  56.5200318
  34.4255104  85.5038006  56.1832616  35.1565963  86.4067576  57.1538604
  36.2919666  86.8334253  58.5653446  36.0337444  87.7551323  58.5637776
  35.7604706  86.4364687  59.2553910  41.2365855  99.9385040  51.3443531
  41.4102732  99.3731462  50.5917384  41.7294746 100.7385935  51.1623021
  27.0542814  91.9499709  59.4107090  26.5096283  92.7259517  59.5427364
  27.9322164  92.2970513  59.2526211  33.8430431  85.2811293  51.7887889
  33.9646342  84.3527939  51.9878776  33.5532474  85.2949979  50.8766204
  36.7121622  82.9666203  54.9254608  36.7343318  83.0305536  53.9706588
  37.1289681  82.1270712  55.1195115  47.0905246  92.7021463  52.9633831
  47.5336392  91.9528788  52.5652954  46.2131756  92.6931599  52.5807563
  42.2241027  99.2551804  48.4440429  42.9191932  99.8758497  48.6627744
  42.5664177  98.4047155  48.7192807  27.8408836  91.0769605  62.3037247
  27.0990572  91.2252240  62.8901877  27.5201581  91.3377871  61.4403996
  44.1232450  96.7051510  49.9727760  44.6483774  97.0438782  49.2477080
  44.0354803  95.7698525  49.7890895  35.7852499 100.6185583  62.1017637
  36.0939625 100.3734730  62.9740336  36.5827981 100.8232222  61.6136507
  35.8073111 102.7723493  54.3323013  35.3678101 102.2799872  55.0255870
  36.5581228 102.2296461  54.0915089  28.2865450  98.9635034  54.3347641
  29.1123470  98.6638806  53.9546285  27.9359502  98.1942656  54.7837430
  33.2546983  98.3161502  56.4045315  32.6326992  97.6532207  56.1047543
  33.9251850  98.3422634  55.7218963  26.4874055  96.8821360  55.2936575
  25.6505963  96.4543535  55.1120576  26.4597700  97.0753804  56.2307366
  33.3271511  86.7943290  65.9977821  33.3759666  87.6705413  65.6155591
  33.8694025  86.2520683  65.4249464  43.8126356  97.3384413  65.2778958
  43.0221900  97.3208552  64.7383458  43.5759711  97.8772707  66.0327995
  43.9324231  94.1876880  62.5911687  43.9822236  94.0226887  63.5327210
  43.8238155  93.3204139  62.2009568  32.8160490  96.8665425  49.8803776
  32.9648610  97.5500890  49.2270448  33.6226934  96.8470515  50.3953231
  41.2227994  90.1707808  63.9070993  42.1237857  90.0314272  63.6154991
  41.2975968  90.3362262  64.8469171  35.5570799  87.5474662  62.7524180
  34.6874109  87.8408228  62.4806768  35.7930279  88.1315107  63.4731443
  45.4342428  96.6073821  62.8353708  45.1427237  96.9703802  63.6717169
  44.8214560  95.8940829  62.6567040  43.6829616  91.7306436  61.3033766
  44.1583738  91.9234082  60.4952618  42.7595182  91.7865622  61.0577150
  30.5713123  92.8930603  50.8864845  30.3259165  91.9892933  51.0845055
  30.7409038  92.8947753  49.9444323  38.2609833  83.7654279  60.2689600
  38.7791777  84.5015306  59.9436089  37.9064966  84.0718273  61.1036359
  29.8408771  88.6258961  48.3851006  29.1478016  88.7003316  47.7291042
  29.5960523  87.8619304  48.9072523  38.5122427  80.1854562  55.7890497
  38.7924181  79.5177751  56.4150923  39.2973034  80.3783657  55.2765161
  36.3155896  99.3613556  47.3515523  35.7429863  99.9803743  46.8985995
  36.8888689  99.9112917  47.8855445  40.4045665  85.6927779  59.7221473
  39.8095597  85.9732792  59.0267961  40.1195362  86.1821680  60.4938214
  39.5353155  99.6450706  48.4824105  40.4683829  99.5796268  48.6856981
  39.4476368 100.4806973  48.0238638  42.1641172  98.9616576  45.4428053
  42.0854804  98.6276440  46.3363811  42.9850839  99.4538344  45.4419525
  36.7002694  90.6974369  44.6931576  37.6461799  90.5680577  44.7619994
  36.3216939  89.9589030  45.1701004  42.6724579  82.3630375  54.6558467
  42.4749400  82.0545463  55.5401799  43.2824284  83.0892013  54.7856397
  36.5841387  94.7492115  66.1532233  37.5044396  94.9270714  66.3472279
  36.5490970  93.8048160  66.0011932  34.8845611  88.6224345  44.6286461
  33.9777067  88.3257458  44.7049174  35.1621592  88.3254163  43.7620747
  25.8023552  89.9430708  55.0785507  25.4826336  89.0896017  54.7859881
  25.2556980  90.1579286  55.8343474  29.5803459  92.6593149  58.7955014
  29.7989469  93.5910257  58.8143047  29.9929233  92.3001124  59.5809818
  36.5007677  83.1661235  50.7830702  35.6908405  82.8208320  51.1585948
  37.1892094  82.8568778  51.3718314  38.4298225  82.2439281  52.4054999
  38.9829264  82.6634735  53.0645022  38.6668312  81.3175030  52.4477955
  34.4531325  88.2326355  68.1857763  34.3528051  89.1820712  68.1169854
  34.2352867  87.9044594  67.3133833  33.6544396  85.4811280  44.7698440
  34.5163560  85.8066178  45.0294257  33.8394740  84.6942776  44.2571506
  25.6711812  93.5633620  57.0478629  24.9775283  93.1487573  56.5348583
  26.4184803  93.6054156  56.4512048  41.8077032  84.3539807  51.9133663
  41.2275701  85.0124611  51.5311715  41.5412965  83.5317151  51.5021080
  40.2580599  83.7544864  54.1154983  40.7580377  83.8661399  53.3069302
  40.9016207  83.4505917  54.7555792  34.3162595  91.6623494  67.0022824
  33.8329676  92.4623854  67.2086713  34.4023534  91.6731439  66.0490268
  27.5848554  93.4951874  54.9244644  27.5619242  93.5939561  53.9726527
  27.8949191  94.3417024  55.2461810  30.2435932  95.5528029  59.0391258
  31.1979186  95.5211971  58.9721190  30.0448456  95.0918652  59.8541484
  30.8335314  94.1229145  61.6062056  31.6528203  94.6173223  61.6296893
  31.1072122  93.2061113  61.5779623  40.5901910  86.5139897  50.9690011
  39.7027765  86.7989548  50.7510206  41.0055899  86.3533660  50.1217288
  28.5986161 101.0947648  56.0561456  28.4640629 100.3348049  55.4899454
  28.1818223 101.8188548  55.5890245  39.7345124  96.2784572  45.0638031
  40.4380974  96.4834574  45.6795687  39.0107773  96.8461334  45.3287115
  40.5642934  92.0294433  51.1840301  40.5078136  92.4862984  50.3447934
  41.1171277  91.2685117  51.0063144  31.7555287 101.9916965  56.2679899
  31.6387671 102.9362398  56.1658589  30.9347733 101.6890527  56.6565698
  41.6431821  96.7167101  47.1136491  42.4777425  96.2848299  46.9313966
  41.4816164  96.5449115  48.0413386  41.2977713  93.2199214  48.4792831
  41.2426517  93.0543486  47.5381275  40.6723769  93.9275247  48.6355020
  26.0870228  88.4567279  62.3054253  26.7329092  87.9466232  62.7941478
  25.8787380  89.1935960  62.8797678  38.6123621  95.5248126  67.8046393
  39.4814780  95.6988778  67.4433028  38.1330372  96.3442543  67.6822123
  34.6073839  82.7207323  48.0578149  34.5952509  83.6649163  48.2146420
  35.4997261  82.5377469  47.7637610  32.7809801 102.6445227  59.4835827
  33.6837048 102.6768837  59.8002322  32.5547171 101.7145678  59.4982163
  34.5363403 101.3976214  56.1445906  33.5859034 101.3978075  56.0310278
  34.8395889 100.6508948  55.6281940  38.4225958  79.3150100  52.3124086
  37.6558354  78.7608586  52.4580768  38.8336663  79.3871969  53.1738237
  30.4267719  85.6034896  66.4029267  31.2899181  85.2471700  66.6132592
  29.8533130  85.2648790  67.0904671  50.2716096 107.2336752  57.2091668
  50.9094506 107.1143499  56.5055008  50.1536939 108.1817596  57.2679620
  47.0805803 107.1864180  57.1453193  46.7424314 107.0705245  56.2573728
  47.9495571 106.7855345  57.1254199  42.9392618 109.0399656  53.1350084
  42.3757483 108.9489593  52.3666371  42.8245013 108.2199561  53.6152576
  47.5625586 108.3399032  63.1039398  47.5514226 107.9451830  62.2319902
  47.7246225 107.6065104  63.6973170  40.4857050 110.5350848  55.9734304
  41.2778342 110.1941673  55.5580603  40.7253700 110.6445823  56.8936457
  48.5192177 112.7070624  48.4464549  47.8680157 113.2924705  48.0598562
  49.3136540 113.2376819  48.5059586  42.4447804 109.7959761  48.8451683
  43.2178680 109.2488748  48.7064559  42.7973203 110.6604011  49.0566144
  44.2832847 111.1236144  62.0518582  43.9922713 112.0281774  61.9365249
  44.9189831 111.1652671  62.7662652  45.2089054 108.5012992  58.6419942
  45.8052626 108.2769015  57.9276905  45.2664025 107.7597738  59.2445390
  44.7814082 105.9552427  46.4770133  45.0339603 105.4333949  45.7153596
  43.8438641 105.7918573  46.5796816  49.8257365 104.9588206  54.2844876
  50.6120454 104.5407629  53.9335293  50.0896069 105.8634298  54.4526524
  49.9967442 110.3961056  48.9833533  49.3613275 110.4695683  49.6954438
  49.6664849 110.9854655  48.3052612  55.2265792 104.8963439  55.1877855
  55.9590964 104.3262656  55.4215684  54.4705148 104.5085039  55.6284360
  44.5010371 107.8580533  48.6794508  44.3846629 107.1825437  49.3475592
  44.6112631 107.3712907  47.8626661  46.8441912 107.3190680  52.3841197
  46.4800119 106.7921301  53.0954118  47.7009028 106.9289150  52.2107682
  46.4847399 102.3480580  47.3802546  46.6521801 103.2160817  47.7473017
  46.2944568 102.5107862  46.4563835  49.2422732 110.8097559  59.0468376
  48.9423455 111.7122598  58.9384183  48.8973791 110.5429742  59.8989529
  42.6935213 107.2611356  55.0805080  41.7685710 107.1287570  55.2882772
  42.9419627 108.0405575  55.5775023  46.4636620 104.8038238  48.3649212
  46.3436245 105.2495288  49.2034693  45.7689208 105.1523555  47.8062751
  40.0544024 106.9044629  55.9148869  40.1836406 107.1579108  56.8288281
  39.3741476 107.4972337  55.5953524  44.2243512 117.5741879  52.0139344
  44.1467541 118.5249705  52.0927824  43.6205155 117.2287752  52.6714270
  52.1621686 105.2759711  49.1929546  53.0739542 105.5087098  49.0177244
  51.6531333 105.8596755  48.6304625  44.9707114 107.5555198  64.2318678
  45.7121798 108.0940242  63.9553501  44.2644099 108.1821487  64.3890229
  50.4462453 109.6984339  62.8290839  50.8545809 109.2566749  62.0845471
  49.7239715 109.1236966  63.0825032  50.7691268 110.2585529  56.5843128
  50.1400130 110.4231243  55.8819196  50.3816930 110.6727139  57.3554092
  54.6480500 111.1939967  53.9387492  53.9631538 111.5738869  53.3884525
  54.7324349 111.8035294  54.6719439  51.9031432 108.8399926  60.5382835
  52.1148327 109.4831686  59.8617216  51.8561180 108.0062243  60.0704765
  46.3219230 109.9959937  53.8493213  46.7857575 110.2747640  53.0597835
  46.0576028 109.0943382  53.6666304  43.2143311 109.5431419  56.7872976
  43.7844668 109.9718687  56.1490461  43.8051423 109.2614004  57.4857162
  45.2588116 106.1183090  50.6582778  45.9612159 106.5704133  51.1256704
  44.9268744 105.4766909  51.2862671  43.7068477 104.7094846  65.0333987
  43.0767138 105.3911127  65.2669384  43.6004565 104.5977928  64.0887126
  39.0013450 104.3766642  55.9599912  38.2112504 104.6324171  55.4840022
  39.4924697 105.1914980  56.0651952  53.0177259 111.7171882  58.7105193
  53.8394703 111.3152069  58.4287874  53.0139662 111.6140116  59.6621308
  40.9528195 104.7411222  52.9183388  40.1559359 104.8529916  53.4366884
  40.7253787 105.0797874  52.0524279  46.7833863 111.2655925  60.8665903
  46.8478295 111.7276332  61.7024075  46.0744787 110.6353290  60.9948213
  37.2851153 104.6297133  58.3914902  37.5359191 105.5144143  58.6572478
  37.8210701 104.4501734  57.6189994  61.1083253 108.0610630  55.0590164
  60.3546961 107.4918028  54.9034168  61.2430794 108.0273295  56.0060799
  46.4981881 112.9324032  50.7344883  46.3627555 113.7775568  51.1629731
  47.0391693 113.1343310  49.9710817  42.9849220  99.0115612  67.3959239
  42.5916166  98.4581811  68.0706883  43.8015361  99.3226191  67.7865756
  39.9511278 110.4499470  51.3072808  40.4635799 111.2442721  51.4578373
  40.6033991 109.7525761  51.2406410  41.7606163 113.5665227  53.3895562
  41.9372791 114.4883191  53.2016545  42.5562996 113.2523646  53.8189941
  41.0458519 105.6129859  63.2657725  40.9312034 104.7115116  63.5664824
  40.1903037 105.8593555  62.9142541  48.1250357 113.5547599  64.8645225
  47.6814211 112.7683977  64.5466130  48.7867571 113.7426749  64.1989116
  42.8837478 115.0843400  59.3905904  43.4344903 114.9560464  58.6182898
  42.0448954 115.3838290  59.0400797  50.2231595 113.8350399  62.8926627
  50.2050070 114.6559280  62.4006896  51.1451515 113.7104474  63.1176768
  46.6804649 111.3494528  63.7350135  47.2132986 110.5882817  63.5049443
  46.1518730 111.0568180  64.4774290  49.8474344  96.4554594  59.2643777
  49.5038614  97.3456236  59.1882887  50.2153307  96.2656252  58.4013362
  37.9160195 108.7788125  52.0832379  38.7535417 109.1885133  51.8666087
  38.0938462 107.8387567  52.0532573  49.8124627 106.4463205  47.7716212
  49.2971250 107.2167810  48.0104599  49.5401935 105.7728342  48.3949273
  47.3971738 101.2912906  52.8301450  46.5413334 100.9019757  52.6507089
  47.8098690 101.3704867  51.9701236  45.1713770  98.9097979  56.2359192
  46.0366767  98.7140788  55.8765081  45.2391279  98.6808331  57.1628549
  54.7858901 109.1995560  49.7069385  54.0088344 108.8606720  49.2624547
  55.4650382 109.2048183  49.0324350  49.6010930 104.3190297  49.5975993
  49.2961066 104.6336447  50.4486136  50.5541372 104.3971717  49.6403326
  48.0457362 110.4780521  51.2468947  47.5178723 109.7433280  50.9342185
  47.5444865 111.2555197  51.0008915  53.0250208 108.6729541  56.3635993
  52.3673882 109.3628803  56.4516122  53.8290607 109.0625973  56.7069980
  42.7776089 101.1400187  53.6075559  43.3519841 100.9175369  52.8748752
  43.3647072 101.2088882  54.3604160  51.8355667 107.0273914  54.4139935
  52.3487548 107.6603906  54.9161645  52.4856891 106.4275109  54.0483295
  43.1045677 103.1704648  47.6271444  42.2682989 103.5079335  47.9480719
  42.9650446 103.0353628  46.6898581  45.0798757  98.0141436  52.3350628
  44.4263170  97.6990453  51.7107243  45.0379231  97.3917176  53.0610451
  46.1909962 108.2960731  44.2503920  45.2837024 108.0649985  44.4495069
  46.6880994 107.4998350  44.4377902  49.0978041 117.0058238  47.1700606
  48.4239740 117.3089935  47.7785564  49.4843863 117.8087319  46.8206063
  49.0971545 105.9014785  51.7900956  49.8443364 106.4136182  51.4808078
  49.3663135 105.5798838  52.6505349  47.3698195 108.3973326  48.7727910
  46.4609415 108.1132359  48.8700380  47.3993279 108.8172404  47.9131217
  52.6017463 112.0079915  52.5419078  52.1479790 111.1670825  52.5984268
  51.9711430 112.6441314  52.8793858  51.5450382 102.9371901  53.7719745
  50.8073139 102.4249288  54.1029988  51.7977156 102.4972283  52.9603022
  51.0450402 113.8456412  53.4768896  51.3373377 114.4061469  52.7581262
  51.5549023 114.1384973  54.2322055  37.9386366 106.1178840  52.7543112
  37.7410766 105.5248201  52.0294179  37.3833030 105.8131050  53.4719051
  45.9183090 106.0101947  54.8737706  45.9731699 105.0575783  54.7980182
  45.1074292 106.1661386  55.3579004  47.0674283 109.9382070  46.1115989
  46.6293713 109.2217929  45.6521626  47.8084724 110.1658184  45.5501080
  43.8575449 104.6279006  52.6328084  43.0443315 104.9273177  53.0393277
  44.3534444 104.2334695  53.3502567  46.0084027 114.6236763  54.5662349
  45.9660206 114.8497610  53.6370881  46.9246726 114.3900138  54.7148150
  55.1847398 108.2139267  52.1692307  55.0465297 108.4040863  51.2413497
  54.8283617 108.9758649  52.6260358  43.3489524 102.1997362  58.2489319
  43.9888904 102.0586121  57.5512283  42.5167055 101.9131875  57.8727921
  55.2116778 110.2815794  57.1803579  55.6453284 110.1891083  58.0286633
  55.9248358 110.2573294  56.5423595  44.1249828 111.4999792  54.3624312
  44.9190427 111.0050112  54.1606887  43.4141521 110.9717655  53.9992017
  48.9444673 113.8817888  58.7136679  48.9981695 114.4508824  59.4814395
  48.0759454 114.0519773  58.3490717  40.4332592 105.6442874  50.4384065
  39.5030180 105.5827329  50.6554027  40.5290064 105.1218827  49.6420706
  40.3518141 102.1697687  53.0262306  40.6124958 103.0843020  52.9171467
  41.1735313 101.7022129  53.1758919  41.8243066 103.5835444  60.1961131
  42.4966119 103.3752806  59.5473780  40.9972852 103.3857530  59.7566363
  56.0732327 110.3239494  59.7136464  56.2668217 111.2285305  59.9595739
  55.9732945 109.8646913  60.5475049  51.1347436 110.4746237  65.2877345
  50.9832942 110.2456789  64.3707429  51.1252115 111.4316838  65.3008690
  47.9032772 108.0478150  60.2723611  48.8324832 108.1989309  60.0992579
  47.4823802 108.1362171  59.4172258  46.7021104 112.0728814  58.0422149
  46.5632190 111.7047599  58.9148087  45.9135700 112.5876454  57.8706107
  47.2969256 117.1737911  49.3847685  47.4721012 116.7025954  50.1993308
  46.6102044 117.8003677  49.6128946  48.2526319 111.4510417  55.4310987
  47.9176152 111.4111187  56.3268637  47.7530265 110.7855133  54.9581397
  42.2270563 106.8578047  60.9563568  42.0890361 106.1258286  61.5575107
  43.1375487 106.7686947  60.6747756  51.1885511 108.7966451  45.7048046
  50.5714682 108.0713279  45.6081099  50.7201999 109.5575812  45.3615121
  44.8552864 106.5698006  60.4447248  45.5652482 105.9291198  60.4033866
  44.8122172 106.8210901  61.3673428  52.8439643 113.5065360  63.3653827
  52.7852189 112.8224580  62.6984410  53.2459161 114.2484350  62.9134453
  43.5681798 103.5563224  62.2642887  43.0319155 103.1053963  62.9164483
  42.9798506 103.6909133  61.5213351  41.8630341 120.3227273  56.1587546
  42.1026940 120.9545798  56.8366564  41.0199538 119.9715313  56.4452905
  42.9784057 103.0151876  44.8269351  42.1013523 102.8940676  44.4631597
  43.4541810 102.2237954  44.5748239  52.8457050 111.4704944  61.5967806
  51.9583829 111.1330865  61.7194205  53.4155601 110.7387975  61.8336572
  34.4986197 107.8029035  54.9210858  35.1857237 107.4890765  54.3331873
  34.3434326 108.7070400  54.6478109  39.3020919 102.6919232  59.3495881
  39.2179108 102.0844901  58.6146291  38.4803626 103.1828250  59.3505378
  46.3758203 116.1306396  58.5629050  46.3028375 116.9361367  59.0748354
  45.9335596 116.3298362  57.7377071  46.1647983 115.3678166  52.0731871
  45.3815505 115.9099846  52.1670096  46.8640728 115.8852146  52.4726112
  49.4744633 101.1772795  54.7166077  49.9713333 100.4242758  54.3967147
  48.7031614 101.2137112  54.1509286  57.3274390 106.8813161  56.3584368
  57.3164267 107.7637876  55.9878301  56.4591770 106.5284712  56.1638905
  48.8356887 116.0293230  60.7187208  49.5484859 116.6640695  60.6463110
  48.3446915 116.1257096  59.9027210  50.5574414 109.9344483  52.2904500
  49.6230692 110.0545945  52.1209204  50.7351082 109.0316949  52.0264510
  46.0579602 103.3190178  54.4437761  45.6877389 102.7661219  55.1318667
  46.5538694 102.7148312  53.8912761  53.9446965 105.7761802  52.8254534
  54.4107417 106.6089793  52.7514837  54.3954466 105.3106783  53.5299793
  43.8868800 113.7787673  61.5392779  44.5878260 114.4124156  61.6922173
  43.4163915 114.1202405  60.7788418  52.0123196 112.1205623  49.8240686
  52.2883040 112.0062218  50.7334560  51.1427695 111.7223108  49.7852859
  48.6477260 116.3691974  53.4673500  48.8299655 115.5513630  53.9301252
  49.4710246 116.5859666  53.0298390  48.9819426 115.2960159  50.7288548
  49.5107192 114.7852614  50.1158710  49.2447645 114.9802689  51.5934081
  39.4836518 113.3124028  58.4723882  40.0689955 112.5667716  58.6051786
  39.2861357 113.6227985  59.3560546  42.3375174 116.3475276  53.4886324
  41.6685549 116.8321403  53.0050364  42.1988043 116.5944496  54.4029703
  34.0754173 105.8829629  57.1928325  34.1138273 105.3493219  57.9865443
  33.5694466 105.3564834  56.5739302  46.4780442 118.3819019  60.0868983
  47.0298750 118.5450641  60.8518068  46.8186636 118.9723457  59.4149007
  41.4544935 100.7294169  60.6890867  41.5186262 101.5909000  60.2768265
  41.3912056 100.1168171  59.9563226  40.9297208 102.8017302  64.3363901
  41.5569247 102.4194379  64.9501426  40.0725127 102.5831504  64.7019594
  51.3291316 113.2080277  65.9417637  51.8731220 113.8210235  65.4472592
  50.7478161 113.7659855  66.4584650  37.7062751 104.6093731  50.2682256
  38.0016192 103.7004409  50.2149310  36.8050786 104.5881470  49.9463259
  49.6148829 116.3300995  57.0732665  49.4899969 115.5290735  56.5643610
  50.2727921 116.8247188  56.5846635  41.2356998 102.6849727  56.2509805
  40.5143583 103.2985695  56.1117278  42.0250253 103.2207492  56.1726451
  51.6783738 114.1310015  58.7012215  50.7314073 114.0115366  58.6290541
  52.0266511 113.2432513  58.7838476  44.0383311 100.0204154  62.5250457
  44.5617713 100.2666450  63.2876766  43.8195644 100.8524189  62.1053594
  39.4350592 102.2907828  50.3921581  39.1063298 101.4105207  50.2096687
  39.7889963 102.2355497  51.2797971  48.6830171 113.9262731  54.9016567
  48.5355134 112.9979439  55.0824137  49.5083665 113.9482822  54.4173642
  42.5492415 102.5780798  50.7597059  42.8888488 103.1066719  50.0375667
  42.9964536 102.9161204  51.5355626  52.2864293 114.7491290  55.9881440
  53.2110840 114.5434151  55.8505891  52.1179596 114.5007691  56.8970781
  45.8952328  98.0467161  58.6627450  46.7178397  97.5727640  58.5406341
  46.1390392  98.8257645  59.1626136  44.5360563 101.0755420  48.9590352
  45.2568925 101.4536673  48.4554069  43.9125867 101.7944297  49.0625330
  48.6791685 101.7800569  49.8948684  48.8955300 102.6625207  49.5937512
  48.1985753 101.3886782  49.1654326  43.4190907 104.7386282  56.4719429
  43.2735488 105.0526585  57.3643710  42.9416110 105.3571182  55.9190327
  45.2787290 101.7288830  56.5200318  45.2648858 100.8329923  56.1832616
  45.9959718 101.7359494  57.1538604  52.0759609 115.2676957  51.3443531
  52.2496487 114.7023380  50.5917384  52.5688500 116.0677852  51.1623021
  37.8936569 107.2791626  59.4107090  37.3490037 108.0551434  59.5427364
  38.7715919 107.6262431  59.2526211  44.6824186 100.6103210  51.7887889
  44.8040097  99.6819856  51.9878776  44.3926228 100.6241896  50.8766204
  47.5515376  98.2958121  54.9254608  47.5737073  98.3597454  53.9706588
  47.9683435  97.4562629  55.1195115  57.9299000 108.0313380  52.9633831
  58.3730146 107.2820705  52.5652954  57.0525511 108.0223517  52.5807563
  53.0634782 114.5843722  48.4440429  53.7585686 115.2050414  48.6627744
  53.4057932 113.7339073  48.7192807  38.6802591 106.4061523  62.3037247
  37.9384327 106.5544158  62.8901877  38.3595335 106.6669788  61.4403996
  54.9626205 112.0343427  49.9727760  55.4877529 112.3730700  49.2477080
  54.8748557 111.0990443  49.7890895  46.6246253 115.9477501  62.1017637
  46.9333380 115.7026648  62.9740336  47.4221736 116.1524139  61.6136507
  46.6466866 118.1015411  54.3323013  46.2071856 117.6091789  55.0255870
  47.3974982 117.5588378  54.0915089  39.1259205 114.2926951  54.3347641
  39.9517224 113.9930723  53.9546285  38.7753257 113.5234574  54.7837430
  44.0940738 113.6453420  56.4045315  43.4720747 112.9824125  56.1047543
  44.7645605 113.6714552  55.7218963  37.3267810 112.2113278  55.2936575
  36.4899718 111.7835452  55.1120576  37.2991455 112.4045721  56.2307366
  44.1665265 102.1235208  65.9977821  44.2153421 102.9997330  65.6155591
  44.7087779 101.5812601  65.4249464  54.6520111 112.6676331  65.2778958
  53.8615655 112.6500470  64.7383458  54.4153465 113.2064625  66.0327995
  54.7717986 109.5168797  62.5911687  54.8215991 109.3518805  63.5327210
  54.6631909 108.6496056  62.2009568  43.6554245 112.1957343  49.8803776
  43.8042365 112.8792807  49.2270448  44.4620688 112.1762433  50.3953231
  56.2736183 111.9365739  62.8353708  55.9820991 112.2995719  63.6717169
  55.6608314 111.2232747  62.6567040  57.4731865 109.5018619  55.3556278
  58.3078756 109.9408423  55.5193839  57.6090994 109.0257272  54.5364524
  41.4106878 108.2222521  50.8864845  41.1652920 107.3184851  51.0845055
  41.5802792 108.2239671  49.9444323  40.6802525 103.9550878  48.3851006
  39.9871770 104.0295233  47.7291042  40.4354277 103.1911222  48.9072523
  47.1549650 114.6905473  47.3515523  46.5823617 115.3095661  46.8985995
  47.7282444 115.2404835  47.8855445  50.3746910 114.9742624  48.4824105
  51.3077583 114.9088185  48.6856981  50.2870123 115.8098890  48.0238638
  53.0034927 114.2908494  45.4428053  52.9248558 113.9568358  46.3363811
  53.8244593 114.7830262  45.4419525  47.5396449 106.0266286  44.6931576
  48.4855553 105.8972494  44.7619994  47.1610694 105.2880948  45.1701004
  53.5118333  97.6922292  54.6558467  53.3143154  97.3837380  55.5401799
  54.1218039  98.4183931  54.7856397  61.5189668 108.2186240  57.7910408
  62.2493056 107.9571528  58.3518112  60.9096613 107.4814962  57.8312476
  47.4235141 110.0784032  66.1532233  48.3438151 110.2562631  66.3472279
  47.3884724 109.1340078  66.0011932  45.7239366 103.9516263  44.6286461
  44.8170821 103.6549375  44.7049174  46.0015347 103.6546081  43.7620747
  36.6417306 105.2722626  55.0785507  36.3220090 104.4187934  54.7859881
  36.0950734 105.4871204  55.8343474  40.4197214 107.9885067  58.7955014
  40.6383223 108.9202175  58.8143047  40.8322988 107.6293041  59.5809818
  47.3401431  98.4953152  50.7830702  46.5302160  98.1500237  51.1585948
  48.0285848  98.1860696  51.3718314  49.2691980  97.5731199  52.4054999
  49.8223018  97.9926653  53.0645022  49.5062066  96.6466947  52.4477955
  45.2925079 103.5618273  68.1857763  45.1921806 104.5112630  68.1169854
  45.0746621 103.2336512  67.3133833  44.4938150 100.8103198  44.7698440
  45.3557314 101.1358096  45.0294257  44.6788495 100.0234694  44.2571506
  36.5105566 108.8925537  57.0478629  35.8169038 108.4779490  56.5348583
  37.2578557 108.9346074  56.4512048  52.6470787  99.6831724  51.9133663
  52.0669456 100.3416528  51.5311715  52.3806720  98.8609069  51.5021080
  51.0974353  99.0836782  54.1154983  51.5974132  99.1953316  53.3069302
  51.7409961  98.7797835  54.7555792  45.1556349 106.9915412  67.0022824
  44.6723431 107.7915772  67.2086713  45.2417288 107.0023356  66.0490268
  38.4242309 108.8243791  54.9244644  38.4012997 108.9231479  53.9726527
  38.7342945 109.6708942  55.2461810  41.0829687 110.8819946  59.0391258
  42.0372940 110.8503889  58.9721190  40.8842210 110.4210570  59.8541484
  41.6729069 109.4521062  61.6062056  42.4921958 109.9465141  61.6296893
  41.9465876 108.5353030  61.5779623  51.4295665 101.8431815  50.9690011
  50.5421520 102.1281465  50.7510206  51.8449654 101.6825578  50.1217288
  54.7810201 101.8678336  54.6844350  55.5570591 102.3574788  54.9568967
  54.0558335 102.2936390  55.1416220  57.2182760 102.5805955  55.7418291
  57.8127250 102.3401691  55.0311599  57.2909343 101.8613085  56.3691827
  39.4379915 116.4239566  56.0561456  39.3034383 115.6639967  55.4899454
  39.0211978 117.1480466  55.5890245  50.5738878 111.6076489  45.0638031
  51.2774728 111.8126492  45.6795687  49.8501527 112.1753251  45.3287115
  51.4036689 107.3586351  51.1840301  51.3471890 107.8154902  50.3447934
  51.9565031 106.5977035  51.0063144  59.5253832 105.8872156  54.5161712
  58.9653390 105.9565345  55.2893274  58.9197336 105.7113140  53.7961209
  42.5949041 117.3208883  56.2679899  42.4781425 118.2654315  56.1658589
  41.7741487 117.0182444  56.6565698  52.4825576 112.0459019  47.1136491
  53.3171180 111.6140217  46.9313966  52.3209919 111.8741032  48.0413386
  52.1371468 108.5491132  48.4792831  52.0820272 108.3835403  47.5381275
  51.5117523 109.2567165  48.6355020  36.9263983 103.7859196  62.3054253
  37.5722847 103.2758150  62.7941478  36.7181134 104.5227878  62.8797678
  49.4517375 110.8540044  67.8046393  50.3208535 111.0280696  67.4433028
  48.9724127 111.6734461  67.6822123  45.4467593  98.0499241  48.0578149
  45.4346263  98.9941081  48.2146420  46.3391015  97.8669386  47.7637610
  43.6203555 117.9737145  59.4835827  44.5230802 118.0060755  59.8002322
  43.3940925 117.0437596  59.4982163  45.3757157 116.7268131  56.1445906
  44.4252788 116.7269993  56.0310278  45.6789644 115.9800866  55.6281940
  49.2619713  94.6442017  52.3124086  48.4952109  94.0900504  52.4580768
  49.6730418  94.7163886  53.1738237  41.2661474 100.9326813  66.4029267
  42.1292935 100.5763618  66.6132592  40.6926885 100.5940708  67.0904671
  61.1109851 122.5628670  57.2091668  61.7488261 122.4435417  56.5055008
  60.9930694 123.5109514  57.2679620  57.9199557 122.5156098  57.1453193
  57.5818069 122.3997162  56.2573728  58.7889325 122.1147263  57.1254199
  53.7786373 124.3691574  53.1350084  53.2151238 124.2781511  52.3666371
  53.6638768 123.5491479  53.6152576  58.4019340 123.6690949  63.1039398
  58.3907981 123.2743748  62.2319902  58.5639980 122.9357022  63.6973170
  51.3250805 125.8642766  55.9734304  52.1172097 125.5233590  55.5580603
  51.5647455 125.9737741  56.8936457  59.3585932 128.0362542  48.4464549
  58.7073911 128.6216622  48.0598562  60.1530294 128.5668737  48.5059586
  53.2841559 125.1251679  48.8451683  54.0572435 124.5780666  48.7064559
  53.6366958 125.9895928  49.0566144  55.1226601 126.4528061  62.0518582
  54.8316467 127.3573692  61.9365249  55.7583586 126.4944589  62.7662652
  56.0482808 123.8304910  58.6419942  56.6446380 123.6060932  57.9276905
  56.1057780 123.0889655  59.2445390  55.6207837 121.2844345  46.4770133
  55.8733357 120.7625866  45.7153596  54.6832396 121.1210491  46.5796816
  60.6651119 120.2880123  54.2844876  61.4514209 119.8699547  53.9335293
  60.9289824 121.1926216  54.4526524  60.8361197 125.7252974  48.9833533
  60.2007030 125.7987600  49.6954438  60.5058603 126.3146573  48.3052612
  66.0659546 120.2255357  55.1877855  66.7984718 119.6554573  55.4215684
  65.3098902 119.8376957  55.6284360  55.3404125 123.1872451  48.6794508
  55.2240383 122.5117354  49.3475592  55.4506385 122.7004825  47.8626661
  57.6835666 122.6482598  52.3841197  57.3193873 122.1213219  53.0954118
  58.5402782 122.2581067  52.2107682  63.5884967 113.9376931  59.6472463
  63.2568292 114.8072342  59.4233678  62.9930580 113.6213215  60.3266494
  57.3241153 117.6772498  47.3802546  57.4915556 118.5452734  47.7473017
  57.1338322 117.8399780  46.4563835  60.0816486 126.1389477  59.0468376
  59.7817209 127.0414516  58.9384183  59.7367546 125.8721660  59.8989529
  53.5328968 122.5903274  55.0805080  52.6079464 122.4579488  55.2882772
  53.7813381 123.3697493  55.5775023  63.4813630 118.6572017  56.7265813
  62.5730507 118.5887425  56.4324574  63.4301226 119.1343962  57.5547639
  57.3030374 120.1330155  48.3649212  57.1829999 120.5787206  49.2034693
  56.6082962 120.4815473  47.8062751  50.8937779 122.2336547  55.9148869
  51.0230160 122.4871026  56.8288281  50.2135230 122.8264255  55.5953524
  55.0637266 132.9033797  52.0139344  54.9861296 133.8541622  52.0927824
  54.4598910 132.5579670  52.6714270  57.5554496 120.0761663  64.6700711
  56.7787830 120.6355583  64.6603575  58.1945059 120.5618446  65.1915581
  65.3475277 116.8588455  58.5043687  64.7049657 117.1520989  57.8583482
  64.8430205 116.7441376  59.3096884  63.0015440 120.6051629  49.1929546
  63.9133296 120.8379015  49.0177244  62.4925087 121.1888673  48.6304625
  55.8100868 122.8847116  64.2318678  56.5515553 123.4232160  63.9553501
  55.1037854 123.5113405  64.3890229  61.2856208 125.0276256  62.8290839
  61.6939564 124.5858667  62.0845471  60.5633469 124.4528884  63.0825032
  57.6387278 119.9648863  60.2024396  58.4848473 120.3888277  60.3459045
  57.5785916 119.3082487  60.8962959  61.6085023 125.5877447  56.5843128
  60.9793885 125.7523161  55.8819196  61.2210685 126.0019057  57.3554092
  65.4874254 126.5231885  53.9387492  64.8025293 126.9030786  53.3884525
  65.5718104 127.1327212  54.6719439  60.7886723 117.6253231  61.8605570
  60.5447655 118.3795292  61.3239845  61.0646654 118.0038579  62.6952817
  62.7425186 124.1691844  60.5382835  62.9542081 124.8123604  59.8617216
  62.6954934 123.3354160  60.0704765  60.3451415 116.7809665  57.4419407
  59.4835894 117.0790918  57.7336145  60.3713850 116.9980063  56.5100440
  57.1612984 125.3251855  53.8493213  57.6251330 125.6039558  53.0597835
  56.8969782 124.4235300  53.6666304  54.0537065 124.8723337  56.7872976
  54.6238423 125.3010605  56.1490461  54.6445177 124.5905921  57.4857162
  56.0981870 121.4475007  50.6582778  56.8005914 121.8996051  51.1256704
  55.7662499 120.8058826  51.2862671  54.5462232 120.0386764  65.0333987
  53.9160893 120.7203045  65.2669384  54.4398320 119.9269846  64.0887126
  49.8407204 119.7058560  55.9599912  49.0506258 119.9616089  55.4840022
  50.3318452 120.5206898  56.0651952  63.8571014 127.0463799  58.7105193
  64.6788458 126.6443987  58.4287874  63.8533417 126.9432033  59.6621308
  51.7921950 120.0703139  52.9183388  50.9953113 120.1821834  53.4366884
  51.5647542 120.4089792  52.0524279  57.6227617 126.5947843  60.8665903
  57.6872050 127.0568250  61.7024075  56.9138541 125.9645208  60.9948213
  48.1244907 119.9589051  58.3914902  48.3752946 120.8436060  58.6572478
  48.6604456 119.7793652  57.6189994  71.9477007 123.3902548  55.0590164
  71.1940715 122.8209946  54.9034168  72.0824548 123.3565212  56.0060799
  57.3375635 128.2615950  50.7344883  57.2021310 129.1067486  51.1629731
  57.8785448 128.4635228  49.9710817  53.8242975 114.3407530  67.3959239
  53.4309920 113.7873728  68.0706883  54.6409115 114.6518108  67.7865756
  50.7905032 125.7791388  51.3072808  51.3029553 126.5734638  51.4578373
  51.4427745 125.0817679  51.2406410  52.5999917 128.8957144  53.3895562
  52.7766545 129.8175109  53.2016545  53.3956751 128.5815564  53.8189941
  56.7410936 115.7565409  64.9879495  57.4820649 116.3572562  64.9083958
  56.9728859 115.0143047  64.4297538  51.8852274 120.9421776  63.2657725
  51.7705789 120.0407034  63.5664824  51.0296791 121.1885473  62.9142541
  58.9644111 128.8839517  64.8645225  58.5207966 128.0975895  64.5466130
  59.6261325 129.0718667  64.1989116  53.7231233 130.4135318  59.3905904
  54.2738658 130.2852382  58.6182898  52.8842709 130.7130207  59.0400797
  61.0625350 129.1642317  62.8926627  61.0443825 129.9851198  62.4006896
  61.9845270 129.0396392  63.1176768  57.5198404 126.6786446  63.7350135
  58.0526740 125.9174734  63.5049443  56.9912485 126.3860098  64.4774290
  60.6868099 111.7846512  59.2643777  60.3432368 112.6748154  59.1882887
  61.0547061 111.5948170  58.4013362  48.7553949 124.1080042  52.0832379
  49.5929171 124.5177051  51.8666087  48.9332217 123.1679485  52.0532573
  60.6518381 121.7755123  47.7716212  60.1365005 122.5459728  48.0104599
  60.3795690 121.1020259  48.3949273  58.2365492 116.6204824  52.8301450
  57.3807089 116.2311674  52.6507089  58.6492444 116.6996785  51.9701236
  59.7664639 114.1551167  57.2293010  59.2629435 114.1181302  56.4160815
  60.0595246 115.0643910  57.2889667  56.0107525 114.2389897  56.2359192
  56.8760522 114.0432706  55.8765081  56.0785034 114.0100249  57.1628549
  65.6252655 124.5287478  49.7069385  64.8482098 124.1898637  49.2624547
  66.3044136 124.5340101  49.0324350  60.4404685 119.6482215  49.5975993
  60.1354820 119.9628364  50.4486136  61.3935127 119.7263635  49.6403326
  58.8851116 125.8072438  51.2468947  58.3572478 125.0725198  50.9342185
  58.3838619 126.5847115  51.0008915  63.8643962 124.0021459  56.3635993
  63.2067637 124.6920720  56.4516122  64.6684362 124.3917891  56.7069980
  53.6169844 116.4692105  53.6075559  54.1913596 116.2467286  52.8748752
  54.2040826 116.5380799  54.3604160  62.6749421 122.3565832  54.4139935
  63.1881303 122.9895823  54.9161645  63.3250645 121.7567027  54.0483295
  53.9439431 118.4996566  47.6271444  53.1076743 118.8371252  47.9480719
  53.8044201 118.3645546  46.6898581  55.9192512 113.3433354  52.3350628
  55.2656924 113.0282371  51.7107243  55.8772986 112.7209094  53.0610451
  57.0303717 123.6252649  44.2503920  56.1230778 123.3941902  44.4495069
  57.5274749 122.8290268  44.4377902  59.9371795 132.3350156  47.1700606
  59.2633494 132.6381853  47.7785564  60.3237617 133.1379236  46.8206063
  59.1530252 119.8315287  56.6598276  58.2352813 120.0530234  56.5019964
  59.5690396 119.9061598  55.8009983  59.9365300 121.2306703  51.7900956
  60.6837119 121.7428100  51.4808078  60.2056889 120.9090756  52.6505349
  58.2091950 123.7265244  48.7727910  57.3003169 123.4424276  48.8700380
  58.2387034 124.1464322  47.9131217  63.4411217 127.3371833  52.5419078
  62.9873545 126.4962743  52.5984268  62.8105184 127.9733231  52.8793858
  62.3844137 118.2663819  53.7719745  61.6466894 117.7541205  54.1029988
  62.6370910 117.8264201  52.9603022  61.8844157 129.1748330  53.4768896
  62.1767131 129.7353387  52.7581262  62.3942777 129.4676891  54.2322055
  62.4855764 111.0440071  54.3661514  62.7914641 110.1837435  54.0787430
  63.2108369 111.6357691  54.1660508  48.7780120 121.4470758  52.7543112
  48.5804520 120.8540118  52.0294179  48.2226784 121.1422968  53.4719051
  56.7576844 121.3393864  54.8737706  56.8125454 120.3867701  54.7980182
  55.9468046 121.4953303  55.3579004  57.9068038 125.2673987  46.1115989
  57.4687468 124.5509846  45.6521626  58.6478479 125.4950102  45.5501080
  54.6969204 119.9570924  52.6328084  53.8837069 120.2565095  53.0393277
  55.1928198 119.5626613  53.3502567  56.8477782 129.9528681  54.5662349
  56.8053961 130.1789527  53.6370881  57.7640481 129.7192055  54.7148150
  60.2943416 120.4212748  61.4642978  60.6492803 120.6484222  62.3237444
  60.9415547 120.7531125  60.8420234  66.0241153 123.5431184  52.1692307
  65.8859051 123.7332780  51.2413497  65.6677371 124.3050567  52.6260358
  54.1883279 117.5289279  58.2489319  54.8282658 117.3878039  57.5512283
  53.3560809 117.2423793  57.8727921  66.0510532 125.6107711  57.1803579
  66.4847039 125.5183000  58.0286633  66.7642113 125.5865212  56.5423595
  54.9643583 126.8291710  54.3624312  55.7584181 126.3342030  54.1606887
  54.2535275 126.3009573  53.9992017  59.7838427 129.2109805  58.7136679
  59.8375449 129.7800742  59.4814395  58.9153208 129.3811690  58.3490717
  51.2726346 120.9734792  50.4384065  50.3423934 120.9119247  50.6554027
  51.3683818 120.4510744  49.6420706  51.1911895 117.4989604  53.0262306
  51.4518712 118.4134938  52.9171467  52.0129067 117.0314047  53.1758919
  52.6636820 118.9127362  60.1961131  53.3359874 118.7044724  59.5473780
  51.8366607 118.7149448  59.7566363  66.9126082 125.6531412  59.7136464
  67.1061972 126.5577222  59.9595739  66.8126700 125.1938831  60.5475049
  58.5662392 115.5389303  62.2126792  57.9190308 116.2379252  62.1191268
  59.3363408 115.9725446  62.5803040  61.9741190 125.8038155  65.2877345
  61.8226697 125.5748706  64.3707429  61.9645870 126.7608756  65.3008690
  58.7426527 123.3770067  60.2723611  59.6718587 123.5281227  60.0992579
  58.3217557 123.4654088  59.4172258  57.5414859 127.4020732  58.0422149
  57.4025944 127.0339516  58.9148087  56.7529455 127.9168371  57.8706107
  58.1363011 132.5029828  49.3847685  58.3114766 132.0317872  50.1993308
  57.4495799 133.1295595  49.6128946  59.0920074 126.7802335  55.4310987
  58.7569906 126.7403105  56.3268637  58.5924019 126.1147050  54.9581397
  53.0664318 122.1869965  60.9563568  52.9284116 121.4550203  61.5575107
  53.9769241 122.0978865  60.6747756  62.0279265 124.1258369  45.7048046
  61.4108436 123.4005197  45.6081099  61.5595754 124.8867729  45.3615121
  55.6946618 121.8989924  60.4447248  56.4046237 121.2583116  60.4033866
  55.6515927 122.1502819  61.3673428  63.6833397 128.8357277  63.3653827
  63.6245943 128.1516497  62.6984410  64.0852915 129.5776267  62.9134453
  54.4075552 118.8855142  62.2642887  53.8712909 118.4345880  62.9164483
  53.8192261 119.0201051  61.5213351  53.8177811 118.3443793  44.8269351
  52.9407278 118.2232594  44.4631597  54.2935564 117.5529872  44.5748239
  63.6850804 126.7996861  61.5967806  62.7977583 126.4622783  61.7194205
  64.2549355 126.0679892  61.8336572  45.3379951 123.1320953  54.9210858
  46.0250991 122.8182683  54.3331873  45.1828080 124.0362318  54.6478109
  50.1414674 118.0211150  59.3495881  50.0572862 117.4136819  58.6146291
  49.3197380 118.5120168  59.3505378  57.2151958 131.4598314  58.5629050
  57.1422129 132.2653285  59.0748354  56.7729351 131.6590279  57.7377071
  57.0041737 130.6970084  52.0731871  56.2209259 131.2391764  52.1670096
  57.7034483 131.2144063  52.4726112  60.3138387 116.5064713  54.7166077
  60.8107087 115.7534675  54.3967147  59.5425369 116.5429030  54.1509286
  68.1668145 122.2105079  56.3584368  68.1558021 123.0929794  55.9878301
  67.2985524 121.8576629  56.1638905  59.6750641 131.3585148  60.7187208
  60.3878613 131.9932612  60.6463110  59.1840670 131.4549014  59.9027210
  61.3968168 125.2636400  52.2904500  60.4624447 125.3837863  52.1209204
  61.5744837 124.3608867  52.0264510  56.8973356 118.6482096  54.4437761
  56.5271144 118.0953136  55.1318667  57.3932449 118.0440230  53.8912761
  64.7840719 121.1053720  52.8254534  65.2501172 121.9381711  52.7514837
  65.2348220 120.6398701  53.5299793  54.7262555 129.1079591  61.5392779
  55.4272014 129.7416074  61.6922173  54.2557670 129.4494323  60.7788418
  62.8516951 127.4497541  49.8240686  63.1276795 127.3354135  50.7334560
  61.9821449 127.0515026  49.7852859  62.7557382 113.4734307  56.8645435
  61.8420462 113.7038533  57.0327642  63.1850484 113.5572751  57.7159468
  62.5263841 121.6624199  59.3645329  61.8735291 121.9100106  58.7097782
  62.9044221 120.8488337  59.0307807  59.4871015 131.6983892  53.4673500
  59.6693409 130.8805548  53.9301252  60.3104001 131.9151584  53.0298390
  59.8213180 130.6252077  50.7288548  60.3500947 130.1144531  50.1158710
  60.0841400 130.3094607  51.5934081  58.5751414 122.4044010  65.8511367
  57.8992051 122.3038139  66.5213742  59.3979048 122.2483223  66.3147364
  50.3230273 128.6415946  58.4723882  50.9083710 127.8959634  58.6051786
  50.1255111 128.9519903  59.3560546  53.1768928 131.6767193  53.4886324
  52.5079303 132.1613321  53.0050364  53.0381798 131.9236414  54.4029703
  44.9147928 121.2121546  57.1928325  44.9532027 120.6785137  57.9865443
  44.4088220 120.6856752  56.5739302  57.3174197 133.7110937  60.0868983
  57.8692505 133.8742559  60.8518068  57.6580390 134.3015375  59.4149007
  52.2938690 116.0586087  60.6890867  52.3580016 116.9200918  60.2768265
  52.2305810 115.4460088  59.9563226  51.7690962 118.1309219  64.3363901
  52.3963001 117.7486297  64.9501426  50.9118881 117.9123421  64.7019594
  62.1685071 128.5372195  65.9417637  62.7124975 129.1502153  65.4472592
  61.5871916 129.0951773  66.4584650  48.5456505 119.9385648  50.2682256
  48.8409946 119.0296327  50.2149310  47.6444541 119.9173388  49.9463259
  60.4542584 131.6592913  57.0732665  60.3293723 130.8582652  56.5643610
  61.1121675 132.1539106  56.5846635  52.0750752 118.0141645  56.2509805
  51.3537338 118.6277613  56.1117278  52.8644008 118.5499410  56.1726451
  62.5177492 129.4601933  58.7012215  61.5707828 129.3407284  58.6290541
  62.8660265 128.5724431  58.7838476  54.8777066 115.3496072  62.5250457
  55.4011467 115.5958368  63.2876766  54.6589399 116.1816106  62.1053594
  50.2744347 117.6199746  50.3921581  49.9457053 116.7397125  50.2096687
  50.6283717 117.5647415  51.2797971  59.5223926 129.2554649  54.9016567
  59.3748888 128.3271356  55.0824137  60.3477419 129.2774740  54.4173642
  53.3886170 117.9072716  50.7597059  53.7282242 118.4358637  50.0375667
  53.8358290 118.2453122  51.5355626  63.1258047 130.0783208  55.9881440
  64.0504595 129.8726069  55.8505891  62.9573351 129.8299609  56.8970781
  56.0829611 116.2909767  60.2100127  55.7426431 115.4917580  60.6120807
  55.3768617 116.5911477  59.6376960  56.7346083 113.3759079  58.6627450
  57.5572152 112.9019557  58.5406341  56.9784146 114.1549563  59.1626136
  55.3754317 116.4047338  48.9590352  56.0962680 116.7828590  48.4554069
  54.7519621 117.1236214  49.0625330  59.5185440 117.1092486  49.8948684
  59.7349054 117.9917124  49.5937512  59.0379507 116.7178700  49.1654326
  54.2584661 120.0678200  56.4719429  54.1129242 120.3818503  57.3643710
  53.7809865 120.6863100  55.9190327  56.1181044 117.0580748  56.5200318
  56.1042613 116.1621841  56.1832616  56.8353472 117.0651411  57.1538604
  57.9707175 117.4918088  58.5653446  57.7124953 118.4135159  58.5637776
  57.4392215 117.0948522  59.2553910  62.9153364 130.5968875  51.3443531
  63.0890241 130.0315298  50.5917384  63.4082255 131.3969770  51.1623021
  48.7330323 122.6083544  59.4107090  48.1883792 123.3843352  59.5427364
  49.6109673 122.9554349  59.2526211  55.5217940 115.9395128  51.7887889
  55.6433851 115.0111774  51.9878776  55.2319982 115.9533814  50.8766204
  58.3909131 113.6250038  54.9254608  58.4130827 113.6889372  53.9706588
  58.8077190 112.7854547  55.1195115  68.7692755 123.3605298  52.9633831
  69.2123901 122.6112623  52.5652954  67.8919265 123.3515434  52.5807563
  63.9028536 129.9135639  48.4440429  64.5979441 130.5342332  48.6627744
  64.2451686 129.0630991  48.7192807  49.5196345 121.7353440  62.3037247
  48.7778081 121.8836076  62.8901877  49.1989090 121.9961706  61.4403996
  65.8019959 127.3635345  49.9727760  66.3271283 127.7022618  49.2477080
  65.7142312 126.4282360  49.7890895  57.4640008 131.2769419  62.1017637
  57.7727134 131.0318565  62.9740336  58.2615490 131.4816057  61.6136507
  57.4860620 133.4307328  54.3323013  57.0465610 132.9383707  55.0255870
  58.2368737 132.8880296  54.0915089  49.9652959 129.6218869  54.3347641
  50.7910979 129.3222641  53.9546285  49.6147011 128.8526492  54.7837430
  54.9334492 128.9745337  56.4045315  54.3114501 128.3116042  56.1047543
  55.6039359 129.0006469  55.7218963  48.1661564 127.5405196  55.2936575
  47.3293472 127.1127370  55.1120576  48.1385209 127.7337639  56.2307366
  55.0059020 117.4527125  65.9977821  55.0547175 118.3289248  65.6155591
  55.5481534 116.9104518  65.4249464  65.4913865 127.9968249  65.2778958
  64.7009409 127.9792387  64.7383458  65.2547220 128.5356542  66.0327995
  65.6111740 124.8460715  62.5911687  65.6609745 124.6810722  63.5327210
  65.5025664 123.9787974  62.2009568  54.4947999 127.5249261  49.8803776
  54.6436119 128.2084725  49.2270448  55.3014443 127.5054351  50.3953231
  62.9015503 120.8291643  63.9070993  63.8025366 120.6898108  63.6154991
  62.9763477 120.9946098  64.8469171  57.2358308 118.2058498  62.7524180
  56.3661618 118.4992064  62.4806768  57.4717788 118.7898943  63.4731443
  67.1129937 127.2657656  62.8353708  66.8214746 127.6287637  63.6717169
  66.5002068 126.5524665  62.6567040  68.3125620 124.8310536  55.3556278
  69.1472511 125.2700340  55.5193839  68.4484748 124.3549189  54.5364524
  65.3617125 122.3890271  61.3033766  65.8371247 122.5817917  60.4952618
  64.4382691 122.4449457  61.0577150  52.2500632 123.5514438  50.8864845
  52.0046674 122.6476768  51.0845055  52.4196547 123.5531589  49.9444323
  59.9397342 114.4238115  60.2689600  60.4579286 115.1599142  59.9436089
  59.5852475 114.7302108  61.1036359  51.5196280 119.2842796  48.3851006
  50.8265525 119.3587151  47.7291042  51.2748031 118.5203140  48.9072523
  60.1909936 110.8438397  55.7890497  60.4711690 110.1761586  56.4150923
  60.9760543 111.0367493  55.2765161  57.9943405 130.0197391  47.3515523
  57.4217372 130.6387578  46.8985995  58.5676198 130.5696753  47.8855445
  64.0618794 119.2656031  59.5362072  65.0136217 119.3654129  59.5574296
  63.8922245 118.4734300  60.0460156  62.0833174 116.3511614  59.7221473
  61.4883106 116.6316627  59.0267961  61.7982871 116.8405515  60.4938214
  61.2140664 130.3034541  48.4824105  62.1471338 130.2380103  48.6856981
  61.1263877 131.1390808  48.0238638  63.8428681 129.6200412  45.4428053
  63.7642313 129.2860275  46.3363811  64.6638348 130.1122179  45.4419525
  66.5406872 122.4862151  58.6504372  66.5083192 121.5478152  58.8364055
  67.1507496 122.5646188  57.9170196  58.3790203 121.3558204  44.6931576
  59.3249308 121.2264412  44.7619994  58.0004448 120.6172866  45.1701004
  66.6901361 119.2773194  58.6962655  66.1740409 118.4931651  58.5092584
  67.5741309 118.9491911  58.8609174  64.3512088 113.0214210  54.6558467
  64.1536909 112.7129298  55.5401799  64.9611793 113.7475849  54.7856397
  72.3583422 123.5478158  57.7910408  73.0886811 123.2863446  58.3518112
  71.7490368 122.8106880  57.8312476  70.4398719 121.6886020  58.3884859
  69.7131883 121.5541985  57.7801351  70.0246006 121.9962849  59.1941578
  58.2628896 125.4075950  66.1532233  59.1831905 125.5854549  66.3472279
  58.2278479 124.4631995  66.0011932  56.5633120 119.2808180  44.6286461
  55.6564576 118.9841293  44.7049174  56.8409101 118.9837998  43.7620747
  47.4811061 120.6014544  55.0785507  47.1613845 119.7479852  54.7859881
  46.9344489 120.8163122  55.8343474  51.2590968 123.3176985  58.7955014
  51.4776978 124.2494092  58.8143047  51.6716742 122.9584959  59.5809818
  58.1795186 113.8245070  50.7830702  57.3695914 113.4792155  51.1585948
  58.8679603 113.5152614  51.3718314  60.1085734 112.9023117  52.4054999
  60.6616773 113.3218570  53.0645022  60.3455821 111.9758865  52.4477955
  56.1318833 118.8910190  68.1857763  56.0315560 119.8404547  68.1169854
  55.9140376 118.5628429  67.3133833  55.3331905 116.1395115  44.7698440
  56.1951069 116.4650014  45.0294257  55.5182249 115.3526611  44.2571506
  47.3499321 124.2217455  57.0478629  46.6562792 123.8071408  56.5348583
  48.0972312 124.2637992  56.4512048  63.4864541 115.0123642  51.9133663
  62.9063210 115.6708446  51.5311715  63.2200474 114.1900987  51.5021080
  61.9368108 114.4128700  54.1154983  62.4367886 114.5245234  53.3069302
  62.5803716 114.1089752  54.7555792  55.9950104 122.3207329  67.0022824
  55.5117185 123.1207689  67.2086713  56.0811043 122.3315274  66.0490268
  49.2636063 124.1535709  54.9244644  49.2406751 124.2523396  53.9726527
  49.5736700 125.0000860  55.2461810  51.9223441 126.2111864  59.0391258
  52.8766695 126.1795806  58.9721190  51.7235965 125.7502488  59.8541484
  52.5122823 124.7812980  61.6062056  53.3315712 125.2757059  61.6296893
  52.7859631 123.8644948  61.5779623  62.2689419 117.1723732  50.9690011
  61.3815274 117.4573383  50.7510206  62.6843408 117.0117496  50.1217288
  65.6203956 117.1970253  54.6844350  66.3964346 117.6866706  54.9568967
  64.8952090 117.6228307  55.1416220  68.0576514 117.9097873  55.7418291
  68.6521005 117.6693608  55.0311599  68.1303098 117.1905003  56.3691827
  50.2773670 131.7531483  56.0561456  50.1428138 130.9931884  55.4899454
  49.8605732 132.4772383  55.5890245  61.4132633 126.9368407  45.0638031
  62.1168483 127.1418409  45.6795687  60.6895282 127.5045169  45.3287115
  62.2430443 122.6878268  51.1840301  62.1865645 123.1446820  50.3447934
  62.7958786 121.9268953  51.0063144  66.0535249 118.4768000  52.0090421
  65.7972183 118.0764636  52.8398629  65.4288117 119.1911794  51.8840560
  70.3647587 121.2164073  54.5161712  69.8047145 121.2857263  55.2893274
  69.7591090 121.0405058  53.7961209  53.4342796 132.6500800  56.2679899
  53.3175180 133.5946233  56.1658589  52.6135242 132.3474362  56.6565698
  63.3219330 127.3750936  47.1136491  64.1564934 126.9432135  46.9313966
  63.1603673 127.2032950  48.0413386  62.9765222 123.8783049  48.4792831
  62.9214026 123.7127321  47.5381275  62.3511278 124.5859082  48.6355020
  47.7657737 119.1151114  62.3054253  48.4116601 118.6050068  62.7941478
  47.5574889 119.8519796  62.8797678  60.2911130 126.1831961  67.8046393
  61.1602289 126.3572614  67.4433028  59.8117881 127.0026378  67.6822123
  56.2861348 113.3791159  48.0578149  56.2740018 114.3232998  48.2146420
  57.1784770 113.1961304  47.7637610  54.4597310 133.3029062  59.4835827
  55.3624557 133.3352673  59.8002322  54.2334680 132.3729513  59.4982163
  56.2150912 132.0560049  56.1445906  55.2646543 132.0561911  56.0310278
  56.5183398 131.3092783  55.6281940  60.1013467 109.9733935  52.3124086
  59.3345863 109.4192422  52.4580768  60.5124172 110.0455804  53.1738237
  52.1055228 116.2618731  66.4029267  52.9686690 115.9055536  66.6132592
  51.5320639 115.9232626  67.0904671  71.9503605 137.8920587  57.2091668
  72.5882015 137.7727335  56.5055008  71.8324448 138.8401431  57.2679620
  68.7593312 137.8448015  57.1453193  68.4211823 137.7289080  56.2573728
  69.6283080 137.4439180  57.1254199  64.6180127 139.6983492  53.1350084
  64.0544992 139.6073429  52.3666371  64.5032522 138.8783396  53.6152576
  69.2413095 138.9982867  63.1039398  69.2301735 138.6035665  62.2319902
  69.4033734 138.2648940  63.6973170  66.8876563 139.1596827  58.6419942
  67.4840135 138.9352850  57.9276905  66.9451534 138.4181573  59.2445390
  66.4601591 136.6136263  46.4770133  66.7127112 136.0917784  45.7153596
  65.5226150 136.4502408  46.5796816  71.5044874 135.6172041  54.2844876
  72.2907963 135.1991464  53.9335293  71.7683578 136.5218133  54.4526524
  71.6754951 141.0544891  48.9833533  71.0400784 141.1279518  49.6954438
  71.3452358 141.6438490  48.3052612  76.9053301 135.5547274  55.1877855
  77.6378473 134.9846491  55.4215684  76.1492657 135.1668875  55.6284360
  66.1797880 138.5164369  48.6794508  66.0634138 137.8409272  49.3475592
  66.2900140 138.0296743  47.8626661  68.5229421 137.9774516  52.3841197
  68.1587628 137.4505137  53.0954118  69.3796537 137.5872985  52.2107682
  74.4278721 129.2668848  59.6472463  74.0962046 130.1364259  59.4233678
  73.8324335 128.9505132  60.3266494  68.1634908 133.0064416  47.3802546
  68.3309310 133.8744652  47.7473017  67.9732077 133.1691697  46.4563835
  70.9210241 141.4681394  59.0468376  70.6210964 142.3706433  58.9384183
  70.5761300 141.2013578  59.8989529  64.3722722 137.9195191  55.0805080
  63.4473219 137.7871405  55.2882772  64.6207136 138.6989411  55.5775023
  74.3207385 133.9863935  56.7265813  73.4124262 133.9179343  56.4324574
  74.2694980 134.4635880  57.5547639  68.1424129 135.4622073  48.3649212
  68.0223754 135.9079124  49.2034693  67.4476717 135.8107391  47.8062751
  61.7331533 137.5628465  55.9148869  61.8623915 137.8162944  56.8288281
  61.0528985 138.1556173  55.5953524  68.3948250 135.4053580  64.6700711
  67.6181584 135.9647500  64.6603575  69.0338813 135.8910363  65.1915581
  76.1869031 132.1880373  58.5043687  75.5443411 132.4812906  57.8583482
  75.6823960 132.0733293  59.3096884  73.8409195 135.9343546  49.1929546
  74.7527051 136.1670933  49.0177244  73.3318842 136.5180590  48.6304625
  66.6494623 138.2139034  64.2318678  67.3909307 138.7524078  63.9553501
  65.9431608 138.8405322  64.3890229  72.1249962 140.3568174  62.8290839
  72.5333318 139.9150585  62.0845471  71.4027224 139.7820802  63.0825032
  68.4781032 135.2940781  60.2024396  69.3242228 135.7180194  60.3459045
  68.4179670 134.6374405  60.8962959  72.4478777 140.9169365  56.5843128
  71.8187639 141.0815079  55.8819196  72.0604439 141.3310974  57.3554092
  76.3268009 141.8523803  53.9387492  75.6419047 142.2322704  53.3884525
  76.4111858 142.4619129  54.6719439  71.6280478 132.9545149  61.8605570
  71.3841410 133.7087210  61.3239845  71.9040408 133.3330497  62.6952817
  73.5818941 139.4983762  60.5382835  73.7935836 140.1415521  59.8617216
  73.5348689 138.6646078  60.0704765  71.1845169 132.1101582  57.4419407
  70.3229648 132.4082836  57.7336145  71.2107604 132.3271981  56.5100440
  68.0006739 140.6543773  53.8493213  68.4645084 140.9331476  53.0597835
  67.7363537 139.7527217  53.6666304  66.9375625 136.7766925  50.6582778
  67.6399668 137.2287969  51.1256704  66.6056253 136.1350744  51.2862671
  65.3855986 135.3678682  65.0333987  64.7554647 136.0494963  65.2669384
  65.2792074 135.2561763  64.0887126  60.6800959 135.0350478  55.9599912
  59.8900013 135.2908006  55.4840022  61.1712206 135.8498816  56.0651952
  74.6964768 142.3755717  58.7105193  75.5182212 141.9735904  58.4287874
  74.6927171 142.2723951  59.6621308  62.6315704 135.3995057  52.9183388
  61.8346868 135.5113751  53.4366884  62.4041296 135.7381709  52.0524279
  58.9638662 135.2880968  58.3914902  59.2146700 136.1727978  58.6572478
  59.4998210 135.1085570  57.6189994  82.7870761 138.7194465  55.0590164
  82.0334470 138.1501864  54.9034168  82.9218303 138.6857130  56.0060799
  64.6636729 129.6699448  67.3959239  64.2703675 129.1165646  68.0706883
  65.4802870 129.9810026  67.7865756  67.5804690 131.0857327  64.9879495
  68.3214404 131.6864480  64.9083958  67.8122613 130.3434964  64.4297538
  62.7246028 136.2713694  63.2657725  62.6099543 135.3698951  63.5664824
  61.8690546 136.5177391  62.9142541  71.5261853 127.1138430  59.2643777
  71.1826123 128.0040071  59.1882887  71.8940816 126.9240087  58.4013362
  71.4912136 137.1047041  47.7716212  70.9758759 137.8751645  48.0104599
  71.2189444 136.4312177  48.3949273  69.0759247 131.9496742  52.8301450
  68.2200843 131.5603592  52.6507089  69.4886199 132.0288702  51.9701236
  70.6058394 129.4843085  57.2293010  70.1023189 129.4473220  56.4160815
  70.8989000 130.3935828  57.2889667  66.8501279 129.5681815  56.2359192
  67.7154276 129.3724623  55.8765081  66.9178788 129.3392166  57.1628549
  76.4646410 139.8579395  49.7069385  75.6875853 139.5190555  49.2624547
  77.1437891 139.8632019  49.0324350  71.2798439 134.9774133  49.5975993
  70.9748575 135.2920282  50.4486136  72.2328881 135.0555553  49.6403326
  74.7037717 139.3313377  56.3635993  74.0461391 140.0212638  56.4516122
  75.5078116 139.7209809  56.7069980  64.4563598 131.7984022  53.6075559
  65.0307350 131.5759204  52.8748752  65.0434581 131.8672717  54.3604160
  73.5143176 137.6857749  54.4139935  74.0275057 138.3187741  54.9161645
  74.1644400 137.0858945  54.0483295  64.7833186 133.8288483  47.6271444
  63.9470498 134.1663170  47.9480719  64.6437955 133.6937463  46.6898581
  66.7586266 128.6725271  52.3350628  66.1050679 128.3574289  51.7107243
  66.7166740 128.0501012  53.0610451  67.8697471 138.9544566  44.2503920
  66.9624533 138.7233820  44.4495069  68.3668503 138.1582186  44.4377902
  69.9924007 135.1607205  56.6598276  69.0746568 135.3822152  56.5019964
  70.4084150 135.2353515  55.8009983  70.7759054 136.5598621  51.7900956
  71.5230873 137.0720018  51.4808078  71.0450644 136.2382673  52.6505349
  69.0485704 139.0557161  48.7727910  68.1396924 138.7716194  48.8700380
  69.0780788 139.4756240  47.9131217  74.2804972 142.6663751  52.5419078
  73.8267299 141.8254661  52.5984268  73.6498939 143.3025149  52.8793858
  73.2237891 133.5955737  53.7719745  72.4860648 133.0833123  54.1029988
  73.4764665 133.1556118  52.9603022  73.3249519 126.3731989  54.3661514
  73.6308396 125.5129352  54.0787430  74.0502124 126.9649609  54.1660508
  59.6173875 136.7762675  52.7543112  59.4198275 136.1832036  52.0294179
  59.0620539 136.4714886  53.4719051  67.5970599 136.6685782  54.8737706
  67.6519208 135.7159618  54.7980182  66.7861801 136.8245221  55.3579004
  68.7461792 140.5965905  46.1115989  68.3081222 139.8801764  45.6521626
  69.4872233 140.8242020  45.5501080  65.5362958 135.2862842  52.6328084
  64.7230824 135.5857012  53.0393277  66.0321953 134.8918530  53.3502567
  71.1337170 135.7504666  61.4642978  71.4886558 135.9776139  62.3237444
  71.7809301 136.0823043  60.8420234  76.8634907 138.8723102  52.1692307
  76.7252806 139.0624698  51.2413497  76.5071126 139.6342485  52.6260358
  65.0277033 132.8581197  58.2489319  65.6676413 132.7169956  57.5512283
  64.1954564 132.5715711  57.8727921  76.8904287 140.9399629  57.1803579
  77.3240793 140.8474918  58.0286633  77.6035867 140.9157129  56.5423595
  62.1120101 136.3026709  50.4384065  61.1817689 136.2411165  50.6554027
  62.2077573 135.7802662  49.6420706  62.0305650 132.8281522  53.0262306
  62.2912467 133.7426855  52.9171467  62.8522822 132.3605965  53.1758919
  63.5030575 134.2419279  60.1961131  64.1753628 134.0336641  59.5473780
  62.6760361 134.0441365  59.7566363  77.7519836 140.9823330  59.7136464
  77.9455726 141.8869140  59.9595739  77.6520454 140.5230749  60.5475049
  69.4056147 130.8681220  62.2126792  68.7584062 131.5671170  62.1191268
  70.1757162 131.3017364  62.5803040  72.8134945 141.1330072  65.2877345
  72.6620451 140.9040624  64.3707429  72.8039624 142.0900674  65.3008690
  69.5820281 138.7061985  60.2723611  70.5112341 138.8573145  60.0992579
  69.1611311 138.7946006  59.4172258  63.9058072 137.5161882  60.9563568
  63.7677870 136.7842121  61.5575107  64.8162996 137.4270782  60.6747756
  72.8673020 139.4550287  45.7048046  72.2502191 138.7297115  45.6081099
  72.3989508 140.2159647  45.3615121  66.5340373 137.2281842  60.4447248
  67.2439991 136.5875034  60.4033866  66.4909681 137.4794736  61.3673428
  65.2469307 134.2147059  62.2642887  64.7106664 133.7637798  62.9164483
  64.6586015 134.3492968  61.5213351  64.6571566 133.6735711  44.8269351
  63.7801032 133.5524512  44.4631597  65.1329319 132.8821789  44.5748239
  74.5244559 142.1288779  61.5967806  73.6371338 141.7914701  61.7194205
  75.0943110 141.3971810  61.8336572  60.9808428 133.3503067  59.3495881
  60.8966617 132.7428737  58.6146291  60.1591134 133.8412086  59.3505378
  71.1532142 131.8356631  54.7166077  71.6500841 131.0826593  54.3967147
  70.3819123 131.8720947  54.1509286  79.0061899 137.5396996  56.3584368
  78.9951776 138.4221712  55.9878301  78.1379279 137.1868547  56.1638905
  72.2361923 140.5928318  52.2904500  71.3018201 140.7129780  52.1209204
  72.4138591 139.6900785  52.0264510  67.7367111 133.9774014  54.4437761
  67.3664898 133.4245054  55.1318667  68.2326203 133.3732147  53.8912761
  75.6234474 136.4345637  52.8254534  76.0894926 137.2673629  52.7514837
  76.0741974 135.9690619  53.5299793  73.6910705 142.7789459  49.8240686
  73.9670549 142.6646053  50.7334560  72.8215204 142.3806943  49.7852859
  73.5951137 128.8026224  56.8645435  72.6814217 129.0330451  57.0327642
  74.0244238 128.8864668  57.7159468  73.3657595 136.9916116  59.3645329
  72.7129045 137.2392024  58.7097782  73.7437975 136.1780254  59.0307807
  69.4145168 137.7335927  65.8511367  68.7385805 137.6330057  66.5213742
  70.2372802 137.5775141  66.3147364  55.7541682 136.5413464  57.1928325
  55.7925782 136.0077055  57.9865443  55.2481975 136.0148670  56.5739302
  63.1332444 131.3878004  60.6890867  63.1973771 132.2492835  60.2768265
  63.0699565 130.7752006  59.9563226  62.6084717 133.4601137  64.3363901
  63.2356756 133.0778214  64.9501426  61.7512636 133.2415339  64.7019594
  59.3850260 135.2677566  50.2682256  59.6803701 134.3588245  50.2149310
  58.4838295 135.2465306  49.9463259  62.9144507 133.3433563  56.2509805
  62.1931092 133.9569530  56.1117278  63.7037762 133.8791328  56.1726451
  65.7170820 130.6787989  62.5250457  66.2405222 130.9250286  63.2876766
  65.4983153 131.5108024  62.1053594  61.1138101 132.9491664  50.3921581
  60.7850807 132.0689043  50.2096687  61.4677472 132.8939332  51.2797971
  64.2279924 133.2364634  50.7597059  64.5675997 133.7650555  50.0375667
  64.6752045 133.5745040  51.5355626  66.9223365 131.6201684  60.2100127
  66.5820186 130.8209497  60.6120807  66.2162371 131.9203395  59.6376960
  67.5739837 128.7050997  58.6627450  68.3965906 128.2311475  58.5406341
  67.8177901 129.4841481  59.1626136  66.2148072 131.7339255  48.9590352
  66.9356434 132.1120508  48.4554069  65.5913376 132.4528132  49.0625330
  70.3579194 132.4384404  49.8948684  70.5742809 133.3209042  49.5937512
  69.8773262 132.0470618  49.1654326  65.0978416 135.3970117  56.4719429
  64.9522997 135.7110420  57.3643710  64.6203619 136.0155018  55.9190327
  66.9574799 132.3872665  56.5200318  66.9436367 131.4913759  56.1832616
  67.6747227 132.3943329  57.1538604  68.8100929 132.8210006  58.5653446
  68.5518707 133.7427076  58.5637776  68.2785970 132.4240440  59.2553910
  66.3611695 131.2687046  51.7887889  66.4827606 130.3403692  51.9878776
  66.0713737 131.2825732  50.8766204  69.2302885 128.9541956  54.9254608
  69.2524582 129.0181289  53.9706588  69.6470944 128.1146465  55.1195115
  79.6086509 138.6897216  52.9633831  80.0517655 137.9404541  52.5652954
  78.7313020 138.6807352  52.5807563  60.3590100 137.0645358  62.3037247
  59.6171836 137.2127993  62.8901877  60.0382844 137.3253624  61.4403996
  76.6413714 142.6927263  49.9727760  77.1665038 143.0314535  49.2477080
  76.5536066 141.7574278  49.7890895  65.8452774 132.7819043  65.9977821
  65.8940930 133.6581166  65.6155591  66.3875288 132.2396436  65.4249464
  76.3307620 143.3260166  65.2778958  75.5403164 143.3084305  64.7383458
  76.0940974 143.8648460  66.0327995  76.4505495 140.1752633  62.5911687
  76.5003500 140.0102640  63.5327210  76.3419418 139.3079892  62.2009568
  73.7409257 136.1583561  63.9070993  74.6419120 136.0190026  63.6154991
  73.8157232 136.3238016  64.8469171  68.0752063 133.5350415  62.7524180
  67.2055372 133.8283981  62.4806768  68.3111543 134.1190860  63.4731443
  77.9523692 142.5949574  62.8353708  77.6608500 142.9579555  63.6717169
  77.3395823 141.8816582  62.6567040  79.1519374 140.1602454  55.3556278
  79.9866265 140.5992258  55.5193839  79.2878503 139.6841107  54.5364524
  76.2010880 137.7182189  61.3033766  76.6765002 137.9109835  60.4952618
  75.2776445 137.7741375  61.0577150  63.0894387 138.8806356  50.8864845
  62.8440428 137.9768686  51.0845055  63.2590301 138.8823506  49.9444323
  70.7791096 129.7530032  60.2689600  71.2973040 130.4891059  59.9436089
  70.4246229 130.0594026  61.1036359  62.3590034 134.6134714  48.3851006
  61.6659279 134.6879069  47.7291042  62.1141786 133.8495057  48.9072523
  71.0303691 126.1730315  55.7890497  71.3105444 125.5053504  56.4150923
  71.8154298 126.3659410  55.2765161  74.9012549 134.5947949  59.5362072
  75.8529972 134.6946047  59.5574296  74.7315999 133.8026217  60.0460156
  72.9226928 131.6803532  59.7221473  72.3276861 131.9608545  59.0267961
  72.6376625 132.1697433  60.4938214  77.3800627 137.8154069  58.6504372
  77.3476947 136.8770069  58.8364055  77.9901250 137.8938105  57.9170196
  69.2183958 136.6850122  44.6931576  70.1643062 136.5556330  44.7619994
  68.8398203 135.9464783  45.1701004  77.5295115 134.6065112  58.6962655
  77.0134164 133.8223569  58.5092584  78.4135064 134.2783829  58.8609174
  75.1905842 128.3506128  54.6558467  74.9930663 128.0421216  55.5401799
  75.8005548 129.0767766  54.7856397  83.1977177 138.8770075  57.7910408
  83.9280565 138.6155364  58.3518112  82.5884122 138.1398797  57.8312476
  81.2792474 137.0177938  58.3884859  80.5525637 136.8833903  57.7801351
  80.8639761 137.3254767  59.1941578  69.1022650 140.7367868  66.1532233
  70.0225660 140.9146467  66.3472279  69.0672233 139.7923913  66.0011932
  67.4026875 134.6100098  44.6286461  66.4958330 134.3133211  44.7049174
  67.6802856 134.3129916  43.7620747  58.3204815 135.9306461  55.0785507
  58.0007599 135.0771770  54.7859881  57.7738243 136.1455039  55.8343474
  69.0188940 129.1536988  50.7830702  68.2089669 128.8084073  51.1585948
  69.7073357 128.8444531  51.3718314  70.9479489 128.2315034  52.4054999
  71.5010527 128.6510488  53.0645022  71.1849575 127.3050783  52.4477955
  66.9712588 134.2202108  68.1857763  66.8709315 135.1696465  68.1169854
  66.7534130 133.8920347  67.3133833  66.1725659 131.4687033  44.7698440
  67.0344823 131.7941931  45.0294257  66.3576004 130.6818529  44.2571506
  74.3258296 130.3415560  51.9133663  73.7456965 131.0000364  51.5311715
  74.0594229 129.5192904  51.5021080  72.7761862 129.7420617  54.1154983
  73.2761641 129.8537152  53.3069302  73.4197470 129.4381670  54.7555792
  66.8343858 137.6499247  67.0022824  66.3510940 138.4499607  67.2086713
  66.9204797 137.6607192  66.0490268  73.1083174 132.5015650  50.9690011
  72.2209029 132.7865301  50.7510206  73.5237163 132.3409413  50.1217288
  76.4597710 132.5262171  54.6844350  77.2358100 133.0158623  54.9568967
  75.7345844 132.9520225  55.1416220  78.8970269 133.2389790  55.7418291
  79.4914759 132.9985526  55.0311599  78.9696852 132.5196921  56.3691827
  73.0824198 138.0170186  51.1840301  73.0259399 138.4738737  50.3447934
  73.6352540 137.2560871  51.0063144  76.8929004 133.8059918  52.0090421
  76.6365938 133.4056553  52.8398629  76.2681872 134.5203712  51.8840560
  81.2041341 136.5455991  54.5161712  80.6440899 136.6149180  55.2893274
  80.5984845 136.3696976  53.7961209  74.1613085 142.7042854  47.1136491
  74.9958689 142.2724052  46.9313966  73.9997428 142.5324868  48.0413386
  73.8158977 139.2074967  48.4792831  73.7607781 139.0419239  47.5381275
  73.1905032 139.9151000  48.6355020  58.6051492 134.4443032  62.3054253
  59.2510356 133.9341986  62.7941478  58.3968643 135.1811713  62.8797678
  71.1304884 141.5123879  67.8046393  71.9996044 141.6864531  67.4433028
  70.6511636 142.3318296  67.6822123  67.1255102 128.7083076  48.0578149
  67.1133772 129.6524916  48.2146420  68.0178524 128.5253222  47.7637610
  70.9407222 125.3025853  52.3124086  70.1739618 124.7484340  52.4580768
  71.3517927 125.3747722  53.1738237  62.9448983 131.5910649  66.4029267
  63.8080444 131.2347453  66.6132592  62.3714394 131.2524543  67.0904671
  85.2672476 144.5960766  59.6472463  84.9355801 145.4656177  59.4233678
  84.6718089 144.2797050  60.3266494  87.0262786 147.5172291  58.5043687
  86.3837166 147.8104824  57.8583482  86.5217714 147.4025211  59.3096884
  82.3655608 142.4430347  59.2643777  82.0219877 143.3331989  59.1882887
  82.7334570 142.2532005  58.4013362  81.4452148 144.8135002  57.2293010
  80.9416944 144.7765138  56.4160815  81.7382755 145.7227745  57.2889667
  77.5980021 144.0017189  52.3350628  76.9444433 143.6866206  51.7107243
  77.5560495 143.3792929  53.0610451  84.1643273 141.7023906  54.3661514
  84.4702150 140.8421270  54.0787430  84.8895878 142.2941527  54.1660508
  84.4344891 144.1318142  56.8645435  83.5207971 144.3622369  57.0327642
  84.8637993 144.2156586  57.7159468  78.4133592 144.0342914  58.6627450
  79.2359661 143.5603393  58.5406341  78.6571655 144.8133398  59.1626136
  80.0696639 144.2833874  54.9254608  80.0918336 144.3473207  53.9706588
  80.4864698 143.4438382  55.1195115  81.6184851 145.0821950  60.2689600
  82.1366795 145.8182977  59.9436089  81.2639984 145.3885943  61.1036359
  81.8697445 141.5022233  55.7890497  82.1499199 140.8345422  56.4150923
  82.6548052 141.6951328  55.2765161  86.0299597 143.6798045  54.6558467
  85.8324418 143.3713133  55.5401799  86.6399302 144.4059684  54.7856397
  79.8582695 144.4828905  50.7830702  79.0483423 144.1375990  51.1585948
  80.5467112 144.1736449  51.3718314  81.7873243 143.5606952  52.4054999
  82.3404282 143.9802406  53.0645022  82.0243330 142.6342700  52.4477955
  85.1652050 145.6707477  51.9133663  84.5850719 146.3292281  51.5311715
  84.8987983 144.8484822  51.5021080  83.6155617 145.0712535  54.1154983
  84.1155395 145.1829070  53.3069302  84.2591225 144.7673588  54.7555792
  89.7364023 148.5681708  55.7418291  90.3308514 148.3277444  55.0311599
  89.8090607 147.8488838  56.3691827  81.7800976 140.6317770  52.3124086
  81.0133372 140.0776257  52.4580768  82.1911681 140.7039639  53.1738237
   6.9141080  22.9231204  43.9336975   7.5519490  22.8037951  43.2300315
   6.7961923  23.8712048  43.9924927   3.7230786  22.8758632  43.8698499
   3.3849297  22.7599697  42.9819034   4.5920554  22.4749797  43.8499505
   4.2050569  24.0293484  49.8284705   4.1939210  23.6346282  48.9565209
   4.3671208  23.2959556  50.4218476   5.1617160  28.3965076  35.1709855
   4.5105140  28.9819156  34.7843869   5.9561523  28.9271271  35.2304893
   0.9257830  26.8130595  48.7763889   0.6347696  27.7176226  48.6610555
   1.5614814  26.8547123  49.4907958   1.8514037  24.1907444  45.3665249
   2.4477609  23.9663466  44.6522211   1.9089008  23.4492189  45.9690696
   6.4682348  20.6482658  41.0090183   7.2545437  20.2302081  40.6580600
   6.7321052  21.5528750  41.1771831  11.8690775  20.5857891  41.9123161
  12.6015947  20.0157108  42.1460991  11.1130131  20.1979491  42.3529667
   3.4866895  23.0085132  39.1086504   3.1225102  22.4815753  39.8199425
   4.3434011  22.6183601  38.9352989   5.8847715  26.4992011  45.7713683
   5.5848438  27.4017050  45.6629490   5.5398775  26.2324194  46.6234835
   9.2844859  19.0174551  43.4511120   8.3761736  18.9489960  43.1569881
   9.2332455  19.4946496  44.2792945   3.3585725  20.4364197  51.3946017
   2.5819059  20.9958117  51.3848882   3.9976288  20.9220980  51.9160887
  11.1506505  17.2190990  45.2288994  10.5080886  17.5123523  44.5828788
  10.6461434  17.1043910  46.0342190   1.6132097  23.2449650  50.9563984
   2.3546781  23.7834694  50.6798808   0.9069082  23.8715939  51.1135536
   7.0887437  25.3878791  49.5536146   7.4970793  24.9461201  48.8090778
   6.3664698  24.8131418  49.8070339   3.4418507  20.3251397  46.9269703
   4.2879702  20.7490811  47.0704352   3.3817144  19.6685022  47.6208266
   7.4116251  25.9479981  43.3088435   6.7825114  26.1125695  42.6064502
   7.0241913  26.3621591  44.0799399  11.2905483  26.8834419  40.6632798
  10.6056521  27.2633320  40.1129832  11.3749333  27.4929746  41.3964746
   6.5917952  17.9855766  48.5850876   6.3478884  18.7397826  48.0485152
   6.8677883  18.3641113  49.4198123   8.5456415  24.5294378  47.2628142
   8.7573310  25.1726138  46.5862523   8.4986163  23.6956695  46.7950072
   6.1482644  17.1412199  44.1664714   5.2867123  17.4393452  44.4581452
   6.1745078  17.3582598  43.2345747   2.9644213  25.6854389  40.5738520
   3.4282559  25.9642092  39.7843142   2.7001011  24.7837834  40.3911610
   9.6602243  27.4066334  45.4350499  10.4819686  27.0046521  45.1533181
   9.6564646  27.3034568  46.3866615   3.4258846  26.9550377  47.5911210
   3.4903279  27.4170784  48.4269381   2.7169770  26.3247742  47.7193519
  17.7508236  23.7505082  41.7835471  16.9971944  23.1812480  41.6279475
  17.8855777  23.7167746  42.7306105   3.1406864  28.6218484  37.4590190
   3.0052539  29.4670020  37.8875038   3.6816676  28.8237762  36.6956124
   4.7675340  29.2442051  51.5890532   4.3239194  28.4578429  51.2711437
   5.4292554  29.4321201  50.9234423   6.8656578  29.5244851  49.6171933
   6.8475054  30.3453732  49.1252202   7.7876498  29.3998926  49.8422074
   3.3229632  27.0388980  50.4595442   3.8557969  26.2777268  50.2294750
   2.7943714  26.7462632  51.2019596  11.4283884  24.8890012  36.4314692
  10.6513327  24.5501171  35.9869854  12.1075365  24.8942635  35.7569657
   4.6882345  26.1674973  37.9714254   4.1603707  25.4327732  37.6587491
   4.1869848  26.9449649  37.7254222   9.6675191  24.3623993  43.0881300
   9.0098866  25.0523255  43.1761429  10.4715590  24.7520425  43.4315286
   8.4780650  22.7168366  41.1385242   8.9912532  23.3498358  41.6406951
   9.1281874  22.1169561  40.7728602   5.7403024  32.6952690  33.8945913
   5.0664723  32.9984387  34.5030871   6.1268846  33.4981770  33.5451370
   4.9561481  20.1917821  43.3843582   4.0384042  20.4132768  43.2265270
   5.3721624  20.2664132  42.5255290   5.7396529  21.5909237  38.5146263
   6.4868348  22.1030634  38.2053385   6.0088118  21.2693290  39.3750656
   9.2442446  27.6974367  39.2664384   8.7904773  26.8565277  39.3229575
   8.6136413  28.3335766  39.6039165   8.1875366  18.6266353  40.4965052
   7.4498123  18.1143740  40.8275294   8.4402139  18.1866735  39.6848329
   7.6875385  29.5350864  40.2014203   7.9798360  30.0955921  39.4826568
   8.1974006  29.8279425  40.9567362   2.5608073  21.6996398  41.5983012
   2.6156683  20.7470235  41.5225489   1.7499275  21.8555838  42.0824311
   2.6509011  30.3131215  41.2907656   2.6085189  30.5392061  40.3616188
   3.5671710  30.0794590  41.4393457   6.0974644  20.7815283  48.1888285
   6.4524032  21.0086756  49.0482751   6.7446776  21.1133659  47.5665540
  11.8272381  23.9033719  38.8937614  11.6890280  24.0935315  37.9658803
  11.4708600  24.6653101  39.3505665  11.8541761  25.9710246  43.9048885
  12.2878268  25.8785535  44.7531940  12.5673342  25.9467746  43.2668901
   5.5869656  29.5712340  45.4381986   5.6406678  30.1403276  46.2059702
   4.7184437  29.7414225  45.0736023  12.7157311  26.0133946  46.4381771
  12.9093201  26.9179757  46.6841046  12.6157929  25.5541365  47.2720356
   7.7772419  26.1640689  52.0122651   7.6257926  25.9351241  51.0952735
   7.7677099  27.1211290  52.0253996   4.5457756  23.7372602  46.9968918
   5.4749816  23.8883761  46.8237885   4.1248786  23.8256622  46.1417564
   3.3446087  27.7623266  44.7667456   3.2057173  27.3942050  45.6393394
   2.5560684  28.2770906  44.5951413   3.9394239  32.8632363  36.1092992
   4.1145995  32.3920406  36.9238615   3.2527027  33.4898129  36.3374253
   4.8951303  27.1404869  42.1556293   4.5601135  27.1005639  43.0513943
   4.3955248  26.4749585  41.6826704   1.4977847  22.2592458  47.1692554
   2.2077466  21.6185650  47.1279173   1.4547155  22.5105353  48.0918735
   9.4864626  29.1959811  50.0899133   9.4277172  28.5119032  49.4229716
   9.8884144  29.9378801  49.6379759   9.4882033  27.1599395  48.3213113
   8.6008812  26.8225317  48.4439512  10.0580584  26.4282427  48.5581878
   3.0183187  31.8200848  45.2874356   2.9453358  32.6255819  45.7993661
   2.5760580  32.0192814  44.4622378   2.8072966  31.0572618  38.7977178
   2.0240488  31.5994298  38.8915402   3.5065711  31.5746597  39.1971419
  13.9699374  22.5707613  43.0829675  13.9589250  23.4532328  42.7123608
  13.1016753  22.2179164  42.8884212   5.4781870  31.7187682  47.4432515
   6.1909842  32.3535147  47.3708416   4.9871899  31.8151548  46.6272517
   7.1999397  25.6238934  39.0149807   6.2655676  25.7440397  38.8454511
   7.3776065  24.7211401  38.7509816  10.5871948  21.4656254  39.5499841
  11.0532401  22.2984245  39.4760143  11.0379449  21.0001235  40.2545099
   8.6548179  27.8100075  36.5485993   8.9308023  27.6956670  37.4579867
   7.7852678  27.4117560  36.5098166   8.3295070  22.0226733  46.0890636
   7.6766520  22.2702640  45.4343089   8.7075449  21.2090871  45.7553113
   5.2902243  32.0586426  40.1918806   5.4724638  31.2408082  40.6546559
   6.1135229  32.2754118  39.7543696   5.6244409  30.9854611  37.4533855
   6.1532175  30.4747066  36.8404017   5.8872629  30.6697141  38.3179388
   4.3782643  22.7646544  52.5756673   3.7023280  22.6640673  53.2459048
   5.2010276  22.6085758  53.0392670   3.1205425  34.0713471  46.8114289
   3.6723733  34.2345093  47.5763374   3.4611619  34.6617909  46.1394314
   7.9716300  28.8974729  52.6662944   8.5156204  29.5104687  52.1717898
   7.3903145  29.4554307  53.1829957   6.2573813  32.0195447  43.7977971
   6.1324952  31.2185187  43.2888917   6.9152904  32.5141640  43.3091941
   8.3208721  29.8204467  45.4257521   7.3739057  29.7009818  45.3535848
   8.6691494  28.9326965  45.5083783   5.3255154  29.6157183  41.6261874
   5.1780117  28.6873890  41.8069444   6.1508648  29.6377274  41.1418949
   8.9289276  30.4385742  42.7126746   9.8535824  30.2328603  42.5751198
   8.7604580  30.1902143  43.6216088   8.7184592  30.9571409  38.0688838
   8.8921470  30.3917832  37.3162690   9.2113484  31.7572304  37.8868328
  14.5723984  23.7207832  39.6879138  15.0155130  22.9715157  39.2898261
  13.6950494  23.7117969  39.3052870   9.7059765  30.2738174  35.1685736
  10.4010670  30.8944866  35.3873051  10.0482915  29.4233525  35.4438114
  11.6051188  27.7237879  36.6973067  12.1302512  28.0625152  35.9722387
  11.5173541  26.7884894  36.5136201   3.2671237  31.6371953  48.8262943
   3.5758363  31.3921100  49.6985643   4.0646719  31.8418591  48.3381814
   3.2891849  33.7909862  41.0568320   2.8496839  33.2986241  41.7501177
   4.0399966  33.2482830  40.8160395  11.2945094  28.3570783  52.0024265
  10.5040638  28.3394922  51.4628764  11.0578449  28.8959077  52.7573301
  11.4142969  25.2063249  49.3156993  11.4640974  25.0413257  50.2572516
  11.3056893  24.3390508  48.9254874   8.7046732  21.1894177  50.6316300
   9.6056594  21.0500642  50.3400298   8.7794706  21.3548632  51.5714478
  12.9161166  27.6260191  49.5599015  12.6245974  27.9890171  50.3962476
  12.3033297  26.9127199  49.3812347  14.1156848  25.1913070  42.0801585
  14.9503740  25.6302875  42.2439145  14.2515977  24.7151724  41.2609831
  11.1648354  22.7492805  48.0279073  11.6402476  22.9420452  47.2197924
  10.2413920  22.8051991  47.7822457   9.8650023  19.6258565  46.2607378
  10.8167446  19.7256663  46.2819603   9.6953474  18.8336834  46.7705463
   7.8864403  16.7114149  46.4466779   7.2914335  16.9919161  45.7513268
   7.6014099  17.2008050  47.2183521   7.0171893  30.6637075  35.2069412
   7.9502566  30.5982637  35.4102287   6.9295106  31.4993342  34.7483945
   9.6459910  29.9802946  32.1673360   9.5673541  29.6462809  33.0609117
  10.4669577  30.4724714  32.1664832  12.3438101  22.8464685  45.3749678
  12.3114421  21.9080686  45.5609362  12.9538725  22.9248722  44.6415503
  12.4932590  19.6375729  45.4207961  11.9771638  18.8534185  45.2337890
  13.3772538  19.3094445  45.5854481  18.1614651  23.9080692  44.5155715
  18.8918039  23.6465980  45.0763418  17.5521596  23.1709414  44.5557783
  16.2429948  22.0488555  45.1130166  15.5163112  21.9144519  44.5046658
  15.8277235  22.3565383  45.9186884   4.0660124  25.7678484  52.8777539
   4.9863134  25.9457083  53.0717586   4.0309707  24.8234530  52.7257238
   1.7981332  22.6809863  53.7268131   1.3148414  23.4810224  53.9332020
   1.8842271  22.6917808  52.7735575  11.4235184  17.5572788  41.4089657
  12.1995574  18.0469240  41.6814274  10.6983318  17.9830842  41.8661527
  13.8607743  18.2700407  42.4663598  14.4552234  18.0296143  41.7556906
  13.9334327  17.5507537  43.0937134   8.0461672  23.0480802  37.9085608
   7.9896873  23.5049354  37.0693240   8.5990014  22.2871487  37.7308451
  11.8566478  18.8370534  38.7335728  11.6003412  18.4367170  39.5643935
  11.2319346  19.5514328  38.6085867  16.1678816  21.5766608  41.2407019
  15.6078374  21.6459797  42.0138581  15.5622319  21.4007592  40.5206515
   9.1250559  27.7353470  33.8381798   9.9596163  27.3034669  33.6559273
   8.9634902  27.5635484  34.7658692   6.0942358  26.5434496  54.5291700
   6.9633518  26.7175148  54.1678335   5.6149110  27.3628912  54.4067429
   2.0182141  32.4162583  42.8691212   1.0677772  32.4164445  42.7555585
   2.3214627  31.6695318  42.3527247  17.7534834  38.2523122  43.9336975
  18.3913244  38.1329869  43.2300315  17.6355677  39.2003965  43.9924927
  14.5624540  38.2050550  43.8698499  14.2243052  38.0891614  42.9819034
  15.4314309  37.8041715  43.8499505  10.4211356  40.0586026  39.8595390
   9.8576221  39.9675963  39.0911678  10.3063751  39.2385930  40.3397883
  15.0444323  39.3585401  49.8284705  15.0332964  38.9638200  48.9565209
  15.2064963  38.6251474  50.4218476   7.9675788  41.5537218  42.6979611
   8.7597080  41.2128042  42.2825910   8.2072438  41.6632193  43.6181764
  16.0010915  43.7256994  35.1709855  15.3498895  44.3111074  34.7843869
  16.7955278  44.2563189  35.2304893   9.9266542  40.8146131  35.5696990
  10.6997418  40.2675118  35.4309865  10.2791941  41.6790380  35.7811451
  11.7651585  42.1422513  48.7763889  11.4741451  43.0468144  48.6610555
  12.4008569  42.1839041  49.4907958  12.6907791  39.5199362  45.3665249
  13.2871364  39.2955384  44.6522211  12.7482763  38.7784107  45.9690696
  12.2632820  36.9738797  33.2015439  12.5158340  36.4520318  32.4398902
  11.3257379  36.8104942  33.3042123  17.3076103  35.9774575  41.0090183
  18.0939192  35.5593999  40.6580600  17.5714807  36.8820668  41.1771831
  17.4786180  41.4147426  35.7078840  16.8432013  41.4882052  36.4199744
  17.1483586  42.0041025  35.0297919  22.7084530  35.9149809  41.9123161
  23.4409702  35.3449025  42.1460991  21.9523885  35.5271409  42.3529667
  11.9829109  38.8766903  35.4039814  11.8665367  38.2011806  36.0720899
  12.0931368  38.3899277  34.5871967  14.3260649  38.3377050  39.1086504
  13.9618857  37.8107671  39.8199425  15.1827765  37.9475519  38.9352989
  20.2309950  29.6271383  46.3717770  19.8993275  30.4966794  46.1478985
  19.6355564  29.3107667  47.0511800  13.9666136  33.3666950  34.1047852
  14.1340539  34.2347186  34.4718323  13.7763306  33.5294231  33.1809141
  16.7241470  41.8283929  45.7713683  16.4242193  42.7308967  45.6629490
  16.3792529  41.5616112  46.6234835  10.1753951  38.2797726  41.8050387
   9.2504448  38.1473940  42.0128079  10.4238364  39.0591945  42.3020329
  20.1238613  34.3466469  43.4511120  19.2155491  34.2781877  43.1569881
  20.0726209  34.8238414  44.2792945  13.9455357  35.8224607  35.0894519
  13.8254983  36.2681658  35.9279999  13.2507946  36.1709925  34.5308057
   7.5362762  37.9230999  42.6394176   7.6655143  38.1765478  43.5533588
   6.8560213  38.5158707  42.3198831  11.7062249  48.5928249  38.7384650
  11.6286279  49.5436074  38.8173131  11.1023893  48.2474122  39.3959577
  14.1979479  35.7656114  51.3946017  13.4212813  36.3250035  51.3848882
  14.8370042  36.2512897  51.9160887  21.9900260  32.5482907  45.2288994
  21.3474640  32.8415440  44.5828788  21.4855188  32.4335828  46.0342190
  19.6440423  36.2946080  35.9174853  20.5558280  36.5273467  35.7422551
  19.1350071  36.8783125  35.3549932  12.4525852  38.5741568  50.9563984
  13.1940536  39.1126612  50.6798808  11.7462837  39.2007857  51.1135536
  17.9281191  40.7170708  49.5536146  18.3364547  40.2753119  48.8090778
  17.2058453  40.1423336  49.8070339  14.2812261  35.6543315  46.9269703
  15.1273456  36.0782729  47.0704352  14.2210899  34.9976939  47.6208266
  18.2510006  41.2771899  43.3088435  17.6218868  41.4417613  42.6064502
  17.8635668  41.6913508  44.0799399  22.1299238  42.2126337  40.6632798
  21.4450276  42.5925238  40.1129832  22.2143087  42.8221663  41.3964746
  17.4311707  33.3147683  48.5850876  17.1872638  34.0689744  48.0485152
  17.7071637  33.6933031  49.4198123  19.3850169  39.8586296  47.2628142
  19.5967065  40.5018056  46.5862523  19.3379918  39.0248612  46.7950072
  16.9876398  32.4704116  44.1664714  16.1260877  32.7685370  44.4581452
  17.0138833  32.6874515  43.2345747  13.8037968  41.0146307  40.5738520
  14.2676313  41.2934010  39.7843142  13.5394766  40.1129752  40.3911610
  10.6962049  40.5617789  43.5118283  11.2663406  40.9905057  42.8735767
  11.2870161  40.2800373  44.2102469  12.7406854  37.1369459  37.3828085
  13.4430897  37.5890503  37.8502011  12.4087482  36.4953278  38.0107978
  11.1887215  35.7281216  51.7579294  10.5585876  36.4097497  51.9914691
  11.0823303  35.6164298  50.8132432   6.4832188  35.3953012  42.6845218
   5.6931242  35.6510541  42.2085329   6.9743435  36.2101350  42.7897259
  20.4995997  42.7358251  45.4350499  21.3213441  42.3338438  45.1533181
  20.4958400  42.6326485  46.3866615   8.4346933  35.7597591  39.6428695
   7.6378096  35.8716286  40.1612191   8.2072525  36.0984243  38.7769586
  14.2652601  42.2842294  47.5911210  14.3297033  42.7462702  48.4269381
  13.5563525  41.6539659  47.7193519   4.7669891  35.6483502  45.1160209
   5.0177929  36.5330512  45.3817785   5.3029439  35.4688104  44.3435301
  28.5901990  39.0797000  41.7835471  27.8365699  38.5104398  41.6279475
  28.7249532  39.0459664  42.7306105  13.9800618  43.9510402  37.4590190
  13.8446293  44.7961938  37.8875038  14.5210431  44.1529680  36.6956124
  10.4667958  30.0301982  54.1204545  10.0734904  29.4768180  54.7952189
  11.2834098  30.3412560  54.5111063   7.4330016  41.4685840  38.0318115
   7.9454536  42.2629090  38.1823680   8.0852729  40.7712130  37.9651717
   9.2424900  44.5851596  40.1140868   9.4191529  45.5069561  39.9261852
  10.0381734  44.2710015  40.5435248  13.3835919  31.4459861  51.7124802
  14.1245632  32.0467014  51.6329264  13.6153842  30.7037499  51.1542844
   8.5277257  36.6316228  49.9903031   8.4130772  35.7301485  50.2910130
   7.6721775  36.8779925  49.6387848  15.6069095  44.5733968  51.5890532
  15.1632949  43.7870347  51.2711437  16.2686308  44.7613119  50.9234423
  10.3656216  46.1029770  46.1151211  10.9163641  45.9746833  45.3428204
   9.5267692  46.4024659  45.7646103  17.7050333  44.8536768  49.6171933
  17.6868808  45.6745649  49.1252202  18.6270253  44.7290844  49.8422074
  14.1623387  42.3680898  50.4595442  14.6951724  41.6069186  50.2294750
  13.6337468  42.0754550  51.2019596  17.3293082  27.4740964  45.9889083
  16.9857351  28.3642606  45.9128194  17.6972045  27.2842621  45.1258668
   5.3978933  39.7974494  38.8077686   6.2354155  40.2071503  38.5911393
   5.5757200  38.8573936  38.7777879  17.2943365  37.4649575  34.4961519
  16.7789988  38.2354180  34.7349906  17.0220673  36.7914711  35.1194580
  14.8790476  32.3099276  39.5546757  14.0232072  31.9206126  39.3752396
  15.2917427  32.3891237  38.6946542  16.4089622  29.8445619  43.9538317
  15.9054418  29.8075754  43.1406122  16.7020229  30.7538362  44.0134973
  12.6532508  29.9284349  42.9604498  13.5185505  29.7327157  42.6010388
  12.7210017  29.6994700  43.8873855  22.2677639  40.2181930  36.4314692
  21.4907082  39.8793089  35.9869854  22.9469120  40.2234553  35.7569657
  17.0829668  35.3376667  36.3221300  16.7779803  35.6522816  37.1731443
  18.0360110  35.4158087  36.3648633  15.5276100  41.4966890  37.9714254
  14.9997461  40.7619650  37.6587491  15.0263602  42.2741567  37.7254222
  20.5068946  39.6915911  43.0881300  19.8492620  40.3815172  43.1761429
  21.3109345  40.0812343  43.4315286  10.2594827  32.1586557  40.3320865
  10.8338579  31.9361738  39.5994058  10.8465810  32.2275251  41.0849467
  19.3174404  38.0460284  41.1385242  19.8306286  38.6790275  41.6406951
  19.9675628  37.4461479  40.7728602  10.5864414  34.1891018  34.3516750
   9.7501727  34.5265704  34.6726025  10.4469184  34.0539997  33.4143887
  12.5617495  29.0327806  39.0595935  11.9081907  28.7176823  38.4352549
  12.5197969  28.4103546  39.7855758  13.6728700  39.3147101  30.9749227
  12.7655762  39.0836354  31.1740376  14.1699732  38.5184720  31.1623208
  16.5796779  48.0244608  33.8945913  15.9058477  48.3276305  34.5030871
  16.9662601  48.8273688  33.5451370  15.7955235  35.5209739  43.3843582
  14.8777797  35.7424686  43.2265270  16.2115379  35.5956050  42.5255290
  16.5790283  36.9201155  38.5146263  17.3262102  37.4322552  38.2053385
  16.8481873  36.5985207  39.3750656  14.8516933  39.4159695  35.4973217
  13.9428153  39.1318728  35.5945687  14.8812017  39.8358774  34.6376524
  20.0836201  43.0266285  39.2664384  19.6298528  42.1857195  39.3229575
  19.4530167  43.6627683  39.6039165  19.0269120  33.9558271  40.4965052
  18.2891877  33.4435657  40.8275294  19.2795894  33.5158653  39.6848329
  18.5269140  44.8642782  40.2014203  18.8192114  45.4247839  39.4826568
  19.0367761  45.1571343  40.9567362  19.1280748  26.7334523  41.0906821
  19.4339624  25.8731886  40.8032736  19.8533352  27.3252143  40.8905815
   5.4205104  37.1365210  39.4788419   5.2229503  36.5434570  38.7539486
   4.8651768  36.8317420  40.1964358  13.4001827  37.0288316  41.5983012
  13.4550437  36.0762152  41.5225489  12.5893029  37.1847755  42.0824311
  14.5493021  40.9568439  32.8361295  14.1112451  40.2404298  32.3766933
  15.2903462  41.1844554  32.2746387  11.3394187  35.6465376  39.3573391
  10.5262053  35.9459546  39.7638583  11.8353181  35.2521065  40.0747873
  13.4902765  45.6423133  41.2907656  13.4478944  45.8683979  40.3616188
  14.4065464  45.4086507  41.4393457  16.9368399  36.1107200  48.1888285
  17.2917787  36.3378673  49.0482751  17.5840530  36.4425577  47.5665540
  22.6666136  39.2325636  38.8937614  22.5284034  39.4227232  37.9658803
  22.3102355  39.9945019  39.3505665  10.8308262  33.2183731  44.9734626
  11.4707641  33.0772490  44.2757589   9.9985793  32.9318245  44.5973228
  22.6935515  41.3002163  43.9048885  23.1272022  41.2077452  44.7531940
  23.4067096  41.2759664  43.2668901  11.6068566  42.5186162  41.0869618
  12.4009164  42.0236482  40.8852193  10.8960258  41.9904025  40.7237324
  16.4263410  44.9004257  45.4381986  16.4800433  45.4695194  46.2059702
  15.5578192  45.0706142  45.0736023   7.9151329  36.6629244  37.1629371
   6.9848917  36.6013699  37.3799333   8.0108801  36.1405196  36.3666012
   7.8336878  33.1884056  39.7507613   8.0943696  34.1029390  39.6416773
   8.6554051  32.7208499  39.9004226   9.3061804  34.6021814  46.9206437
   9.9784857  34.3939176  46.2719086   8.4791590  34.4043900  46.4811670
  23.5551065  41.3425864  46.4381771  23.7486955  42.2471674  46.6841046
  23.4551683  40.8833283  47.2720356  15.2087376  31.2283754  48.9372098
  14.5615291  31.9273704  48.8436575  15.9788391  31.6619898  49.3048346
  18.6166174  41.4932607  52.0122651  18.4651680  41.2643158  51.0952735
  18.6070853  42.4503208  52.0253996  15.3851510  39.0664519  46.9968918
  16.3143570  39.2175679  46.8237885  14.9642540  39.1548540  46.1417564
  14.1839842  43.0915184  44.7667456  14.0450928  42.7233968  45.6393394
  13.3954438  43.6062823  44.5951413  14.7787994  48.1924280  36.1092992
  14.9539750  47.7212323  36.9238615  14.0920782  48.8190046  36.3374253
  15.7345057  42.4696786  42.1556293  15.3994890  42.4297556  43.0513943
  15.2349003  41.8041502  41.6826704   9.7089301  37.8764416  47.6808874
   9.5709099  37.1444655  48.2820414  10.6194224  37.7873317  47.3993062
  18.6704249  39.8152821  32.4293353  18.0533419  39.0899649  32.3326406
  18.2020737  40.5762181  32.0860427  12.3371602  37.5884376  47.1692554
  13.0471220  36.9477568  47.1279173  12.2940910  37.8397271  48.0918735
  20.3258380  44.5251729  50.0899133  20.2670927  43.8410949  49.4229716
  20.7277899  45.2670719  49.6379759  11.0500536  34.5749594  48.9888194
  10.5137893  34.1240332  49.6409790  10.4617244  34.7095503  48.2458658
   9.3449079  51.3413643  42.8832852   9.5845677  51.9732167  43.5611871
   8.5018276  50.9901683  43.1698212  10.4602795  34.0338245  31.5514657
   9.5832261  33.9127046  31.1876904  10.9360548  33.2424323  31.2993546
  20.3275788  42.4891313  48.3213113  19.4402566  42.1517235  48.4439512
  20.8974339  41.7574344  48.5581878   1.9804935  38.8215405  41.6456164
   2.6675975  38.5077135  41.0577180   1.8253063  39.7256769  41.3723416
   6.7839657  33.7105601  46.0741188   6.6997846  33.1031271  45.3391598
   5.9622363  34.2014620  46.0750684  13.8576941  47.1492765  45.2874356
  13.7847113  47.9547737  45.7993661  13.4154334  47.3484731  44.4622378
  13.6466721  46.3864535  38.7977178  12.8634243  46.9286216  38.8915402
  14.3459466  46.9038515  39.1971419  16.9563371  32.1959165  41.4411383
  17.4532070  31.4429127  41.1212453  16.1850352  32.2323482  40.8754592
  24.8093128  37.8999530  43.0829675  24.7983004  38.7824246  42.7123608
  23.9410508  37.5471081  42.8884212  16.3175625  47.0479599  47.4432515
  17.0303597  47.6827064  47.3708416  15.8265653  47.1443465  46.6272517
  18.0393151  40.9530852  39.0149807  17.1049430  41.0732315  38.8454511
  18.2169820  40.0503319  38.7509816  13.5398340  34.3376548  41.1683068
  13.1696127  33.7847588  41.8563973  14.0357432  33.7334681  40.6158068
  21.4265703  36.7948171  39.5499841  21.8926155  37.6276163  39.4760143
  21.8773203  36.3293153  40.2545099  11.3687538  44.7974043  48.2638086
  12.0696998  45.4310526  48.4167480  10.8982653  45.1388774  47.5033725
  19.4941934  43.1391993  36.5485993  19.7701778  43.0248587  37.4579867
  18.6246433  42.7409478  36.5098166  19.3982366  29.1628758  43.5890742
  18.4845445  29.3932985  43.7572949  19.8275467  29.2467202  44.4404774
  19.1688824  37.3518650  46.0890636  18.5160274  37.5994558  45.4343089
  19.5469204  36.5382789  45.7553113  16.1295998  47.3878344  40.1918806
  16.3118392  46.5700000  40.6546559  16.9528984  47.6046036  39.7543696
  16.4638163  46.3146529  37.4533855  16.9925930  45.8038983  36.8404017
  16.7266383  45.9989059  38.3179388  15.2176397  38.0938461  52.5756673
  14.5417034  37.9932591  53.2459048  16.0404031  37.9377675  53.0392670
   6.9655256  44.3310398  45.1969188   7.5508693  43.5854086  45.3297093
   6.7680095  44.6414355  46.0805852   9.8193911  47.3661645  40.2131631
   9.1504287  47.8507773  39.7295671   9.6806781  47.6130866  41.1275009
   1.5572911  36.9015998  43.9173632   1.5957010  36.3679589  44.7110750
   1.0513204  36.3751204  43.2984609  13.9599180  49.4005389  46.8114289
  14.5117488  49.5637010  47.5763374  14.3005373  49.9909827  46.1394314
   8.9363673  31.7480539  47.4136174   9.0005000  32.6095370  47.0013572
   8.8730793  31.1354540  46.6808532   8.4115946  33.8203671  51.0609208
   9.0387985  33.4380749  51.6746732   7.5543865  33.6017873  51.4264901
  18.8110054  44.2266646  52.6662944  19.3549958  44.8396605  52.1717898
  18.2296899  44.7846225  53.1829957   5.1881488  35.6280100  36.9927563
   5.4834930  34.7190779  36.9394617   4.2869524  35.6067840  36.6708565
  17.0967567  47.3487364  43.7977971  16.9718707  46.5477104  43.2888917
  17.7546658  47.8433558  43.3091941   8.7175735  33.7036097  42.9755112
   7.9962321  34.3172065  42.8362585   9.5068991  34.2393862  42.8971757
  19.1602476  45.1496385  45.4257521  18.2132811  45.0301736  45.3535848
  19.5085249  44.2618883  45.5083783  11.5202049  31.0390523  49.2495763
  12.0436451  31.2852820  50.0122073  11.3014382  31.8710558  48.8298901
   6.9169330  33.3094198  37.1166888   6.5882036  32.4291577  36.9341994
   7.2708701  33.2541867  38.0043277  16.1648909  44.9449101  41.6261874
  16.0173871  44.0165808  41.8069444  16.9902402  44.9669191  41.1418949
  10.0311153  33.5967168  37.4842366  10.3707226  34.1253089  36.7620974
  10.4783274  33.9347574  38.2600932  19.7683031  45.7677659  42.7126746
  20.6929578  45.5620521  42.5751198  19.5998334  45.5194061  43.6216088
  12.7254594  31.9804219  46.9345434  12.3851414  31.1812032  47.3366114
  12.0193600  32.2805929  46.3622267  13.3771066  29.0653531  45.3872757
  14.1997135  28.5914009  45.2651647  13.6209129  29.8444015  45.8871443
  12.0179300  32.0941789  35.6835659  12.7387663  32.4723042  35.1799375
  11.3944604  32.8130666  35.7870636  16.1610423  32.7986938  36.6193991
  16.3774038  33.6811576  36.3182819  15.6804490  32.4073152  35.8899633
  10.9009645  35.7572652  43.1964735  10.7554225  36.0712955  44.0889017
  10.4234848  36.3757552  42.6435634  12.7606027  32.7475200  43.2445625
  12.7467596  31.8516293  42.9077923  13.4778456  32.7545863  43.8783911
  14.6132158  33.1812540  45.2898752  14.3549936  34.1029610  45.2883083
  14.0817199  32.7842974  45.9799217  19.5578347  46.2863327  38.0688838
  19.7315224  45.7209749  37.3162690  20.0507238  47.0864222  37.8868328
   5.3755307  38.2977996  46.1352397   4.8308775  39.0737804  46.2672671
   6.2534657  38.6448800  45.9771518  12.1642923  31.6289580  38.5133195
  12.2858835  30.7006226  38.7124083  11.8744966  31.6428266  37.6011511
  15.0334114  29.3144490  41.6499915  15.0555811  29.3783823  40.6951895
  15.4502173  28.4748999  41.8440421  25.4117738  39.0499750  39.6879138
  25.8548884  38.3007075  39.2898261  24.5344248  39.0409886  39.3052870
  20.5453519  45.6030091  35.1685736  21.2404424  46.2236784  35.3873051
  20.8876670  44.7525443  35.4438114   6.1621329  37.4247892  49.0282553
   5.4203065  37.5730528  49.6147184   5.8414073  37.6856158  48.1649303
  22.4444943  43.0529797  36.6973067  22.9696267  43.3917070  35.9722387
  22.3567295  42.1176812  36.5136201  14.1064991  46.9663870  48.8262943
  14.4152118  46.7213017  49.6985643  14.9040473  47.1710509  48.3381814
  14.1285603  49.1201780  41.0568320  13.6890594  48.6278159  41.7501177
  14.8793720  48.5774748  40.8160395   6.6077942  45.3113321  41.0592948
   7.4335962  45.0117093  40.6791592   6.2571994  44.5420943  41.5082737
  11.5759475  44.6639789  43.1290622  10.9539485  44.0010494  42.8292850
  12.2464342  44.6900921  42.4464269   4.8086547  43.2299647  42.0181882
   3.9718456  42.8021822  41.8365883   4.7810193  43.4232091  42.9552673
  11.6484003  33.1421577  52.7223128  11.6972158  34.0183700  52.3400897
  12.1906517  32.5998970  52.1494771  22.1338849  43.6862700  52.0024265
  21.3434392  43.6686839  51.4628764  21.8972203  44.2250994  52.7573301
  22.2536724  40.5355167  49.3156993  22.3034729  40.3705174  50.2572516
  22.1450647  39.6682426  48.9254874  11.1372982  43.2143713  36.6049082
  11.2861103  43.8979177  35.9515755  11.9439426  43.1948803  37.1198538
  19.5440486  36.5186095  50.6316300  20.4450349  36.3792560  50.3400298
  19.6188461  36.6840550  51.5714478  13.8783291  33.8952950  49.4769486
  13.0086601  34.1886516  49.2052075  14.1142772  34.4793395  50.1976750
  23.7554921  42.9552108  49.5599015  23.4639729  43.3182089  50.3962476
  23.1427052  42.2419117  49.3812347  24.9550603  40.5204988  42.0801585
  25.7897494  40.9594792  42.2439145  25.0909732  40.0443641  41.2609831
  22.0042109  38.0784723  48.0279073  22.4796230  38.2712369  47.2197924
  21.0807674  38.1343909  47.7822457   8.8925615  39.2408890  37.6110151
   8.6471657  38.3371220  37.8090361   9.0621530  39.2426041  36.6689629
  16.5822325  30.1132567  46.9934907  17.1004269  30.8493593  46.6681395
  16.2277458  30.4196560  47.8281666   8.1621263  34.9737248  35.1096313
   7.4690508  35.0481603  34.4536349   7.9173015  34.2097591  35.6317830
  16.8334919  26.5332849  42.5135803  17.1136673  25.8656038  43.1396230
  17.6185526  26.7261945  42.0010467  14.6368388  45.7091843  34.0760830
  14.0642355  46.3282030  33.6231302  15.2101182  46.2591205  34.6100752
  20.7043778  34.9550483  46.2607378  21.6561201  35.0548581  46.2819603
  20.5347228  34.1628752  46.7705463  18.7258157  32.0406066  46.4466779
  18.1308089  32.3211079  45.7513268  18.4407854  32.5299967  47.2183521
  17.8565648  45.9928993  35.2069412  18.7896321  45.9274555  35.4102287
  17.7688861  46.8285260  34.7483945  20.4853664  45.3094863  32.1673360
  20.4067296  44.9754727  33.0609117  21.3063331  45.8016631  32.1664832
  23.1831856  38.1756603  45.3749678  23.1508176  37.2372604  45.5609362
  23.7932479  38.2540639  44.6415503  15.0215186  37.0452656  31.4176882
  15.9674291  36.9158864  31.4865300  14.6429431  36.3067318  31.8946310
  23.3326344  34.9667646  45.4207961  22.8165393  34.1826103  45.2337890
  24.2166293  34.6386363  45.5854481  20.9937071  28.7108662  41.3803774
  20.7961892  28.4023750  42.2647106  21.6036777  29.4370301  41.5101704
  29.0008405  39.2372610  44.5155715  29.7311794  38.9757898  45.0763418
  28.3915351  38.5001332  44.5557783  27.0823703  37.3780472  45.1130166
  26.3556866  37.2436437  44.5046658  26.6670989  37.6857301  45.9186884
  14.9053879  41.0970402  52.8777539  15.8256888  41.2749001  53.0717586
  14.8703462  40.1526447  52.7257238  13.2058104  34.9702632  31.3531767
  12.2989559  34.6735745  31.4294481  13.4834085  34.6732450  30.4866054
   4.1236044  36.2908996  41.8030814   3.8038828  35.4374304  41.5105188
   3.5769472  36.5057574  42.5588781   7.9015951  39.0071437  45.5200320
   8.1201961  39.9388544  45.5388354   8.3141725  38.6479411  46.3055124
  14.8220169  29.5139522  37.5076009  14.0120898  29.1686607  37.8831255
  15.5104586  29.2047066  38.0963620  16.7510718  28.5917569  39.1300305
  17.3041756  29.0113022  39.7890328  16.9880804  27.6653317  39.1723261
  12.7743817  34.5804642  54.9103069  12.6740544  35.5298999  54.8415160
  12.5565359  34.2522881  54.0379139  11.9756888  31.8289567  31.4943747
  12.8376052  32.1544466  31.7539564  12.1607232  31.0421063  30.9816812
   3.9924304  39.9111907  43.7723935   3.2987775  39.4965860  43.2593890
   4.7397295  39.9532444  43.1757354  20.1289525  30.7018094  38.6378970
  19.5488194  31.3602898  38.2557022  19.8625457  29.8795438  38.2266387
  18.5793091  30.1023152  40.8400290  19.0792869  30.2139686  40.0314609
  19.2228699  29.7984204  41.4801098  12.6375087  38.0101781  53.7268131
  12.1542169  38.8102141  53.9332020  12.7236026  38.0209726  52.7735575
   5.9061046  39.8430161  41.6489950   5.8831735  39.9417848  40.6971833
   6.2161683  40.6895312  41.9707116   8.5648424  41.9006316  45.7636565
   9.5191678  41.8690258  45.6966496   8.3660948  41.4396940  46.5786791
   9.1547806  40.4707432  48.3307362   9.9740695  40.9651511  48.3542200
   9.4284614  39.5539400  48.3024930  18.9114403  32.8618184  37.6935318
  18.0240258  33.1467835  37.4755513  19.3268392  32.7011948  36.8462595
  22.2628939  32.8864705  41.4089657  23.0389329  33.3761158  41.6814274
  21.5377073  33.3122759  41.8661527  24.7001497  33.5992324  42.4663598
  25.2945988  33.3588060  41.7556906  24.7728081  32.8799455  43.0937134
   6.9198653  47.4425935  42.7806763   6.7853121  46.6826336  42.2144761
   6.5030715  48.1666835  42.3135551  18.0557616  42.6262859  31.7883338
  18.7593466  42.8312861  32.4040993  17.3320265  43.1939621  32.0532421
  18.8855426  38.3772720  37.9085608  18.8290628  38.8341272  37.0693240
  19.4383769  37.6163405  37.7308451  22.6960232  34.1662452  38.7335728
  22.4397167  33.7659088  39.5643935  22.0713100  34.8806246  38.6085867
  27.0072570  36.9058525  41.2407019  26.4472128  36.9751715  42.0138581
  26.4016074  36.7299510  40.5206515  10.0767779  48.3395252  42.9925205
   9.9600163  49.2840685  42.8903895   9.2560225  48.0368814  43.3811004
  19.9644314  43.0645388  33.8381798  20.7989917  42.6326587  33.6559273
  19.8028656  42.8927402  34.7658692  19.6190206  39.5677501  35.2038137
  19.5639010  39.4021773  34.2626581  18.9936261  40.2753534  35.3600327
   4.4082721  34.8045566  49.0299559   5.0541584  34.2944520  49.5186785
   4.1999872  35.5414247  49.6042985  16.9336113  41.8726413  54.5291700
  17.8027273  42.0467066  54.1678335  16.4542864  42.6920830  54.4067429
  12.9286331  29.0685610  34.7823456  12.9165001  30.0127450  34.9391726
  13.8209753  28.8855756  34.4882917  11.1022293  48.9923514  46.2081134
  12.0049540  49.0247125  46.5247629  10.8759663  48.0623965  46.2227469
  12.8575895  47.7454501  42.8691212  11.9071526  47.7456362  42.7555585
  13.1608381  46.9987235  42.3527247  16.7438451  25.6628387  39.0369392
  15.9770846  25.1086874  39.1826075  17.1549156  25.7350256  39.8983544
   8.7480212  31.9513183  53.1274574   9.6111673  31.5949988  53.3377898
   8.1745622  31.6127078  53.8149978  28.5928589  53.5815039  43.9336975
  29.2306999  53.4621787  43.2300315  28.4749432  54.5295883  43.9924927
  25.4018295  53.5342467  43.8698499  25.0636806  53.4183532  42.9819034
  26.2708063  53.1333632  43.8499505  21.2605111  55.3877944  39.8595390
  20.6969976  55.2967881  39.0911678  21.1457506  54.5677848  40.3397883
  25.8838078  54.6877319  49.8284705  25.8726719  54.2930117  48.9565209
  26.0458717  53.9543392  50.4218476  18.8069543  56.8829135  42.6979611
  19.5990834  56.5419960  42.2825910  19.0466193  56.9924110  43.6181764
  26.8404669  59.0548911  35.1709855  26.1892649  59.6402992  34.7843869
  27.6349032  59.5855106  35.2304893  20.7660296  56.1438049  35.5696990
  21.5391172  55.5967036  35.4309865  21.1185695  57.0082298  35.7811451
  22.6045339  57.4714431  48.7763889  22.3135205  58.3760062  48.6610555
  23.2402323  57.5130958  49.4907958  23.5301546  54.8491279  45.3665249
  24.1265118  54.6247302  44.6522211  23.5876517  54.1076025  45.9690696
  23.1026574  52.3030715  33.2015439  23.3552095  51.7812236  32.4398902
  22.1651133  52.1396860  33.3042123  28.1469857  51.3066493  41.0090183
  28.9332946  50.8885916  40.6580600  28.4108561  52.2112585  41.1771831
  28.3179934  56.7439343  35.7078840  27.6825767  56.8173970  36.4199744
  27.9877341  57.3332942  35.0297919  33.5478284  51.2441726  41.9123161
  34.2803456  50.6740943  42.1460991  32.7917640  50.8563327  42.3529667
  22.8222863  54.2058821  35.4039814  22.7059121  53.5303724  36.0720899
  22.9325123  53.7191195  34.5871967  25.1654404  53.6668968  39.1086504
  24.8012611  53.1399589  39.8199425  26.0221520  53.2767437  38.9352989
  31.0703705  44.9563300  46.3717770  30.7387029  45.8258711  46.1478985
  30.4749318  44.6399584  47.0511800  24.8059891  48.6958867  34.1047852
  24.9734293  49.5639104  34.4718323  24.6157060  48.8586149  33.1809141
  27.5635224  57.1575846  45.7713683  27.2635947  58.0600885  45.6629490
  27.2186284  56.8908030  46.6234835  21.0147706  53.6089643  41.8050387
  20.0898202  53.4765857  42.0128079  21.2632119  54.3883862  42.3020329
  30.9632368  49.6758387  43.4511120  30.0549245  49.6073795  43.1569881
  30.9119964  50.1530331  44.2792945  24.7849112  51.1516525  35.0894519
  24.6648737  51.5973576  35.9279999  24.0901700  51.5001843  34.5308057
  18.3756517  53.2522917  42.6394176  18.5048898  53.5057396  43.5533588
  17.6953968  53.8450625  42.3198831  22.5456004  63.9220167  38.7384650
  22.4680034  64.8727992  38.8173131  21.9417648  63.5766039  39.3959577
  25.0373234  51.0948032  51.3946017  24.2606568  51.6541952  51.3848882
  25.6763797  51.5804815  51.9160887  32.8294014  47.8774825  45.2288994
  32.1868395  48.1707358  44.5828788  32.3248943  47.7627745  46.0342190
  30.4834178  51.6237998  35.9174853  31.3952034  51.8565385  35.7422551
  29.9743825  52.2075042  35.3549932  23.2919606  53.9033485  50.9563984
  24.0334290  54.4418529  50.6798808  22.5856591  54.5299774  51.1135536
  28.7674946  56.0462626  49.5536146  29.1758302  55.6045036  48.8090778
  28.0452207  55.4715253  49.8070339  25.1206016  50.9835233  46.9269703
  25.9667211  51.4074646  47.0704352  25.0604653  50.3268857  47.6208266
  29.0903760  56.6063817  43.3088435  28.4612623  56.7709531  42.6064502
  28.7029422  57.0205426  44.0799399  32.9692992  57.5418254  40.6632798
  32.2844030  57.9217156  40.1129832  33.0536842  58.1513581  41.3964746
  28.2705461  48.6439601  48.5850876  28.0266393  49.3981662  48.0485152
  28.5465392  49.0224949  49.4198123  30.2243924  55.1878213  47.2628142
  30.4360819  55.8309973  46.5862523  30.1773672  54.3540530  46.7950072
  27.8270153  47.7996034  44.1664714  26.9654632  48.0977288  44.4581452
  27.8532587  48.0166433  43.2345747  24.6431722  56.3438225  40.5738520
  25.1070068  56.6225928  39.7843142  24.3788520  55.4421669  40.3911610
  21.5355803  55.8909706  43.5118283  22.1057160  56.3196975  42.8735767
  22.1263915  55.6092291  44.2102469  23.5800608  52.4661377  37.3828085
  24.2824652  52.9182421  37.8502011  23.2481237  51.8245196  38.0107978
  22.0280970  51.0573134  51.7579294  21.3979630  51.7389415  51.9914691
  21.9217058  50.9456215  50.8132432  17.3225942  50.7244930  42.6845218
  16.5324996  50.9802458  42.2085329  17.8137190  51.5393268  42.7897259
  31.3389752  58.0650169  45.4350499  32.1607195  57.6630356  45.1533181
  31.3352155  57.9618403  46.3866615  19.2740688  51.0889509  39.6428695
  18.4771851  51.2008203  40.1612191  19.0466280  51.4276161  38.7769586
  25.1046355  57.6134212  47.5911210  25.1690788  58.0754619  48.4269381
  24.3957279  56.9831577  47.7193519  15.6063645  50.9775420  45.1160209
  15.8571684  51.8622430  45.3817785  16.1423194  50.7980022  44.3435301
  39.4295745  54.4088917  41.7835471  38.6759453  53.8396315  41.6279475
  39.5643286  54.3751582  42.7306105  24.8194373  59.2802320  37.4590190
  24.6840048  60.1253855  37.8875038  25.3604185  59.4821597  36.6956124
  21.3061712  45.3593899  54.1204545  20.9128658  44.8060098  54.7952189
  22.1227853  45.6704478  54.5111063  18.2723770  56.7977758  38.0318115
  18.7848291  57.5921008  38.1823680  18.9246483  56.1004048  37.9651717
  20.0818655  59.9143514  40.1140868  20.2585283  60.8361479  39.9261852
  20.8775488  59.6001933  40.5435248  24.2229673  46.7751779  51.7124802
  24.9639387  47.3758932  51.6329264  24.4547596  46.0329416  51.1542844
  19.3671011  51.9608146  49.9903031  19.2524527  51.0593403  50.2910130
  18.5115529  52.2071843  49.6387848  26.4462849  59.9025886  51.5890532
  26.0026703  59.1162265  51.2711437  27.1080063  60.0905037  50.9234423
  21.2049970  61.4321688  46.1151211  21.7557396  61.3038751  45.3428204
  20.3661446  61.7316577  45.7646103  28.5444087  60.1828686  49.6171933
  28.5262563  61.0037567  49.1252202  29.4664007  60.0582761  49.8422074
  25.0017141  57.6972816  50.4595442  25.5345478  56.9361104  50.2294750
  24.4731223  57.4046467  51.2019596  28.1686836  42.8032882  45.9889083
  27.8251106  43.6934523  45.9128194  28.5365799  42.6134539  45.1258668
  16.2372687  55.1266412  38.8077686  17.0747909  55.5363420  38.5911393
  16.4150955  54.1865854  38.7777879  28.1337119  52.7941493  34.4961519
  27.6183743  53.5646097  34.7349906  27.8614428  52.1206629  35.1194580
  25.7184230  47.6391193  39.5546757  24.8625827  47.2498044  39.3752396
  26.1311182  47.7183154  38.6946542  27.2483377  45.1737537  43.9538317
  26.7448172  45.1367672  43.1406122  27.5413984  46.0830279  44.0134973
  23.4926263  45.2576266  42.9604498  24.3579259  45.0619075  42.6010388
  23.5603772  45.0286618  43.8873855  33.1071393  55.5473847  36.4314692
  32.3300836  55.2085007  35.9869854  33.7862874  55.5526470  35.7569657
  27.9223422  50.6668585  36.3221300  27.6173558  50.9814734  37.1731443
  28.8753864  50.7450005  36.3648633  26.3669854  56.8258808  37.9714254
  25.8391216  56.0911568  37.6587491  25.8657357  57.6033484  37.7254222
  31.3462700  55.0207829  43.0881300  30.6886375  55.7107090  43.1761429
  32.1503099  55.4104260  43.4315286  21.0988582  47.4878474  40.3320865
  21.6732334  47.2653656  39.5994058  21.6859564  47.5567169  41.0849467
  30.1568159  53.3752201  41.1385242  30.6700041  54.0082193  41.6406951
  30.8069383  52.7753397  40.7728602  21.4258169  49.5182935  34.3516750
  20.5895481  49.8557622  34.6726025  21.2862939  49.3831915  33.4143887
  23.4011249  44.3619723  39.0595935  22.7475662  44.0468740  38.4352549
  23.3591724  43.7395464  39.7855758  24.5122454  54.6439018  30.9749227
  23.6049516  54.4128272  31.1740376  25.0093486  53.8476638  31.1623208
  27.4190533  63.3536525  33.8945913  26.7452232  63.6568222  34.5030871
  27.8056355  64.1565606  33.5451370  26.6348990  50.8501657  43.3843582
  25.7171551  51.0716604  43.2265270  27.0509133  50.9247967  42.5255290
  27.4184038  52.2493072  38.5146263  28.1655857  52.7614470  38.2053385
  27.6875627  51.9277125  39.3750656  25.6910688  54.7451613  35.4973217
  24.7821907  54.4610646  35.5945687  25.7205772  55.1650692  34.6376524
  30.9229955  58.3558203  39.2664384  30.4692282  57.5149113  39.3229575
  30.2923922  58.9919601  39.6039165  29.8662875  49.2850189  40.4965052
  29.1285632  48.7727575  40.8275294  30.1189648  48.8450570  39.6848329
  29.3662894  60.1934699  40.2014203  29.6585869  60.7539756  39.4826568
  29.8761515  60.4863260  40.9567362  29.9674502  42.0626441  41.0906821
  30.2733379  41.2023804  40.8032736  30.6927107  42.6544061  40.8905815
  16.2598858  52.4657127  39.4788419  16.0623258  51.8726488  38.7539486
  15.7045522  52.1609337  40.1964358  24.2395582  52.3580234  41.5983012
  24.2944192  51.4054070  41.5225489  23.4286784  52.5139673  42.0824311
  25.3886776  56.2860357  32.8361295  24.9506206  55.5696216  32.3766933
  26.1297216  56.5136472  32.2746387  22.1787942  50.9757294  39.3573391
  21.3655807  51.2751464  39.7638583  22.6746936  50.5812982  40.0747873
  24.3296520  60.9715050  41.2907656  24.2872698  61.1975897  40.3616188
  25.2459218  60.7378425  41.4393457  27.7762153  51.4399118  48.1888285
  28.1311541  51.6670591  49.0482751  28.4234285  51.7717495  47.5665540
  33.5059890  54.5617554  38.8937614  33.3677789  54.7519150  37.9658803
  33.1496109  55.3236937  39.3505665  21.6702016  48.5475649  44.9734626
  22.3101396  48.4064408  44.2757589  20.8379547  48.2610162  44.5973228
  33.5329270  56.6294081  43.9048885  33.9665777  56.5369370  44.7531940
  34.2460851  56.6051581  43.2668901  22.4462320  57.8478079  41.0869618
  23.2402919  57.3528400  40.8852193  21.7354013  57.3195943  40.7237324
  27.2657165  60.2296175  45.4381986  27.3194187  60.7987111  46.2059702
  26.3971946  60.3998060  45.0736023  18.7545084  51.9921161  37.1629371
  17.8242672  51.9305617  37.3799333  18.8502556  51.4697114  36.3666012
  18.6730633  48.5175974  39.7507613  18.9337450  49.4321307  39.6416773
  19.4947805  48.0500417  39.9004226  20.1455558  49.9313731  46.9206437
  20.8178612  49.7231093  46.2719086  19.3185345  49.7335817  46.4811670
  34.3944820  56.6717782  46.4381771  34.5880710  57.5763592  46.6841046
  34.2945438  56.2125201  47.2720356  26.0481130  46.5575672  48.9372098
  25.4009045  47.2565622  48.8436575  26.8182146  46.9911816  49.3048346
  29.4559928  56.8224524  52.0122651  29.3045435  56.5935076  51.0952735
  29.4464608  57.7795126  52.0253996  26.2245265  54.3956437  46.9968918
  27.1537325  54.5467597  46.8237885  25.8036295  54.4840458  46.1417564
  25.0233596  58.4207101  44.7667456  24.8844682  58.0525886  45.6393394
  24.2348193  58.9354741  44.5951413  25.6181748  63.5216198  36.1092992
  25.7933504  63.0504241  36.9238615  24.9314536  64.1481964  36.3374253
  26.5738812  57.7988704  42.1556293  26.2388644  57.7589474  43.0513943
  26.0742757  57.1333420  41.6826704  20.5483056  53.2056334  47.6808874
  20.4102853  52.4736573  48.2820414  21.4587979  53.1165234  47.3993062
  29.5098003  55.1444738  32.4293353  28.8927174  54.4191567  32.3326406
  29.0414492  55.9054099  32.0860427  23.1765356  52.9176294  47.1692554
  23.8864975  52.2769486  47.1279173  23.1334664  53.1689188  48.0918735
  31.1652135  59.8543647  50.0899133  31.1064681  59.1702867  49.4229716
  31.5671653  60.5962637  49.6379759  21.8894290  49.9041511  48.9888194
  21.3531647  49.4532250  49.6409790  21.3010999  50.0387420  48.2458658
  20.1842834  66.6705561  42.8832852  20.4239432  67.3024085  43.5611871
  19.3412030  66.3193601  43.1698212  21.2996549  49.3630163  31.5514657
  20.4226015  49.2418964  31.1876904  21.7754302  48.5716241  31.2993546
  31.1669542  57.8183231  48.3213113  30.2796321  57.4809153  48.4439512
  31.7368093  57.0866262  48.5581878  12.8198689  54.1507323  41.6456164
  13.5069729  53.8369053  41.0577180  12.6646818  55.0548687  41.3723416
  17.6233411  49.0397519  46.0741188  17.5391600  48.4323189  45.3391598
  16.8016118  49.5306537  46.0750684  24.6970696  62.4784683  45.2874356
  24.6240867  63.2839655  45.7993661  24.2548089  62.6776649  44.4622378
  24.4860475  61.7156453  38.7977178  23.7027997  62.2578133  38.8915402
  25.1853220  62.2330433  39.1971419  27.7957125  47.5251083  41.4411383
  28.2925825  46.7721045  41.1212453  27.0244107  47.5615399  40.8754592
  35.6486883  53.2291448  43.0829675  35.6376759  54.1116164  42.7123608
  34.7804262  52.8762999  42.8884212  27.1569379  62.3771517  47.4432515
  27.8697351  63.0118982  47.3708416  26.6659408  62.4735383  46.6272517
  28.8786906  56.2822770  39.0149807  27.9443185  56.4024232  38.8454511
  29.0563574  55.3795237  38.7509816  24.3792094  49.6668466  41.1683068
  24.0089882  49.1139506  41.8563973  24.8751186  49.0626599  40.6158068
  32.2659457  52.1240089  39.5499841  32.7319909  52.9568081  39.4760143
  32.7166958  51.6585071  40.2545099  22.2081293  60.1265961  48.2638086
  22.9090752  60.7602444  48.4167480  21.7376408  60.4680692  47.5033725
  30.3335688  58.4683910  36.5485993  30.6095532  58.3540505  37.4579867
  29.4640187  58.0701395  36.5098166  30.2376120  44.4920676  43.5890742
  29.3239200  44.7224903  43.7572949  30.6669222  44.5759120  44.4404774
  30.0082579  52.6810568  46.0890636  29.3554029  52.9286476  45.4343089
  30.3862958  51.8674706  45.7553113  26.9689752  62.7170261  40.1918806
  27.1512147  61.8991917  40.6546559  27.7922738  62.9337954  39.7543696
  27.3031918  61.6438446  37.4533855  27.8319684  61.1330901  36.8404017
  27.5660137  61.3280977  38.3179388  26.0570152  53.4230379  52.5756673
  25.3810789  53.3224508  53.2459048  26.8797785  53.2669593  53.0392670
  17.8049011  59.6602316  45.1969188  18.3902447  58.9146004  45.3297093
  17.6073849  59.9706272  46.0805852  20.6587666  62.6953563  40.2131631
  19.9898041  63.1799691  39.7295671  20.5200536  62.9422784  41.1275009
  12.3966665  52.2307916  43.9173632  12.4350765  51.6971507  44.7110750
  11.8906958  51.7043121  43.2984609  24.7992934  64.7297307  46.8114289
  25.3511242  64.8928928  47.5763374  25.1399128  65.3201744  46.1394314
  19.7757428  47.0772456  47.4136174  19.8398754  47.9387287  47.0013572
  19.7124548  46.4646458  46.6808532  19.2509700  49.1495589  51.0609208
  19.8781739  48.7672666  51.6746732  18.3937619  48.9309791  51.4264901
  29.6503809  59.5558564  52.6662944  30.1943713  60.1688522  52.1717898
  29.0690654  60.1138142  53.1829957  16.0275243  50.9572018  36.9927563
  16.3228684  50.0482696  36.9394617  15.1263279  50.9359757  36.6708565
  27.9361322  62.6779282  43.7977971  27.8112461  61.8769022  43.2888917
  28.5940413  63.1725475  43.3091941  19.5569490  49.0328015  42.9755112
  18.8356076  49.6463982  42.8362585  20.3462746  49.5685779  42.8971757
  29.9996230  60.4788302  45.4257521  29.0526566  60.3593653  45.3535848
  30.3479003  59.5910800  45.5083783  22.3595803  46.3682441  49.2495763
  22.8830205  46.6144738  50.0122073  22.1408137  47.2002476  48.8298901
  17.7563085  48.6386116  37.1166888  17.4275791  47.7583495  36.9341994
  18.1102455  48.5833784  38.0043277  27.0042663  60.2741018  41.6261874
  26.8567626  59.3457726  41.8069444  27.8296157  60.2961109  41.1418949
  20.8704908  48.9259085  37.4842366  21.2100980  49.4545007  36.7620974
  21.3177028  49.2639492  38.2600932  30.6076785  61.0969577  42.7126746
  31.5323333  60.8912438  42.5751198  30.4392089  60.8485978  43.6216088
  23.5648349  47.3096136  46.9345434  23.2245169  46.5103949  47.3366114
  22.8587355  47.6097847  46.3622267  24.2164820  44.3945449  45.3872757
  25.0390890  43.9205927  45.2651647  24.4602884  45.1735932  45.8871443
  22.8573055  47.4233707  35.6835659  23.5781417  47.8014960  35.1799375
  22.2338359  48.1422584  35.7870636  27.0004178  48.1278856  36.6193991
  27.2167792  49.0103494  36.3182819  26.5198245  47.7365069  35.8899633
  21.7403399  51.0864569  43.1964735  21.5947980  51.4004872  44.0889017
  21.2628603  51.7049470  42.6435634  23.5999782  48.0767117  43.2445625
  23.5861351  47.1808211  42.9077923  24.3172210  48.0837781  43.8783911
  25.4525913  48.5104457  45.2898752  25.1943691  49.4321528  45.2883083
  24.9210953  48.1134892  45.9799217  30.3972101  61.6155245  38.0688838
  30.5708979  61.0501667  37.3162690  30.8900993  62.4156139  37.8868328
  16.2149061  53.6269914  46.1352397  15.6702529  54.4029722  46.2672671
  17.0928411  53.9740718  45.9771518  23.0036678  46.9581498  38.5133195
  23.1252589  46.0298144  38.7124083  22.7138720  46.9720184  37.6011511
  25.8727868  44.6436408  41.6499915  25.8949565  44.7075741  40.6951895
  26.2895927  43.8040917  41.8440421  36.2511493  54.3791668  39.6879138
  36.6942639  53.6298993  39.2898261  35.3738003  54.3701804  39.3052870
  31.3847274  60.9322009  35.1685736  32.0798179  61.5528702  35.3873051
  31.7270424  60.0817360  35.4438114  17.0015083  52.7539810  49.0282553
  16.2596819  52.9022445  49.6147184  16.6807827  53.0148076  48.1649303
  33.2838697  58.3821715  36.6973067  33.8090021  58.7208987  35.9722387
  33.1961050  57.4468730  36.5136201  24.9458746  62.2955788  48.8262943
  25.2545872  62.0504935  49.6985643  25.7434228  62.5002427  48.3381814
  24.9679358  64.4493698  41.0568320  24.5284348  63.9570076  41.7501177
  25.7187475  63.9066665  40.8160395  17.4471697  60.6405239  41.0592948
  18.2729717  60.3409011  40.6791592  17.0965749  59.8712861  41.5082737
  22.4153230  59.9931707  43.1290622  21.7933239  59.3302412  42.8292850
  23.0858097  60.0192839  42.4464269  15.6480302  58.5591565  42.0181882
  14.8112210  58.1313739  41.8365883  15.6203947  58.7524008  42.9552673
  22.4877757  48.4713495  52.7223128  22.5365913  49.3475618  52.3400897
  23.0300272  47.9290888  52.1494771  32.9732603  59.0154618  52.0024265
  32.1828147  58.9978757  51.4628764  32.7365958  59.5542912  52.7573301
  33.0930478  55.8647085  49.3156993  33.1428483  55.6997092  50.2572516
  32.9844402  54.9974344  48.9254874  21.9766737  58.5435630  36.6049082
  22.1254857  59.2271095  35.9515755  22.7833180  58.5240720  37.1198538
  30.3834241  51.8478013  50.6316300  31.2844103  51.7084477  50.3400298
  30.4582215  52.0132467  51.5714478  24.7177046  49.2244867  49.4769486
  23.8480355  49.5178433  49.2052075  24.9536526  49.8085312  50.1976750
  34.5948675  58.2844026  49.5599015  34.3033483  58.6474007  50.3962476
  33.9820806  57.5711034  49.3812347  35.7944357  55.8496906  42.0801585
  36.6291249  56.2886710  42.2439145  35.9303486  55.3735559  41.2609831
  32.8435863  53.4076641  48.0279073  33.3189985  53.6004287  47.2197924
  31.9201429  53.4635827  47.7822457  19.7319370  54.5700808  37.6110151
  19.4865412  53.6663138  37.8090361  19.9015284  54.5717958  36.6689629
  27.4216080  45.4424484  46.9934907  27.9398024  46.1785511  46.6681395
  27.0671213  45.7488478  47.8281666  19.0015017  50.3029165  35.1096313
  18.3084262  50.3773520  34.4536349  18.7566769  49.5389509  35.6317830
  27.6728674  41.8624767  42.5135803  27.9530428  41.1947956  43.1396230
  28.4579281  42.0553862  42.0010467  25.4762142  61.0383761  34.0760830
  24.9036109  61.6573948  33.6231302  26.0494936  61.5883122  34.6100752
  31.5437532  50.2842401  46.2607378  32.4954955  50.3840498  46.2819603
  31.3740983  49.4920669  46.7705463  29.5651912  47.3697984  46.4466779
  28.9701844  47.6502997  45.7513268  29.2801608  47.8591885  47.2183521
  28.6959402  61.3220911  35.2069412  29.6290075  61.2566472  35.4102287
  28.6082615  62.1577178  34.7483945  31.3247419  60.6386781  32.1673360
  31.2461050  60.3046645  33.0609117  32.1457086  61.1308549  32.1664832
  34.0225610  53.5048520  45.3749678  33.9901930  52.5664521  45.5609362
  34.6326234  53.5832557  44.6415503  25.8608941  52.3744573  31.4176882
  26.8068046  52.2450782  31.4865300  25.4823186  51.6359235  31.8946310
  34.1720099  50.2959564  45.4207961  33.6559147  49.5118021  45.2337890
  35.0560047  49.9678281  45.5854481  31.8330825  44.0400579  41.3803774
  31.6355647  43.7315668  42.2647106  32.4430531  44.7662218  41.5101704
  39.8402160  54.5664527  44.5155715  40.5705548  54.3049815  45.0763418
  39.2309105  53.8293249  44.5557783  37.9217457  52.7072390  45.1130166
  37.1950621  52.5728355  44.5046658  37.5064744  53.0149218  45.9186884
  25.7447633  56.4262320  52.8777539  26.6650643  56.6040919  53.0717586
  25.7097216  55.4818365  52.7257238  24.0451858  50.2994550  31.3531767
  23.1383313  50.0027663  31.4294481  24.3227839  50.0024368  30.4866054
  14.9629798  51.6200913  41.8030814  14.6432583  50.7666221  41.5105188
  14.4163227  51.8349491  42.5588781  18.7409706  54.3363354  45.5200320
  18.9595716  55.2680462  45.5388354  19.1535480  53.9771329  46.3055124
  25.6613924  44.8431440  37.5076009  24.8514652  44.4978525  37.8831255
  26.3498341  44.5338983  38.0963620  27.5904472  43.9209486  39.1300305
  28.1435511  44.3404940  39.7890328  27.8274558  42.9945234  39.1723261
  23.6137571  49.9096560  54.9103069  23.5134298  50.8590917  54.8415160
  23.3959113  49.5814799  54.0379139  22.8150643  47.1581485  31.4943747
  23.6769807  47.4836383  31.7539564  23.0000987  46.3712981  30.9816812
  14.8318058  55.2403825  43.7723935  14.1381530  54.8257778  43.2593890
  15.5791049  55.2824361  43.1757354  30.9683279  46.0310011  38.6378970
  30.3881948  46.6894816  38.2557022  30.7019212  45.2087356  38.2266387
  29.4186846  45.4315069  40.8400290  29.9186624  45.5431604  40.0314609
  30.0622453  45.1276122  41.4801098  23.4768841  53.3393699  53.7268131
  22.9935923  54.1394059  53.9332020  23.5629780  53.3501644  52.7735575
  16.7454801  55.1722079  41.6489950  16.7225489  55.2709766  40.6971833
  17.0555437  56.0187229  41.9707116  19.4042179  57.2298234  45.7636565
  20.3585432  57.1982176  45.6966496  19.2054702  56.7688857  46.5786791
  19.9941561  55.7999350  48.3307362  20.8134450  56.2943428  48.3542200
  20.2678369  54.8831318  48.3024930  29.7508157  48.1910102  37.6935318
  28.8634012  48.4759753  37.4755513  30.1662146  48.0303865  36.8462595
  33.1022693  48.2156623  41.4089657  33.8783083  48.7053075  41.6814274
  32.3770827  48.6414677  41.8661527  35.5395252  48.9284242  42.4663598
  36.1339743  48.6879978  41.7556906  35.6121836  48.2091373  43.0937134
  17.7592408  62.7717853  42.7806763  17.6246876  62.0118254  42.2144761
  17.3424470  63.4958753  42.3135551  28.8951371  57.9554777  31.7883338
  29.5987221  58.1604779  32.4040993  28.1714019  58.5231538  32.0532421
  29.7249181  53.7064638  37.9085608  29.6684382  54.1633189  37.0693240
  30.2777523  52.9455322  37.7308451  33.5353987  49.4954370  38.7335728
  33.2790921  49.0951005  39.5643935  32.9106855  50.2098164  38.6085867
  37.8466325  52.2350443  41.2407019  37.2865883  52.3043632  42.0138581
  37.2409828  52.0591428  40.5206515  20.9161533  63.6687170  42.9925205
  20.7993918  64.6132603  42.8903895  20.0953980  63.3660732  43.3811004
  30.8038068  58.3937306  33.8381798  31.6383672  57.9618504  33.6559273
  30.6422411  58.2219319  34.7658692  30.4583960  54.8969419  35.2038137
  30.4032764  54.7313690  34.2626581  29.8330015  55.6045452  35.3600327
  15.2476475  50.1337483  49.0299559  15.8935339  49.6236437  49.5186785
  15.0393626  50.8706165  49.6042985  27.7729867  57.2018331  54.5291700
  28.6421027  57.3758983  54.1678335  27.2936619  58.0212748  54.4067429
  23.7680086  44.3977528  34.7823456  23.7558756  45.3419368  34.9391726
  24.6603508  44.2147673  34.4882917  21.9416048  64.3215432  46.2081134
  22.8443294  64.3539042  46.5247629  21.7153418  63.3915883  46.2227469
  23.6969650  63.0746418  42.8691212  22.7465281  63.0748280  42.7555585
  24.0002136  62.3279153  42.3527247  27.5832205  40.9920305  39.0369392
  26.8164601  40.4378791  39.1826075  27.9942910  41.0642173  39.8983544
  19.5873966  47.2805101  53.1274574  20.4505428  46.9241905  53.3377898
  19.0139377  46.9418995  53.8149978  39.4322343  68.9106957  43.9336975
  40.0700753  68.7913704  43.2300315  39.3143186  69.8587801  43.9924927
  36.2412049  68.8634385  43.8698499  35.9030561  68.7475450  42.9819034
  37.1101818  68.4625550  43.8499505  32.0998865  70.7169861  39.8595390
  31.5363730  70.6259798  39.0911678  31.9851260  69.8969766  40.3397883
  36.7231832  70.0169237  49.8284705  36.7120473  69.6222035  48.9565209
  36.8852472  69.2835309  50.4218476  29.6463297  72.2121053  42.6979611
  30.4384589  71.8711878  42.2825910  29.8859947  72.3216028  43.6181764
  37.6798424  74.3840829  35.1709855  37.0286404  74.9694909  34.7843869
  38.4742787  74.9147024  35.2304893  31.6054051  71.4729966  35.5696990
  32.3784927  70.9258953  35.4309865  31.9579450  72.3374216  35.7811451
  33.4439094  72.8006348  48.7763889  33.1528960  73.7051979  48.6610555
  34.0796078  72.8422876  49.4907958  34.3695300  70.1783197  45.3665249
  34.9658873  69.9539219  44.6522211  34.4270272  69.4367942  45.9690696
  33.9420329  67.6322632  33.2015439  34.1945849  67.1104154  32.4398902
  33.0044888  67.4688778  33.3042123  38.9863612  66.6358411  41.0090183
  39.7726701  66.2177834  40.6580600  39.2502316  67.5404503  41.1771831
  39.1573689  72.0731261  35.7078840  38.5219522  72.1465888  36.4199744
  38.8271095  72.6624860  35.0297919  44.3872039  66.5733644  41.9123161
  45.1197211  66.0032861  42.1460991  43.6311394  66.1855244  42.3529667
  33.6616618  69.5350738  35.4039814  33.5452876  68.8595642  36.0720899
  33.7718877  69.0483112  34.5871967  36.0048158  68.9960885  39.1086504
  35.6406366  68.4691506  39.8199425  36.8615274  68.6059354  38.9352989
  41.9097459  60.2855218  46.3717770  41.5780784  61.1550629  46.1478985
  41.3143072  59.9691502  47.0511800  35.6453645  64.0250785  34.1047852
  35.8128048  64.8931022  34.4718323  35.4550815  64.1878067  33.1809141
  38.4028979  72.4867764  45.7713683  38.1029702  73.3892803  45.6629490
  38.0580038  72.2199947  46.6234835  31.8541460  68.9381561  41.8050387
  30.9291957  68.8057775  42.0128079  32.1025873  69.7175780  42.3020329
  41.8026122  65.0050304  43.4511120  40.8943000  64.9365713  43.1569881
  41.7513718  65.4822249  44.2792945  35.6242866  66.4808443  35.0894519
  35.5042492  66.9265493  35.9279999  34.9295455  66.8293760  34.5308057
  29.2150271  68.5814834  42.6394176  29.3442652  68.8349313  43.5533588
  28.5347722  69.1742542  42.3198831  33.3849758  79.2512084  38.7384650
  33.3073788  80.2019909  38.8173131  32.7811402  78.9057957  39.3959577
  35.8766988  66.4239950  51.3946017  35.1000322  66.9833870  51.3848882
  36.5157551  66.9096733  51.9160887  43.6687769  63.2066743  45.2288994
  43.0262149  63.4999276  44.5828788  43.1642697  63.0919663  46.0342190
  41.3227932  66.9529916  35.9174853  42.2345789  67.1857303  35.7422551
  40.8137580  67.5366960  35.3549932  34.1313361  69.2325403  50.9563984
  34.8728045  69.7710447  50.6798808  33.4250346  69.8591692  51.1135536
  39.6068700  71.3754544  49.5536146  40.0152056  70.9336954  48.8090778
  38.8845962  70.8007171  49.8070339  35.9599770  66.3127150  46.9269703
  36.8060965  66.7366564  47.0704352  35.8998408  65.6560775  47.6208266
  39.9297515  71.9355734  43.3088435  39.3006377  72.1001448  42.6064502
  39.5423177  72.3497344  44.0799399  43.8086747  72.8710172  40.6632798
  43.1237785  73.2509073  40.1129832  43.8930596  73.4805499  41.3964746
  39.1099216  63.9731519  48.5850876  38.8660147  64.7273579  48.0485152
  39.3859146  64.3516866  49.4198123  41.0637678  70.5170131  47.2628142
  41.2754574  71.1601891  46.5862523  41.0167427  69.6832448  46.7950072
  38.6663907  63.1287952  44.1664714  37.8048386  63.4269205  44.4581452
  38.6926342  63.3458351  43.2345747  35.4825477  71.6730142  40.5738520
  35.9463822  71.9517845  39.7843142  35.2182275  70.7713587  40.3911610
  32.3749558  71.2201624  43.5118283  32.9450915  71.6488892  42.8735767
  32.9657670  70.9384209  44.2102469  34.4194363  67.7953295  37.3828085
  35.1218406  68.2474338  37.8502011  34.0874991  67.1537114  38.0107978
  32.8674724  66.3865051  51.7579294  32.2373385  67.0681332  51.9914691
  32.7610812  66.2748133  50.8132432  28.1619697  66.0536847  42.6845218
  27.3718751  66.3094376  42.2085329  28.6530944  66.8685185  42.7897259
  42.1783506  73.3942087  45.4350499  43.0000950  72.9922274  45.1533181
  42.1745909  73.2910321  46.3866615  30.1134442  66.4181427  39.6428695
  29.3165605  66.5300121  40.1612191  29.8860034  66.7568079  38.7769586
  35.9440110  72.9426130  47.5911210  36.0084542  73.4046537  48.4269381
  35.2351034  72.3123495  47.7193519  26.4457400  66.3067338  45.1160209
  26.6965438  67.1914348  45.3817785  26.9816948  66.1271939  44.3435301
  35.6588127  74.6094237  37.4590190  35.5233802  75.4545773  37.8875038
  36.1997940  74.8113515  36.6956124  32.1455467  60.6885817  54.1204545
  31.7522413  60.1352016  54.7952189  32.9621607  60.9996396  54.5111063
  29.1117525  72.1269675  38.0318115  29.6242045  72.9212926  38.1823680
  29.7640238  71.4295966  37.9651717  30.9212409  75.2435432  40.1140868
  31.0979038  76.1653396  39.9261852  31.7169243  74.9293851  40.5435248
  35.0623428  62.1043696  51.7124802  35.8033141  62.7050849  51.6329264
  35.2941351  61.3621334  51.1542844  30.2064766  67.2900064  49.9903031
  30.0918281  66.3885321  50.2910130  29.3509284  67.5363760  49.6387848
  37.2856604  75.2317804  51.5890532  36.8420458  74.4454182  51.2711437
  37.9473817  75.4196954  50.9234423  32.0443725  76.7613605  46.1151211
  32.5951150  76.6330669  45.3428204  31.2055201  77.0608494  45.7646103
  39.3837842  75.5120604  49.6171933  39.3656317  76.3329485  49.1252202
  40.3057762  75.3874679  49.8422074  35.8410896  73.0264733  50.4595442
  36.3739233  72.2653021  50.2294750  35.3124977  72.7338385  51.2019596
  39.0080591  58.1324799  45.9889083  38.6644860  59.0226441  45.9128194
  39.3759554  57.9426457  45.1258668  27.0766442  70.4558330  38.8077686
  27.9141664  70.8655338  38.5911393  27.2544709  69.5157772  38.7777879
  38.9730874  68.1233410  34.4961519  38.4577497  68.8938015  34.7349906
  38.7008182  67.4498546  35.1194580  36.5577985  62.9683111  39.5546757
  35.7019581  62.5789961  39.3752396  36.9704936  63.0475072  38.6946542
  38.0877131  60.5029454  43.9538317  37.5841927  60.4659590  43.1406122
  38.3807738  61.4122197  44.0134973  34.3320017  60.5868184  42.9604498
  35.1973014  60.3910993  42.6010388  34.3997526  60.3578536  43.8873855
  43.9465148  70.8765765  36.4314692  43.1694591  70.5376924  35.9869854
  44.6256629  70.8818388  35.7569657  38.7617177  65.9960502  36.3221300
  38.4567312  66.3106652  37.1731443  39.7147619  66.0741922  36.3648633
  37.2063609  72.1550726  37.9714254  36.6784970  71.4203485  37.6587491
  36.7051111  72.9325402  37.7254222  42.1856455  70.3499746  43.0881300
  41.5280129  71.0399008  43.1761429  42.9896854  70.7396178  43.4315286
  31.9382336  62.8170392  40.3320865  32.5126088  62.5945573  39.5994058
  32.5253319  62.8859087  41.0849467  40.9961913  68.7044119  41.1385242
  41.5093795  69.3374111  41.6406951  41.6463137  68.1045314  40.7728602
  32.2651923  64.8474853  34.3516750  31.4289236  65.1849540  34.6726025
  32.1256693  64.7123833  33.4143887  34.2405004  59.6911641  39.0595935
  33.5869416  59.3760658  38.4352549  34.1985478  59.0687381  39.7855758
  35.3516209  69.9730936  30.9749227  34.4443271  69.7420189  31.1740376
  35.8487241  69.1768555  31.1623208  38.2584288  78.6828443  33.8945913
  37.5845986  78.9860140  34.5030871  38.6450110  79.4857524  33.5451370
  37.4742744  66.1793574  43.3843582  36.5565306  66.4008521  43.2265270
  37.8902888  66.2539885  42.5255290  38.2577792  67.5784990  38.5146263
  39.0049611  68.0906387  38.2053385  38.5269382  67.2569043  39.3750656
  36.5304442  70.0743531  35.4973217  35.6215662  69.7902564  35.5945687
  36.5599526  70.4942609  34.6376524  41.7623710  73.6850120  39.2664384
  41.3086037  72.8441030  39.3229575  41.1317676  74.3211519  39.6039165
  40.7056629  64.6142106  40.4965052  39.9679386  64.1019493  40.8275294
  40.9583403  64.1742488  39.6848329  40.2056649  75.5226617  40.2014203
  40.4979623  76.0831674  39.4826568  40.7155269  75.8155178  40.9567362
  40.8068257  57.3918358  41.0906821  41.1127133  56.5315722  40.8032736
  41.5320861  57.9835979  40.8905815  27.0992613  67.7949045  39.4788419
  26.9017012  67.2018406  38.7539486  26.5439277  67.4901255  40.1964358
  35.0789336  67.6872151  41.5983012  35.1337946  66.7345988  41.5225489
  34.2680538  67.8431591  42.0824311  36.2280530  71.6152275  32.8361295
  35.7899960  70.8988133  32.3766933  36.9690971  71.8428389  32.2746387
  33.0181696  66.3049211  39.3573391  32.2049562  66.6043382  39.7638583
  33.5140690  65.9104900  40.0747873  35.1690274  76.3006968  41.2907656
  35.1266453  76.5267814  40.3616188  36.0852973  76.0670343  41.4393457
  38.6155908  66.7691036  48.1888285  38.9705296  66.9962509  49.0482751
  39.2628039  67.1009412  47.5665540  44.3453645  69.8909472  38.8937614
  44.2071543  70.0811068  37.9658803  43.9889864  70.6528854  39.3505665
  32.5095771  63.8767567  44.9734626  33.1495150  63.7356326  44.2757589
  31.6773302  63.5902080  44.5973228  44.3723024  71.9585999  43.9048885
  44.8059531  71.8661288  44.7531940  45.0854605  71.9343499  43.2668901
  33.2856075  73.1769997  41.0869618  34.0796673  72.6820317  40.8852193
  32.5747767  72.6487860  40.7237324  38.1050919  75.5588093  45.4381986
  38.1587942  76.1279029  46.2059702  37.2365701  75.7289978  45.0736023
  29.5938838  67.3213079  37.1629371  28.6636426  67.2597534  37.3799333
  29.6896310  66.7989032  36.3666012  29.5124387  63.8467892  39.7507613
  29.7731205  64.7613225  39.6416773  30.3341560  63.3792334  39.9004226
  30.9849313  65.2605649  46.9206437  31.6572366  65.0523011  46.2719086
  30.1579099  65.0627735  46.4811670  45.2338574  72.0009699  46.4381771
  45.4274464  72.9055510  46.6841046  45.1339192  71.5417118  47.2720356
  36.8874885  61.8867590  48.9372098  36.2402800  62.5857539  48.8436575
  37.6575900  62.3203734  49.3048346  40.2953683  72.1516442  52.0122651
  40.1439189  71.9226994  51.0952735  40.2858362  73.1087043  52.0253996
  37.0639019  69.7248355  46.9968918  37.9931079  69.8759514  46.8237885
  36.6430049  69.8132375  46.1417564  35.8627351  73.7499019  44.7667456
  35.7238437  73.3817804  45.6393394  35.0741947  74.2646659  44.5951413
  36.4575503  78.8508116  36.1092992  36.6327259  78.3796159  36.9238615
  35.7708291  79.4773882  36.3374253  37.4132566  73.1280622  42.1556293
  37.0782399  73.0881392  43.0513943  36.9136512  72.4625338  41.6826704
  31.3876810  68.5348252  47.6808874  31.2496608  67.8028491  48.2820414
  32.2981733  68.4457152  47.3993062  40.3491758  70.4736656  32.4293353
  39.7320928  69.7483484  32.3326406  39.8808246  71.2346016  32.0860427
  34.0159111  68.2468211  47.1692554  34.7258729  67.6061403  47.1279173
  33.9728419  68.4981106  48.0918735  42.0045889  75.1835565  50.0899133
  41.9458435  74.4994785  49.4229716  42.4065408  75.9254555  49.6379759
  32.7288045  65.2333429  48.9888194  32.1925402  64.7824168  49.6409790
  32.1404753  65.3679338  48.2458658  31.0236588  81.9997478  42.8832852
  31.2633186  82.6316003  43.5611871  30.1805785  81.6485518  43.1698212
  32.1390304  64.6922080  31.5514657  31.2619770  64.5710881  31.1876904
  32.6148057  63.9008159  31.2993546  42.0063297  73.1475148  48.3213113
  41.1190075  72.8101070  48.4439512  42.5761848  72.4158180  48.5581878
  23.6592444  69.4799240  41.6456164  24.3463484  69.1660970  41.0577180
  23.5040572  70.3840605  41.3723416  28.4627166  64.3689437  46.0741188
  28.3785355  63.7615106  45.3391598  27.6409872  64.8598455  46.0750684
  35.5364450  77.8076601  45.2874356  35.4634621  78.6131572  45.7993661
  35.0941843  78.0068567  44.4622378  35.3254230  77.0448371  38.7977178
  34.5421752  77.5870051  38.8915402  36.0246975  77.5622350  39.1971419
  38.6350880  62.8543000  41.4411383  39.1319579  62.1012963  41.1212453
  37.8637861  62.8907317  40.8754592  46.4880637  68.5583366  43.0829675
  46.4770513  69.4408081  42.7123608  45.6198017  68.2054917  42.8884212
  37.9963134  77.7063435  47.4432515  38.7091106  78.3410900  47.3708416
  37.5053162  77.8027301  46.6272517  39.7180660  71.6114688  39.0149807
  38.7836939  71.7316150  38.8454511  39.8957329  70.7087154  38.7509816
  35.2185848  64.9960383  41.1683068  34.8483636  64.4431424  41.8563973
  35.7144941  64.3918517  40.6158068  43.1053212  67.4532007  39.5499841
  43.5713664  68.2859998  39.4760143  43.5560712  66.9876988  40.2545099
  33.0475047  75.4557878  48.2638086  33.7484507  76.0894361  48.4167480
  32.5770162  75.7972610  47.5033725  41.1729443  73.7975828  36.5485993
  41.4489287  73.6832423  37.4579867  40.3033942  73.3993313  36.5098166
  41.0769875  59.8212594  43.5890742  40.1632954  60.0516821  43.7572949
  41.5062976  59.9051038  44.4404774  40.8476333  68.0102486  46.0890636
  40.1947783  68.2578393  45.4343089  41.2256713  67.1966624  45.7553113
  37.8083507  78.0462179  40.1918806  37.9905901  77.2283835  40.6546559
  38.6316493  78.2629871  39.7543696  38.1425672  76.9730364  37.4533855
  38.6713439  76.4622819  36.8404017  38.4053892  76.6572894  38.3179388
  36.8963906  68.7522297  52.5756673  36.2204543  68.6516426  53.2459048
  37.7191540  68.5961511  53.0392670  28.6442765  74.9894233  45.1969188
  29.2296202  74.2437921  45.3297093  28.4467604  75.2998190  46.0805852
  31.4981420  78.0245481  40.2131631  30.8291796  78.5091608  39.7295671
  31.3594290  78.2714701  41.1275009  23.2360420  67.5599834  43.9173632
  23.2744519  67.0263424  44.7110750  22.7300713  67.0335039  43.2984609
  35.6386689  80.0589224  46.8114289  36.1904997  80.2220846  47.5763374
  35.9792882  80.6493662  46.1394314  30.6151182  62.4064374  47.4136174
  30.6792509  63.2679205  47.0013572  30.5518302  61.7938376  46.6808532
  30.0903455  64.4787507  51.0609208  30.7175493  64.0964584  51.6746732
  29.2331374  64.2601709  51.4264901  40.4897563  74.8850482  52.6662944
  41.0337467  75.4980440  52.1717898  39.9084408  75.4430060  53.1829957
  26.8668997  66.2863936  36.9927563  27.1622439  65.3774614  36.9394617
  25.9657033  66.2651675  36.6708565  38.7755076  78.0071200  43.7977971
  38.6506216  77.2060940  43.2888917  39.4334167  78.5017393  43.3091941
  30.3963244  64.3619932  42.9755112  29.6749830  64.9755900  42.8362585
  31.1856500  64.8977697  42.8971757  40.8389985  75.8080220  45.4257521
  39.8920320  75.6885571  45.3535848  41.1872758  74.9202718  45.5083783
  33.1989558  61.6974359  49.2495763  33.7223960  61.9436655  50.0122073
  32.9801891  62.5294394  48.8298901  28.5956839  63.9678033  37.1166888
  28.2669545  63.0875412  36.9341994  28.9496210  63.9125702  38.0043277
  37.8436418  75.6032936  41.6261874  37.6961380  74.6749643  41.8069444
  38.6689911  75.6253027  41.1418949  31.7098662  64.2551003  37.4842366
  32.0494735  64.7836924  36.7620974  32.1570783  64.5931409  38.2600932
  41.4470540  76.4261495  42.7126746  42.3717087  76.2204356  42.5751198
  41.2785843  76.1777896  43.6216088  34.4042103  62.6388054  46.9345434
  34.0638923  61.8395867  47.3366114  33.6981109  62.9389765  46.3622267
  35.0558575  59.7237366  45.3872757  35.8784644  59.2497845  45.2651647
  35.2996638  60.5027850  45.8871443  33.6966809  62.7525625  35.6835659
  34.4175172  63.1306878  35.1799375  33.0732113  63.4714502  35.7870636
  37.8397932  63.4570774  36.6193991  38.0561547  64.3395412  36.3182819
  37.3591999  63.0656987  35.8899633  32.5797154  66.4156487  43.1964735
  32.4341734  66.7296790  44.0889017  32.1022357  67.0341387  42.6435634
  34.4393536  63.4059035  43.2445625  34.4255105  62.5100128  42.9077923
  35.1565965  63.4129699  43.8783911  36.2919667  63.8396375  45.2898752
  36.0337445  64.7613446  45.2883083  35.7604708  63.4426810  45.9799217
  41.2365856  76.9447162  38.0688838  41.4102733  76.3793585  37.3162690
  41.7294747  77.7448057  37.8868328  27.0542816  68.9561831  46.1352397
  26.5096284  69.7321639  46.2672671  27.9322166  69.3032636  45.9771518
  33.8430432  62.2873415  38.5133195  33.9646344  61.3590061  38.7124083
  33.5532475  62.3012101  37.6011511  36.7121623  59.9728326  41.6499915
  36.7343320  60.0367659  40.6951895  37.1289682  59.1332834  41.8440421
  47.0905247  69.7083585  39.6879138  47.5336393  68.9590910  39.2898261
  46.2131757  69.6993722  39.3052870  42.2241028  76.2613927  35.1685736
  42.9191933  76.8820619  35.3873051  42.5664179  75.4109278  35.4438114
  27.8408838  68.0831728  49.0282553  27.0990574  68.2314363  49.6147184
  27.5201582  68.3439993  48.1649303  44.1232452  73.7113632  36.6973067
  44.6483776  74.0500905  35.9722387  44.0354804  72.7760648  36.5136201
  35.7852500  77.6247706  48.8262943  36.0939627  77.3796853  49.6985643
  36.5827982  77.8294344  48.3381814  35.8073112  79.7785615  41.0568320
  35.3678103  79.2861994  41.7501177  36.5581229  79.2358583  40.8160395
  28.2865451  75.9697156  41.0592948  29.1123471  75.6700928  40.6791592
  27.9359503  75.2004779  41.5082737  33.2546984  75.3223625  43.1290622
  32.6326994  74.6594330  42.8292850  33.9251851  75.3484756  42.4464269
  26.4874056  73.8883483  42.0181882  25.6505965  73.4605657  41.8365883
  26.4597702  74.0815926  42.9552673  33.3271512  63.8005413  52.7223128
  33.3759667  64.6767535  52.3400897  33.8694026  63.2582806  52.1494771
  43.8126358  74.3446536  52.0024265  43.0221901  74.3270675  51.4628764
  43.5759712  74.8834830  52.7573301  43.9324233  71.1939002  49.3156993
  43.9822238  71.0289010  50.2572516  43.8238156  70.3266261  48.9254874
  32.8160491  73.8727548  36.6049082  32.9648612  74.5563012  35.9515755
  33.6226935  73.8532638  37.1198538  41.2227995  67.1769930  50.6316300
  42.1237858  67.0376395  50.3400298  41.2975970  67.3424385  51.5714478
  35.5570800  64.5536785  49.4769486  34.6874110  64.8470351  49.2052075
  35.7930281  65.1377230  50.1976750  45.4342429  73.6135944  49.5599015
  45.1427238  73.9765924  50.3962476  44.8214561  72.9002952  49.3812347
  46.6338112  71.1788824  42.0801585  47.4685003  71.6178628  42.2439145
  46.7697241  70.7027477  41.2609831  43.6829618  68.7368558  48.0279073
  44.1583739  68.9296205  47.2197924  42.7595183  68.7927744  47.7822457
  30.5713124  69.8992726  37.6110151  30.3259166  68.9955056  37.8090361
  30.7409039  69.9009876  36.6689629  38.2609834  60.7716402  46.9934907
  38.7791778  61.5077429  46.6681395  37.9064967  61.0780395  47.8281666
  29.8408772  65.6321083  35.1096313  29.1478017  65.7065438  34.4536349
  29.5960524  64.8681427  35.6317830  38.5122428  57.1916684  42.5135803
  38.7924182  56.5239874  43.1396230  39.2973035  57.3845780  42.0010467
  36.3155897  76.3675678  34.0760830  35.7429864  76.9865865  33.6231302
  36.8888691  76.9175040  34.6100752  42.3831287  65.6134318  46.2607378
  43.3348710  65.7132416  46.2819603  42.2134737  64.8212587  46.7705463
  40.4045666  62.6989902  46.4466779  39.8095598  62.9794914  45.7513268
  40.1195363  63.1883803  47.2183521  39.5353157  76.6512828  35.2069412
  40.4683830  76.5858390  35.4102287  39.4476369  77.4869095  34.7483945
  42.1641173  75.9678699  32.1673360  42.0854805  75.6338562  33.0609117
  42.9850840  76.4600467  32.1664832  44.8619365  68.8340438  45.3749678
  44.8295685  67.8956439  45.5609362  45.4719988  68.9124475  44.6415503
  36.7002695  67.7036491  31.4176882  37.6461800  67.5742699  31.4865300
  36.3216940  66.9651153  31.8946310  45.0113853  65.6251482  45.4207961
  44.4952902  64.8409938  45.2337890  45.8953802  65.2970198  45.5854481
  42.6724580  59.3692497  41.3803774  42.4749401  59.0607585  42.2647106
  43.2824286  60.0954136  41.5101704  50.6795914  69.8956445  44.5155715
  51.4099303  69.6341733  45.0763418  50.0702860  69.1585167  44.5557783
  48.7611211  68.0364308  45.1130166  48.0344375  67.9020272  44.5046658
  48.3458498  68.3441136  45.9186884  36.5841388  71.7554237  52.8777539
  37.5044397  71.9332836  53.0717586  36.5490971  70.8110283  52.7257238
  34.8845613  65.6286467  31.3531767  33.9777068  65.3319580  31.4294481
  35.1621594  65.3316286  30.4866054  25.8023553  66.9492831  41.8030814
  25.4826337  66.0958139  41.5105188  25.2556981  67.1641409  42.5588781
  29.5803460  69.6655272  45.5200320  29.7989470  70.5972380  45.5388354
  29.9929234  69.3063246  46.3055124  36.5007678  60.1723357  37.5076009
  35.6908407  59.8270442  37.8831255  37.1892095  59.8630901  38.0963620
  38.4298227  59.2501404  39.1300305  38.9829265  59.6696857  39.7890328
  38.6668313  58.3237152  39.1723261  34.4531326  65.2388478  54.9103069
  34.3528053  66.1882835  54.8415160  34.2352868  64.9106717  54.0379139
  33.6544397  62.4873403  31.4943747  34.5163561  62.8128301  31.7539564
  33.8394741  61.7004899  30.9816812  25.6711813  70.5695742  43.7723935
  24.9775284  70.1549695  43.2593890  26.4184804  70.6116279  43.1757354
  41.8077034  61.3601929  38.6378970  41.2275703  62.0186733  38.2557022
  41.5412966  60.5379274  38.2266387  40.2580600  60.7606987  40.8400290
  40.7580378  60.8723521  40.0314609  40.9016208  60.4568040  41.4801098
  34.3162596  68.6685617  53.7268131  33.8329678  69.4685977  53.9332020
  34.4023535  68.6793561  52.7735575  27.5848555  70.5013996  41.6489950
  27.5619244  70.6001683  40.6971833  27.8949192  71.3479147  41.9707116
  30.2435933  72.5590151  45.7636565  31.1979187  72.5274094  45.6966496
  30.0448457  72.0980775  46.5786791  30.8335315  71.1291267  48.3307362
  31.6528204  71.6235346  48.3542200  31.1072123  70.2123235  48.3024930
  40.5901912  63.5202020  37.6935318  39.7027767  63.8051670  37.4755513
  41.0055901  63.3595783  36.8462595  43.9416448  63.5448541  41.4089657
  44.7176838  64.0344993  41.6814274  43.2164582  63.9706595  41.8661527
  46.3789006  64.2576160  42.4663598  46.9733497  64.0171896  41.7556906
  46.4515590  63.5383290  43.0937134  28.5986162  78.1009771  42.7806763
  28.4640630  77.3410172  42.2144761  28.1818224  78.8250671  42.3135551
  39.7345125  73.2846694  31.7883338  40.4380975  73.4896697  32.4040993
  39.0107774  73.8523456  32.0532421  40.5642935  69.0356555  37.9085608
  40.5078137  69.4925107  37.0693240  41.1171278  68.2747240  37.7308451
  44.3747741  64.8246287  38.7335728  44.1184676  64.4242923  39.5643935
  43.7500609  65.5390081  38.6085867  48.6860079  67.5642361  41.2407019
  48.1259637  67.6335550  42.0138581  48.0803583  67.3883345  40.5206515
  31.7555288  78.9979088  42.9925205  31.6387672  79.9424520  42.8903895
  30.9347734  78.6952649  43.3811004  41.6431823  73.7229223  33.8381798
  42.4777426  73.2910422  33.6559273  41.4816165  73.5511237  34.7658692
  41.2977715  70.2261337  35.2038137  41.2426519  70.0605608  34.2626581
  40.6723770  70.9337370  35.3600327  26.0870230  65.4629401  49.0299559
  26.7329093  64.9528355  49.5186785  25.8787381  66.1998083  49.6042985
  38.6123622  72.5310249  54.5291700  39.4814782  72.7050901  54.1678335
  38.1330373  73.3504665  54.4067429  34.6073840  59.7269446  34.7823456
  34.5952510  60.6711286  34.9391726  35.4997262  59.5439591  34.4882917
  32.7809802  79.6507350  46.2081134  33.6837049  79.6830960  46.5247629
  32.5547172  78.7207801  46.2227469  34.5363404  78.4038336  42.8691212
  33.5859035  78.4040198  42.7555585  34.8395890  77.6571071  42.3527247
  38.4225960  56.3212222  39.0369392  37.6558355  55.7670709  39.1826075
  38.8336665  56.3934091  39.8983544  30.4267721  62.6097018  53.1274574
  31.2899182  62.2533823  53.3377898  29.8533131  62.2710913  53.8149978
  50.2716098  84.2398875  43.9336975  50.9094508  84.1205622  43.2300315
  50.1536941  85.1879718  43.9924927  47.0805804  84.1926303  43.8698499
  46.7424315  84.0767367  42.9819034  47.9495572  83.7917468  43.8499505
  42.9392620  86.0461779  39.8595390  42.3757485  85.9551716  39.0911678
  42.8245015  85.2261684  40.3397883  47.5625587  85.3461154  49.8284705
  47.5514228  84.9513953  48.9565209  47.7246226  84.6127227  50.4218476
  40.4857052  87.5412971  42.6979611  41.2778343  87.2003795  42.2825910
  40.7253702  87.6507946  43.6181764  48.5192178  89.7132747  35.1709855
  47.8680158  90.2986827  34.7843869  49.3136541  90.2438942  35.2304893
  42.4447805  86.8021884  35.5696990  43.2178681  86.2550871  35.4309865
  42.7973204  87.6666133  35.7811451  44.2832848  88.1298266  48.7763889
  43.9922714  89.0343897  48.6610555  44.9189832  88.1714794  49.4907958
  45.2089055  85.5075115  45.3665249  45.8052627  85.2831137  44.6522211
  45.2664026  84.7659860  45.9690696  44.7814083  82.9614550  33.2015439
  45.0339604  82.4396071  32.4398902  43.8438642  82.7980695  33.3042123
  49.8257366  81.9650328  41.0090183  50.6120455  81.5469752  40.6580600
  50.0896070  82.8696421  41.1771831  49.9967443  87.4023179  35.7078840
  49.3613276  87.4757805  36.4199744  49.6664850  87.9916778  35.0297919
  44.5010372  84.8642656  35.4039814  44.3846630  84.1887559  36.0720899
  44.6112632  84.3775030  34.5871967  46.8441913  84.3252803  39.1086504
  46.4800120  83.7983424  39.8199425  47.7009029  83.9351272  38.9352989
  46.4847400  79.3542703  34.1047852  46.6521802  80.2222939  34.4718323
  46.2944569  79.5169984  33.1809141  49.2422733  87.8159682  45.7713683
  48.9423456  88.7184720  45.6629490  48.8973793  87.5491865  46.6234835
  42.6935215  84.2673479  41.8050387  41.7685711  84.1349693  42.0128079
  42.9419628  85.0467698  42.3020329  52.6419877  80.3342222  43.4511120
  51.7336754  80.2657630  43.1569881  52.5907473  80.8114167  44.2792945
  46.4636621  81.8100360  35.0894519  46.3436246  82.2557411  35.9279999
  45.7689209  82.1585678  34.5308057  40.0544026  83.9106752  42.6394176
  40.1836407  84.1641231  43.5533588  39.3741477  84.5034460  42.3198831
  44.2243513  94.5804002  38.7384650  44.1467543  95.5311827  38.8173131
  43.6205157  94.2349875  39.3959577  52.1621687  82.2821833  35.9174853
  53.0739543  82.5149220  35.7422551  51.6531334  82.8658878  35.3549932
  46.7993525  81.6419068  46.9269703  47.6454720  82.0658482  47.0704352
  46.7392162  80.9852692  47.6208266  50.7691269  87.2647652  43.3088435
  50.1400132  87.4293366  42.6064502  50.3816931  87.6789261  44.0799399
  54.6480501  88.2002090  40.6632798  53.9631539  88.5800991  40.1129832
  54.7324350  88.8097416  41.3964746  49.9492970  79.3023436  48.5850876
  49.7053902  80.0565497  48.0485152  50.2252901  79.6808784  49.4198123
  51.9031433  85.8462049  47.2628142  52.1148328  86.4893809  46.5862523
  51.8561181  85.0124365  46.7950072  49.5057662  78.4579869  44.1664714
  48.6442141  78.7561123  44.4581452  49.5320096  78.6750268  43.2345747
  46.3219231  87.0022060  40.5738520  46.7857577  87.2809763  39.7843142
  46.0576029  86.1005505  40.3911610  43.2143312  86.5493542  43.5118283
  43.7844669  86.9780810  42.8735767  43.8051424  86.2676126  44.2102469
  45.2588117  83.1245212  37.3828085  45.9612161  83.5766256  37.8502011
  44.9268746  82.4829031  38.0107978  43.7068479  81.7156969  51.7579294
  43.0767139  82.3973250  51.9914691  43.6004567  81.6040051  50.8132432
  39.0013451  81.3828765  42.6845218  38.2112505  81.6386294  42.2085329
  39.4924699  82.1977103  42.7897259  53.0177261  88.7234004  45.4350499
  53.8394704  88.3214191  45.1533181  53.0139664  88.6202238  46.3866615
  40.9528197  81.7473344  39.6428695  40.1559360  81.8592039  40.1612191
  40.7253789  82.0859996  38.7769586  46.7833864  88.2718048  47.5911210
  46.8478297  88.7338455  48.4269381  46.0744788  87.6415412  47.7193519
  37.2851154  81.6359255  45.1160209  37.5359193  82.5206265  45.3817785
  37.8210703  81.4563857  44.3435301  46.4981882  89.9386155  37.4590190
  46.3627557  90.7837691  37.8875038  47.0391694  90.1405433  36.6956124
  42.9849221  76.0177735  54.1204545  42.5916167  75.4643933  54.7952189
  43.8015362  76.3288313  54.5111063  39.9511279  87.4561593  38.0318115
  40.4635800  88.2504843  38.1823680  40.6033992  86.7587883  37.9651717
  41.7606164  90.5727349  40.1140868  41.9372792  91.4945314  39.9261852
  42.5562997  90.2585769  40.5435248  45.9017182  77.4335614  51.7124802
  46.6426896  78.0342767  51.6329264  46.1335105  76.6913252  51.1542844
  41.0458520  82.6191981  49.9903031  40.9312036  81.7177238  50.2910130
  40.1903038  82.8655678  49.6387848  42.8837479  92.0905523  46.1151211
  43.4344905  91.9622586  45.3428204  42.0448955  92.3900412  45.7646103
  46.6804650  88.3556651  50.4595442  47.2132987  87.5944939  50.2294750
  46.1518732  88.0630303  51.2019596  49.8474345  73.4616717  45.9889083
  49.5038615  74.3518359  45.9128194  50.2153308  73.2718375  45.1258668
  37.9160196  85.7850247  38.8077686  38.7535418  86.1947256  38.5911393
  38.0938464  84.8449689  38.7777879  49.8124628  83.4525328  34.4961519
  49.2971252  84.2229933  34.7349906  49.5401937  82.7790464  35.1194580
  47.3971739  78.2975029  39.5546757  46.5413335  77.9081879  39.3752396
  47.8098691  78.3766990  38.6946542  48.9270886  75.8321372  43.9538317
  48.4235681  75.7951507  43.1406122  49.2201493  76.7414115  44.0134973
  45.1713772  75.9160102  42.9604498  46.0366768  75.7202910  42.6010388
  45.2391281  75.6870454  43.8873855  54.7858902  86.2057683  36.4314692
  54.0088345  85.8668842  35.9869854  55.4650383  86.2110306  35.7569657
  49.6010931  81.3252420  36.3221300  49.2961067  81.6398569  37.1731443
  50.5541373  81.4033840  36.3648633  48.0457363  87.4842643  37.9714254
  47.5178725  86.7495403  37.6587491  47.5444866  88.2617320  37.7254222
  53.0250209  85.6791664  43.0881300  52.3673884  86.3690925  43.1761429
  53.8290608  86.0688096  43.4315286  42.7776091  78.1462310  40.3320865
  43.3519843  77.9237491  39.5994058  43.3647073  78.2151004  41.0849467
  51.8355668  84.0336037  41.1385242  52.3487550  84.6666028  41.6406951
  52.4856892  83.4337232  40.7728602  43.1045678  80.1766771  34.3516750
  42.2682990  80.5141457  34.6726025  42.9650448  80.0415750  33.4143887
  45.0798758  75.0203559  39.0595935  44.4263171  74.7052576  38.4352549
  45.0379233  74.3979299  39.7855758  46.1909963  85.3022854  30.9749227
  45.2837025  85.0712107  31.1740376  46.6880995  84.5060473  31.1623208
  49.0978042  94.0120361  33.8945913  48.4239741  94.3152058  34.5030871
  49.4843864  94.8149441  33.5451370  48.3136499  81.5085492  43.3843582
  47.3959060  81.7300439  43.2265270  48.7296642  81.5831803  42.5255290
  49.0971547  82.9076908  38.5146263  49.8443366  83.4198305  38.2053385
  49.3663136  82.5860961  39.3750656  47.3698197  85.4035449  35.4973217
  46.4609416  85.1194481  35.5945687  47.3993281  85.8234527  34.6376524
  52.6017464  89.0142038  39.2664384  52.1479791  88.1732948  39.3229575
  51.9711431  89.6503436  39.6039165  51.5450384  79.9434024  40.4965052
  50.8073141  79.4311410  40.8275294  51.7977157  79.5034406  39.6848329
  51.0450403  90.8518535  40.2014203  51.3373378  91.4123592  39.4826568
  51.5549024  91.1447096  40.9567362  37.9386367  83.1240963  39.4788419
  37.7410767  82.5310323  38.7539486  37.3833031  82.8193173  40.1964358
  45.9183091  83.0164069  41.5983012  45.9731701  82.0637906  41.5225489
  45.1074293  83.1723508  42.0824311  47.0674285  86.9444192  32.8361295
  46.6293714  86.2280051  32.3766933  47.8084725  87.1720307  32.2746387
  43.8575451  81.6341129  39.3573391  43.0443316  81.9335299  39.7638583
  44.3534445  81.2396818  40.0747873  46.0084029  91.6298886  41.2907656
  45.9660207  91.8559732  40.3616188  46.9246727  91.3962260  41.4393457
  49.4549662  82.0982953  48.1888285  49.8099050  82.3254426  49.0482751
  50.1021794  82.4301330  47.5665540  55.1847399  85.2201389  38.8937614
  55.0465298  85.4102985  37.9658803  54.8283618  85.9820772  39.3505665
  43.3489525  79.2059484  44.9734626  43.9888905  79.0648243  44.2757589
  42.5167056  78.9193998  44.5973228  44.1249829  88.5061915  41.0869618
  44.9190428  88.0112235  40.8852193  43.4141522  87.9779778  40.7237324
  48.9444674  90.8880010  45.4381986  48.9981696  91.4570947  46.2059702
  48.0759455  91.0581895  45.0736023  40.4332593  82.6504997  37.1629371
  39.5030181  82.5889452  37.3799333  40.5290065  82.1280949  36.3666012
  40.3518142  79.1759809  39.7507613  40.6124959  80.0905143  39.6416773
  41.1735314  78.7084252  39.9004226  41.8243067  80.5897567  46.9206437
  42.4966121  80.3814929  46.2719086  40.9972854  80.3919653  46.4811670
  47.7268639  77.2159507  48.9372098  47.0796554  77.9149457  48.8436575
  48.4969655  77.6495651  49.3048346  47.9032774  85.0540272  46.9968918
  48.8324834  85.2051432  46.8237885  47.4823804  85.1424293  46.1417564
  46.7021105  89.0790937  44.7667456  46.5632191  88.7109721  45.6393394
  45.9135702  89.5938576  44.5951413  47.2969257  94.1800033  36.1092992
  47.4721013  93.7088076  36.9238615  46.6102045  94.8065799  36.3374253
  48.2526321  88.4572539  42.1556293  47.9176153  88.4173309  43.0513943
  47.7530266  87.7917255  41.6826704  42.2270564  83.8640170  47.6808874
  42.0890362  83.1320408  48.2820414  43.1375488  83.7749070  47.3993062
  51.1885512  85.8028574  32.4293353  50.5714683  85.0775402  32.3326406
  50.7202001  86.5637934  32.0860427  44.8552865  83.5760129  47.1692554
  45.5652484  82.9353321  47.1279173  44.8122173  83.8273024  48.0918735
  43.5681799  80.5625347  48.9888194  43.0319156  80.1116085  49.6409790
  42.9798508  80.6971256  48.2458658  41.8630343  97.3289396  42.8832852
  42.1026941  97.9607920  43.5611871  41.0199539  96.9777436  43.1698212
  42.9784058  80.0213998  31.5514657  42.1013524  79.9002799  31.1876904
  43.4541811  79.2300076  31.2993546  52.8457051  88.4767066  48.3213113
  51.9583830  88.1392988  48.4439512  53.4155602  87.7450097  48.5581878
  34.4986198  84.8091158  41.6456164  35.1857238  84.4952888  41.0577180
  34.3434327  85.7132523  41.3723416  39.3020920  79.6981354  46.0741188
  39.2179109  79.0907024  45.3391598  38.4803627  80.1890373  46.0750684
  46.3758205  93.1368518  45.2874356  46.3028376  93.9423490  45.7993661
  45.9335598  93.3360484  44.4622378  46.1647984  92.3740289  38.7977178
  45.3815506  92.9161969  38.8915402  46.8640729  92.8914268  39.1971419
  49.4744634  78.1834918  41.4411383  49.9713334  77.4304880  41.1212453
  48.7031616  78.2199235  40.8754592  48.8356888  93.0355353  47.4432515
  49.5484860  93.6702817  47.3708416  48.3446917  93.1319218  46.6272517
  50.5574415  86.9406605  39.0149807  49.6230694  87.0608068  38.8454511
  50.7351083  86.0379072  38.7509816  46.0579603  80.3252301  41.1683068
  45.6877391  79.7723341  41.8563973  46.5538695  79.7210434  40.6158068
  53.9446966  82.7823924  39.5499841  54.4107418  83.6151916  39.4760143
  54.3954467  82.3168906  40.2545099  43.8868802  90.7849796  48.2638086
  44.5878261  91.4186279  48.4167480  43.4163917  91.1264528  47.5033725
  52.0123197  89.1267746  36.5485993  52.2883041  89.0124340  37.4579867
  51.1427696  88.7285231  36.5098166  51.6870088  83.3394403  46.0890636
  51.0341538  83.5870311  45.4343089  52.0650467  82.5258542  45.7553113
  48.6477261  93.3754097  40.1918806  48.8299656  92.5575753  40.6546559
  49.4710247  93.5921789  39.7543696  48.9819427  92.3022282  37.4533855
  49.5107193  91.7914736  36.8404017  49.2447646  91.9864812  38.3179388
  39.4836520  90.3186151  45.1969188  40.0689956  89.5729839  45.3297093
  39.2861358  90.6290108  46.0805852  42.3375175  93.3537398  40.2131631
  41.6685550  93.8383526  39.7295671  42.1988045  93.6006619  41.1275009
  34.0754174  82.8891751  43.9173632  34.1138274  82.3555342  44.7110750
  33.5694467  82.3626957  43.2984609  46.4780443  95.3881142  46.8114289
  47.0298751  95.5512763  47.5763374  46.8186637  95.9785580  46.1394314
  41.4544937  77.7356292  47.4136174  41.5186263  78.5971123  47.0013572
  41.3912057  77.1230293  46.6808532  40.9297209  79.8079424  51.0609208
  41.5569248  79.4256502  51.6746732  40.0725128  79.5893626  51.4264901
  37.7062752  81.6155853  36.9927563  38.0016193  80.7066532  36.9394617
  36.8050788  81.5943593  36.6708565  49.6148831  93.3363117  43.7977971
  49.4899970  92.5352857  43.2888917  50.2727922  93.8309311  43.3091941
  41.2356999  79.6911850  42.9755112  40.5143585  80.3047818  42.8362585
  42.0250255  80.2269615  42.8971757  51.6783739  91.1372138  45.4257521
  50.7314075  91.0177489  45.3535848  52.0266512  90.2494636  45.5083783
  44.0383312  77.0266276  49.2495763  44.5617714  77.2728573  50.0122073
  43.8195646  77.8586311  48.8298901  39.4350594  79.2969951  37.1166888
  39.1063300  78.4167330  36.9341994  39.7889964  79.2417620  38.0043277
  48.6830172  90.9324854  41.6261874  48.5355135  90.0041561  41.8069444
  49.5083666  90.9544944  41.1418949  42.5492417  79.5842921  37.4842366
  42.8888489  80.1128842  36.7620974  42.9964537  79.9223327  38.2600932
  52.2864294  91.7553412  42.7126746  53.2110842  91.5496274  42.5751198
  52.1179598  91.5069814  43.6216088  45.2435857  77.9679972  46.9345434
  44.9032678  77.1687785  47.3366114  44.5374864  78.2681682  46.3622267
  45.8952329  75.0529284  45.3872757  46.7178399  74.5789762  45.2651647
  46.1390393  75.8319768  45.8871443  44.5360564  78.0817542  35.6835659
  45.2568926  78.4598795  35.1799375  43.9125868  78.8006419  35.7870636
  48.6791687  78.7862691  36.6193991  48.8955301  79.6687329  36.3182819
  48.1985754  78.3948905  35.8899633  43.4190908  81.7448405  43.1964735
  43.2735489  82.0588708  44.0889017  42.9416112  82.3633305  42.6435634
  45.2787291  78.7350953  43.2445625  45.2648860  77.8392046  42.9077923
  45.9959719  78.7421616  43.8783911  47.1313422  79.1688293  45.2898752
  46.8731199  80.0905363  45.2883083  46.5998462  78.7718727  45.9799217
  52.0759610  92.2739080  38.0688838  52.2496488  91.7085502  37.3162690
  52.5688502  93.0739975  37.8868328  37.8936570  84.2853749  46.1352397
  37.3490038  85.0613557  46.2672671  38.7715920  84.6324554  45.9771518
  44.6824187  77.6165333  38.5133195  44.8040098  76.6881979  38.7124083
  44.3926229  77.6304019  37.6011511  47.5515377  75.3020243  41.6499915
  47.5737074  75.3659576  40.6951895  47.9683436  74.4624752  41.8440421
  53.0634783  91.5905844  35.1685736  53.7585688  92.2112537  35.3873051
  53.4057933  90.7401196  35.4438114  38.6802592  83.4123645  49.0282553
  37.9384328  83.5606281  49.6147184  38.3595336  83.6731911  48.1649303
  54.9626206  89.0405550  36.6973067  55.4877530  89.3792823  35.9722387
  54.8748559  88.1052565  36.5136201  46.6246255  92.9539624  48.8262943
  46.9333381  92.7088770  49.6985643  47.4221737  93.1586262  48.3381814
  46.6466867  95.1077533  41.0568320  46.2071857  94.6153912  41.7501177
  47.3974984  94.5650501  40.8160395  39.1259206  91.2989074  41.0592948
  39.9517226  90.9992846  40.6791592  38.7753258  90.5296696  41.5082737
  44.0940739  90.6515542  43.1290622  43.4720748  89.9886247  42.8292850
  44.7645606  90.6776674  42.4464269  37.3267811  89.2175400  42.0181882
  36.4899719  88.7897575  41.8365883  37.2991456  89.4107844  42.9552673
  44.1665266  79.1297330  52.7223128  44.2153422  80.0059453  52.3400897
  44.7087781  78.5874723  52.1494771  54.7717987  86.5230920  49.3156993
  54.8215992  86.3580927  50.2572516  54.6631911  85.6558179  48.9254874
  43.6554246  89.2019466  36.6049082  43.8042366  89.8854930  35.9515755
  44.4620689  89.1824556  37.1198538  46.3964555  79.8828703  49.4769486
  45.5267864  80.1762269  49.2052075  46.6324035  80.4669148  50.1976750
  41.4106879  85.2284643  37.6110151  41.1652921  84.3246973  37.8090361
  41.5802793  85.2301794  36.6689629  49.1003589  76.1008320  46.9934907
  49.6185533  76.8369347  46.6681395  48.7458721  76.4072313  47.8281666
  40.6802526  80.9613001  35.1096313  39.9871771  81.0357356  34.4536349
  40.4354278  80.1973344  35.6317830  49.3516183  72.5208602  42.5135803
  49.6317937  71.8531791  43.1396230  50.1366790  72.7137698  42.0010467
  47.1549651  91.6967596  34.0760830  46.5823618  92.3157783  33.6231302
  47.7282445  92.2466958  34.6100752  53.2225041  80.9426236  46.2607378
  54.1742464  81.0424334  46.2819603  53.0528492  80.1504505  46.7705463
  50.3746911  91.9804746  35.2069412  51.3077584  91.9150308  35.4102287
  50.2870124  92.8161013  34.7483945  53.0034928  91.2970617  32.1673360
  52.9248559  90.9630480  33.0609117  53.8244595  91.7892384  32.1664832
  47.5396450  83.0328409  31.4176882  48.4855555  82.9034617  31.4865300
  47.1610695  82.2943071  31.8946310  45.7239367  80.9578385  31.3531767
  44.8170822  80.6611498  31.4294481  46.0015348  80.6608203  30.4866054
  36.6417307  82.2784749  41.8030814  36.3220092  81.4250057  41.5105188
  36.0950736  82.4933327  42.5588781  40.4197215  84.9947190  45.5200320
  40.6383225  85.9264297  45.5388354  40.8322989  84.6355164  46.3055124
  47.3401433  75.5015275  37.5076009  46.5302161  75.1562360  37.8831255
  48.0285850  75.1922819  38.0963620  49.2691981  74.5793322  39.1300305
  49.8223020  74.9988775  39.7890328  49.5062067  73.6529070  39.1723261
  44.4938152  77.8165320  31.4943747  45.3557316  78.1420219  31.7539564
  44.6788496  77.0296816  30.9816812  36.5105567  85.8987660  43.7723935
  35.8169039  85.4841613  43.2593890  37.2578558  85.9408197  43.1757354
  51.0974354  76.0898905  40.8400290  51.5974133  76.2015439  40.0314609
  51.7409962  75.7859957  41.4801098  38.4242310  85.8305914  41.6489950
  38.4012998  85.9293601  40.6971833  38.7342946  86.6771065  41.9707116
  41.0829688  87.8882069  45.7636565  42.0372941  87.8566011  45.6966496
  40.8842211  87.4272693  46.5786791  41.6729070  86.4583185  48.3307362
  42.4921959  86.9527264  48.3542200  41.9465878  85.5415153  48.3024930
  51.4295666  78.8493937  37.6935318  50.5421521  79.1343588  37.4755513
  51.8449655  78.6887701  36.8462595  39.4379917  93.4301688  42.7806763
  39.3034385  92.6702089  42.2144761  39.0211979  94.1542588  42.3135551
  50.5738880  88.6138612  31.7883338  51.2774730  88.8188614  32.4040993
  49.8501528  89.1815374  32.0532421  51.4036690  84.3648473  37.9085608
  51.3471891  84.8217025  37.0693240  51.9565032  83.6039158  37.7308451
  42.5949042  94.3271005  42.9925205  42.4781427  95.2716438  42.8903895
  41.7741489  94.0244567  43.3811004  52.4825577  89.0521141  33.8381798
  53.3171181  88.6202340  33.6559273  52.3209920  88.8803155  34.7658692
  52.1371469  85.5553254  35.2038137  52.0820273  85.3897526  34.2626581
  51.5117524  86.2629287  35.3600327  36.9263984  80.7921319  49.0299559
  37.5722848  80.2820273  49.5186785  36.7181135  81.5290000  49.6042985
  45.4467595  75.0561363  34.7823456  45.4346264  76.0003203  34.9391726
  46.3391017  74.8731509  34.4882917  43.6203557  94.9799267  46.2081134
  44.5230803  95.0122878  46.5247629  43.3940927  94.0499718  46.2227469
  45.3757159  93.7330254  42.8691212  44.4252790  93.7332115  42.7555585
  45.6789645  92.9862988  42.3527247  41.2661475  77.9388936  53.1274574
  42.1292937  77.5825741  53.3377898  40.6926886  77.6002831  53.8149978
  57.9199558  99.5218220  43.8698499  57.5818070  99.4059285  42.9819034
  58.7889327  99.1209385  43.8499505  53.7786374 101.3753697  39.8595390
  53.2151239 101.2843634  39.0911678  53.6638769 100.5553601  40.3397883
  58.4019341 100.6753072  49.8284705  58.3907982 100.2805870  48.9565209
  58.5639981  99.9419145  50.4218476  51.3250806 102.8704888  42.6979611
  52.1172098 102.5295713  42.2825910  51.5647456 102.9799863  43.6181764
  59.3585933 105.0424664  35.1709855  58.7073913 105.6278745  34.7843869
  60.1530296 105.5730859  35.2304893  53.2841560 102.1313802  35.5696990
  54.0572436 101.5842789  35.4309865  53.6366959 102.9958051  35.7811451
  55.1226603 103.4590184  48.7763889  54.8316468 104.3635815  48.6610555
  55.7583587 103.5006711  49.4907958  56.0482809 100.8367032  45.3665249
  56.6446382 100.6123055  44.6522211  56.1057781 100.0951778  45.9690696
  55.6207838  98.2906468  33.2015439  55.8733358  97.7687989  32.4398902
  54.6832397  98.1272613  33.3042123  60.8361198 102.7315096  35.7078840
  60.2007031 102.8049723  36.4199744  60.5058604 103.3208695  35.0297919
  55.3404127 100.1934574  35.4039814  55.2240385  99.5179477  36.0720899
  55.4506386  99.7066948  34.5871967  57.3241154  94.6834620  34.1047852
  57.4915557  95.5514857  34.4718323  57.1338323  94.8461902  33.1809141
  60.0816488 103.1451599  45.7713683  59.7817211 104.0476638  45.6629490
  59.7367547 102.8783783  46.6234835  53.5328969  99.5965396  41.8050387
  52.6079466  99.4641610  42.0128079  53.7813382 100.3759615  42.3020329
  57.3030375  97.1392278  35.0894519  57.1830000  97.5849329  35.9279999
  56.6082964  97.4877596  34.5308057  50.8937780  99.2398670  42.6394176
  51.0230161  99.4933149  43.5533588  50.2135231  99.8326378  42.3198831
  55.0637267 109.9095920  38.7384650  54.9861297 110.8603745  38.8173131
  54.4598911 109.5641792  39.3959577  55.8100869  99.8909239  50.9563984
  56.5515554 100.4294282  50.6798808  55.1037855 100.5175527  51.1135536
  61.2856209 102.0338379  49.5536146  61.6939565 101.5920789  48.8090778
  60.5633471 101.4591006  49.8070339  57.1612986 102.3313978  40.5738520
  57.6251331 102.6101681  39.7843142  56.8969784 101.4297422  40.3911610
  54.0537067 101.8785459  43.5118283  54.6238424 102.3072728  42.8735767
  54.6445179 101.5968044  44.2102469  56.0981872  98.4537130  37.3828085
  56.8005915  98.9058174  37.8502011  55.7662500  97.8120949  38.0107978
  49.8407206  96.7120683  42.6845218  49.0506260  96.9678211  42.2085329
  50.3318453  97.5269021  42.7897259  51.7921951  97.0765262  39.6428695
  50.9953114  97.1883956  40.1612191  51.5647543  97.4151914  38.7769586
  57.6227619 103.6009965  47.5911210  57.6872051 104.0630372  48.4269381
  56.9138543 102.9707330  47.7193519  48.1244909  96.9651173  45.1160209
  48.3752947  97.8498183  45.3817785  48.6604457  96.7855775  44.3435301
  57.3375636 105.2678073  37.4590190  57.2021311 106.1129608  37.8875038
  57.8785449 105.4697350  36.6956124  50.7905034 102.7853511  38.0318115
  51.3029554 103.5796761  38.1823680  51.4427747 102.0879801  37.9651717
  52.5999918 105.9019267  40.1140868  52.7766547 106.8237232  39.9261852
  53.3956752 105.5877686  40.5435248  51.8852275  97.9483899  49.9903031
  51.7705790  97.0469156  50.2910130  51.0296793  98.1947596  49.6387848
  58.9644113 105.8901639  51.5890532  58.5207967 105.1038018  51.2711437
  59.6261326 106.0780790  50.9234423  53.7231234 107.4197441  46.1151211
  54.2738659 107.2914504  45.3428204  52.8842710 107.7192330  45.7646103
  61.0625351 106.1704439  49.6171933  61.0443826 106.9913320  49.1252202
  61.9845271 106.0458514  49.8422074  57.5198405 103.6848569  50.4595442
  58.0526742 102.9236857  50.2294750  56.9912486 103.3922220  51.2019596
  48.7553950 101.1142165  38.8077686  49.5929172 101.5239173  38.5911393
  48.9332218 100.1741607  38.7777879  60.6518383  98.7817246  34.4961519
  60.1365006  99.5521850  34.7349906  60.3795691  98.1082382  35.1194580
  65.6252657 101.5349600  36.4314692  64.8482100 101.1960760  35.9869854
  66.3044138 101.5402223  35.7569657  58.8851118 102.8134561  37.9714254
  58.3572479 102.0787321  37.6587491  58.3838620 103.5909237  37.7254222
  53.6169845  93.4754227  40.3320865  54.1913597  93.2529409  39.5994058
  54.2040828  93.5442922  41.0849467  53.9439432  95.5058688  34.3516750
  53.1076745  95.8433375  34.6726025  53.8044202  95.3707668  33.4143887
  57.0303718 100.6314771  30.9749227  56.1230780 100.4004025  31.1740376
  57.5274750  99.8352391  31.1623208  59.9371797 109.3412279  33.8945913
  59.2633495 109.6443975  34.5030871  60.3237619 110.1441359  33.5451370
  58.2091951 100.7327366  35.4973217  57.3003171 100.4486399  35.5945687
  58.2387035 101.1526445  34.6376524  63.4411219 104.3433956  39.2664384
  62.9873546 103.5024866  39.3229575  62.8105185 104.9795354  39.6039165
  61.8844158 106.1810452  40.2014203  62.1767132 106.7415509  39.4826568
  62.3942778 106.4739013  40.9567362  48.7780122  98.4532880  39.4788419
  48.5804521  97.8602241  38.7539486  48.2226786  98.1485091  40.1964358
  56.7576845  98.3455987  41.5983012  56.8125455  97.3929823  41.5225489
  55.9468047  98.5015426  42.0824311  57.9068039 102.2736110  32.8361295
  57.4687469 101.5571969  32.3766933  58.6478480 102.5012225  32.2746387
  54.6969205  96.9633047  39.3573391  53.8837071  97.2627217  39.7638583
  55.1928199  96.5688735  40.0747873  56.8477783 106.9590803  41.2907656
  56.8053962 107.1851650  40.3616188  57.7640482 106.7254178  41.4393457
  54.1883280  94.5351402  44.9734626  54.8282659  94.3940161  44.2757589
  53.3560811  94.2485915  44.5973228  54.9643584 103.8353832  41.0869618
  55.7584182 103.3404153  40.8852193  54.2535276 103.3071696  40.7237324
  59.7838428 106.2171928  45.4381986  59.8375451 106.7862864  46.2059702
  58.9153210 106.3873813  45.0736023  51.2726347  97.9796914  37.1629371
  50.3423935  97.9181370  37.3799333  51.3683819  97.4572867  36.3666012
  51.1911896  94.5051727  39.7507613  51.4518714  95.4197060  39.6416773
  52.0129069  94.0376170  39.9004226  52.6636822  95.9189484  46.9206437
  53.3359875  95.7106846  46.2719086  51.8366608  95.7211570  46.4811670
  57.5414860 104.4082854  44.7667456  57.4025946 104.0401639  45.6393394
  56.7529456 104.9230494  44.5951413  58.1363012 109.5091951  36.1092992
  58.3114768 109.0379994  36.9238615  57.4495800 110.1357717  36.3374253
  59.0920075 103.7864457  42.1556293  58.7569908 103.7465227  43.0513943
  58.5924021 103.1209173  41.6826704  53.0664319  99.1932087  47.6808874
  52.9284117  98.4612326  48.2820414  53.9769242  99.1040987  47.3993062
  62.0279267 101.1320492  32.4293353  61.4108437 100.4067320  32.3326406
  61.5595755 101.8929852  32.0860427  55.6946620  98.9052047  47.1692554
  56.4046238  98.2645239  47.1279173  55.6515928  99.1564941  48.0918735
  52.7024097 112.6581314  42.8832852  52.9420695 113.2899838  43.5611871
  51.8593294 112.3069354  43.1698212  53.8177813  95.3505916  31.5514657
  52.9407279  95.2294717  31.1876904  54.2935566  94.5591994  31.2993546
  45.3379953 100.1383076  41.6456164  46.0250993  99.8244806  41.0577180
  45.1828081 101.0424440  41.3723416  50.1414675  95.0273272  46.0741188
  50.0572864  94.4198942  45.3391598  49.3197381  95.5182290  46.0750684
  57.2151959 108.4660436  45.2874356  57.1422130 109.2715408  45.7993661
  56.7729352 108.6652402  44.4622378  57.0041739 107.7032206  38.7977178
  56.2209260 108.2453886  38.8915402  57.7034484 108.2206186  39.1971419
  59.6750643 108.3647270  47.4432515  60.3878615 108.9994735  47.3708416
  59.1840671 108.4611136  46.6272517  61.3968169 102.2698523  39.0149807
  60.4624448 102.3899985  38.8454511  61.5744838 101.3670990  38.7509816
  54.7262556 106.1141714  48.2638086  55.4272016 106.7478197  48.4167480
  54.2557671 106.4556445  47.5033725  62.8516952 104.4559663  36.5485993
  63.1276796 104.3416258  37.4579867  61.9821451 104.0577148  36.5098166
  59.4871016 108.7046014  40.1918806  59.6693410 107.8867670  40.6546559
  60.3104002 108.9213707  39.7543696  59.8213181 107.6314199  37.4533855
  60.3500948 107.1206654  36.8404017  60.0841401 107.3156730  38.3179388
  50.3230274 105.6478069  45.1969188  50.9083711 104.9021757  45.3297093
  50.1255113 105.9582025  46.0805852  53.1768929 108.6829316  40.2131631
  52.5079305 109.1675444  39.7295671  53.0381799 108.9298537  41.1275009
  44.9147929  98.2183669  43.9173632  44.9532028  97.6847260  44.7110750
  44.4088222  97.6918874  43.2984609  57.3174198 110.7173060  46.8114289
  57.8692506 110.8804681  47.5763374  57.6580391 111.3077497  46.1394314
  52.2938691  93.0648209  47.4136174  52.3580018  93.9263040  47.0013572
  52.2305811  92.4522211  46.6808532  51.7690964  95.1371342  51.0609208
  52.3963002  94.7548419  51.6746732  50.9118883  94.9185544  51.4264901
  62.1685072 105.5434317  52.6662944  62.7124976 106.1564275  52.1717898
  61.5871917 106.1013896  53.1829957  48.5456506  96.9447771  36.9927563
  48.8409947  96.0358449  36.9394617  47.6444542  96.9235511  36.6708565
  60.4542585 108.6655035  43.7977971  60.3293725 107.8644775  43.2888917
  61.1121676 109.1601229  43.3091941  52.0750753  95.0203768  42.9755112
  51.3537339  95.6339735  42.8362585  52.8644009  95.5561532  42.8971757
  62.5177494 106.4664055  45.4257521  61.5707829 106.3469406  45.3535848
  62.8660267 105.5786553  45.5083783  50.2744348  94.6261869  37.1166888
  49.9457054  93.7459248  36.9341994  50.6283719  94.5709537  38.0043277
  59.5223927 106.2616771  41.6261874  59.3748889 105.3333479  41.8069444
  60.3477420 106.2836862  41.1418949  53.3886171  94.9134839  37.4842366
  53.7282244  95.4420760  36.7620974  53.8358292  95.2515245  38.2600932
  63.1258049 107.0845330  42.7126746  64.0504596 106.8788192  42.5751198
  62.9573352 106.8361731  43.6216088  55.3754318  93.4109460  35.6835659
  56.0962681  93.7890713  35.1799375  54.7519622  94.1298337  35.7870636
  54.2584663  97.0740322  43.1964735  54.1129243  97.3880625  44.0889017
  53.7809866  97.6925223  42.6435634  56.1181045  94.0642870  43.2445625
  56.1042614  93.1683964  42.9077923  56.8353474  94.0713534  43.8783911
  62.9153365 107.6030998  38.0688838  63.0890242 107.0377420  37.3162690
  63.4082256 108.4031893  37.8868328  48.7330325  99.6145667  46.1352397
  48.1883793 100.3905475  46.2672671  49.6109675  99.9616471  45.9771518
  63.9028537 106.9197762  35.1685736  64.5979442 107.5404455  35.3873051
  64.2451688 106.0693113  35.4438114  49.5196347  98.7415563  49.0282553
  48.7778083  98.8898198  49.6147184  49.1989091  99.0023829  48.1649303
  65.8019961 104.3697468  36.6973067  66.3271285 104.7084740  35.9722387
  65.7142313 103.4344483  36.5136201  57.4640009 108.2831541  48.8262943
  57.7727136 108.0380688  49.6985643  58.2615491 108.4878180  48.3381814
  57.4860621 110.4369451  41.0568320  57.0465612 109.9445830  41.7501177
  58.2368738 109.8942418  40.8160395  49.9652960 106.6280992  41.0592948
  50.7910980 106.3284764  40.6791592  49.6147012 105.8588614  41.5082737
  54.9334493 105.9807460  43.1290622  54.3114503 105.3178165  42.8292850
  55.6039360 106.0068592  42.4464269  48.1661565 104.5467318  42.0181882
  47.3293474 104.1189493  41.8365883  48.1385211 104.7399761  42.9552673
  54.4948000 104.5311383  36.6049082  54.6436121 105.2146848  35.9515755
  55.3014444 104.5116473  37.1198538  52.2500633 100.5576561  37.6110151
  52.0046675  99.6538891  37.8090361  52.4196548 100.5593711  36.6689629
  51.5196281  96.2904918  35.1096313  50.8265526  96.3649273  34.4536349
  51.2748033  95.5265262  35.6317830  57.9943406 107.0259514  34.0760830
  57.4217373 107.6449701  33.6231302  58.5676200 107.5758875  34.6100752
  61.2140666 107.3096664  35.2069412  62.1471339 107.2442226  35.4102287
  61.1263878 108.1452931  34.7483945  63.8428682 106.6262534  32.1673360
  63.7642314 106.2922398  33.0609117  64.6638349 107.1184302  32.1664832
  58.3790204  98.3620326  31.4176882  59.3249309  98.2326535  31.4865300
  58.0004449  97.6234988  31.8946310  58.2628897 102.4138073  52.8777539
  59.1831906 102.5916672  53.0717586  58.2278480 101.4694118  52.7257238
  56.5633122  96.2870303  31.3531767  55.6564577  95.9903416  31.4294481
  56.8409103  95.9900121  30.4866054  47.4811062  97.6076666  41.8030814
  47.1613846  96.7541974  41.5105188  46.9344490  97.8225244  42.5588781
  51.2590969 100.3239107  45.5200320  51.4776979 101.2556215  45.5388354
  51.6716743  99.9647082  46.3055124  55.3331906  93.1457238  31.4943747
  56.1951070  93.4712136  31.7539564  55.5182250  92.3588734  30.9816812
  47.3499322 101.2279578  43.7723935  46.6562793 100.8133531  43.2593890
  48.0972313 101.2700114  43.1757354  55.9950105  99.3269452  53.7268131
  55.5117187 100.1269812  53.9332020  56.0811044  99.3377397  52.7735575
  49.2636064 101.1597832  41.6489950  49.2406753 101.2585519  40.6971833
  49.5736701 102.0062982  41.9707116  51.9223442 103.2173987  45.7636565
  52.8766696 103.1857929  45.6966496  51.7235966 102.7564610  46.5786791
  52.5122824 101.7875103  48.3307362  53.3315713 102.2819181  48.3542200
  52.7859632 100.8707071  48.3024930  50.2773671 108.7593606  42.7806763
  50.1428139 107.9994007  42.2144761  49.8605733 109.4834506  42.3135551
  61.4132634 103.9430530  31.7883338  62.1168484 104.1480532  32.4040993
  60.6895283 104.5107291  32.0532421  62.2430444  99.6940391  37.9085608
  62.1865646 100.1508942  37.0693240  62.7958787  98.9331075  37.7308451
  53.4342797 109.6562923  42.9925205  53.3175181 110.6008356  42.8903895
  52.6135243 109.3536485  43.3811004  63.3219332 104.3813059  33.8381798
  64.1564935 103.9494257  33.6559273  63.1603674 104.2095072  34.7658692
  62.9765224 100.8845172  35.2038137  62.9214027 100.7189444  34.2626581
  62.3511279 101.5921205  35.3600327  47.7657739  96.1213236  49.0299559
  48.4116602  95.6112190  49.5186785  47.5574890  96.8581918  49.6042985
  60.2911131 103.1894084  54.5291700  61.1602290 103.3634736  54.1678335
  59.8117882 104.0088501  54.4067429  56.2861349  90.3853281  34.7823456
  56.2740019  91.3295121  34.9391726  57.1784771  90.2023427  34.4882917
  54.4597311 110.3091185  46.2081134  55.3624558 110.3414795  46.5247629
  54.2334681 109.3791636  46.2227469  56.2150913 109.0622172  42.8691212
  55.2646544 109.0624033  42.7555585  56.5183399 108.3154906  42.3527247
  71.9503607 114.8982710  43.9336975  72.5882017 114.7789457  43.2300315
  71.8324449 115.8463554  43.9924927  68.7593313 114.8510138  43.8698499
  68.4211824 114.7351203  42.9819034  69.6283081 114.4501303  43.8499505
  64.6180129 116.7045614  39.8595390  64.0544994 116.6135551  39.0911678
  64.5032524 115.8845519  40.3397883  69.2413096 116.0044990  49.8284705
  69.2301737 115.6097788  48.9565209  69.4033735 115.2711062  50.4218476
  62.1644561 118.1996806  42.6979611  62.9565852 117.8587631  42.2825910
  62.4041211 118.3091781  43.6181764  70.1979687 120.3716582  35.1709855
  69.5467667 120.9570663  34.7843869  70.9924050 120.9022777  35.2304893
  64.1235314 117.4605719  35.5696990  64.8966190 116.9134706  35.4309865
  64.4760713 118.3249969  35.7811451  65.9620357 118.7882102  48.7763889
  65.6710223 119.6927732  48.6610555  66.5977341 118.8298629  49.4907958
  66.8876564 116.1658950  45.3665249  67.4840136 115.9414972  44.6522211
  66.9451535 115.4243696  45.9690696  66.4601592 113.6198385  33.2015439
  66.7127113 113.0979907  32.4398902  65.5226151 113.4564531  33.3042123
  71.5044875 112.6234164  41.0090183  72.2907964 112.2053587  40.6580600
  71.7683579 113.5280256  41.1771831  71.6754952 118.0607014  35.7078840
  71.0400785 118.1341641  36.4199744  71.3452359 118.6500613  35.0297919
  76.9053302 112.5609397  41.9123161  77.6378474 111.9908614  42.1460991
  76.1492658 112.1730997  42.3529667  66.1797881 115.5226491  35.4039814
  66.0634139 114.8471395  36.0720899  66.2900141 115.0358865  34.5871967
  68.5229422 114.9836638  39.1086504  68.1587629 114.4567259  39.8199425
  69.3796538 114.5935107  38.9352989  68.1634909 110.0126538  34.1047852
  68.3309311 110.8806775  34.4718323  67.9732078 110.1753820  33.1809141
  70.9210242 118.4743517  45.7713683  70.6210965 119.3768556  45.6629490
  70.5761302 118.2075700  46.6234835  64.3722724 114.9257314  41.8050387
  63.4473220 114.7933528  42.0128079  64.6207137 115.7051533  42.3020329
  74.3207386 110.9926057  43.4511120  73.4124263 110.9241466  43.1569881
  74.2694982 111.4698002  44.2792945  68.1424130 112.4684196  35.0894519
  68.0223755 112.9141246  35.9279999  67.4476718 112.8169513  34.5308057
  61.7331535 114.5690587  42.6394176  61.8623916 114.8225066  43.5533588
  61.0528986 115.1618295  42.3198831  65.9031022 125.2387837  38.7384650
  65.8255052 126.1895662  38.8173131  65.2992665 124.8933710  39.3959577
  68.3948252 112.4115703  51.3946017  67.6181586 112.9709623  51.3848882
  69.0338815 112.8972486  51.9160887  76.1869032 109.1942496  45.2288994
  75.5443413 109.4875029  44.5828788  75.6823961 109.0795416  46.0342190
  73.8409196 112.9405669  35.9174853  74.7527052 113.1733056  35.7422551
  73.3318843 113.5242713  35.3549932  66.6494624 115.2201156  50.9563984
  67.3909308 115.7586200  50.6798808  65.9431609 115.8467445  51.1135536
  72.1249964 117.3630297  49.5536146  72.5333320 116.9212707  48.8090778
  71.4027225 116.7882924  49.8070339  68.4781034 112.3002903  46.9269703
  69.3242229 112.7242317  47.0704352  68.4179671 111.6436528  47.6208266
  72.4478778 117.9231487  43.3088435  71.8187641 118.0877201  42.6064502
  72.0604440 118.3373097  44.0799399  76.3268010 118.8585925  40.6632798
  75.6419048 119.2384826  40.1129832  76.4111859 119.4681252  41.3964746
  71.6280479 109.9607272  48.5850876  71.3841411 110.7149332  48.0485152
  71.9040409 110.3392619  49.4198123  73.5818942 116.5045884  47.2628142
  73.7935837 117.1477644  46.5862523  73.5348690 115.6708201  46.7950072
  71.1845171 109.1163705  44.1664714  70.3229650 109.4144958  44.4581452
  71.2107605 109.3334104  43.2345747  68.0006740 117.6605895  40.5738520
  68.4645086 117.9393598  39.7843142  67.7363538 116.7589340  40.3911610
  64.8930821 117.2077377  43.5118283  65.4632178 117.6364645  42.8735767
  65.4838933 116.9259962  44.2102469  66.9375626 113.7829048  37.3828085
  67.6399670 114.2350091  37.8502011  66.6056255 113.1412867  38.0107978
  65.3855988 112.3740804  51.7579294  64.7554648 113.0557085  51.9914691
  65.2792076 112.2623886  50.8132432  60.6800960 112.0412600  42.6845218
  59.8900014 112.2970129  42.2085329  61.1712208 112.8560938  42.7897259
  74.6964770 119.3817840  45.4350499  75.5182213 118.9798027  45.1533181
  74.6927173 119.2786074  46.3866615  62.6315706 112.4057180  39.6428695
  61.8346869 112.5175874  40.1612191  62.4041298 112.7443832  38.7769586
  68.4621373 118.9301883  47.5911210  68.5265806 119.3922290  48.4269381
  67.7532297 118.2999248  47.7193519  58.9638663 112.2943091  45.1160209
  59.2146702 113.1790101  45.3817785  59.4998212 112.1147692  44.3435301
  82.7870763 115.7256588  41.7835471  82.0334471 115.1563986  41.6279475
  82.9218304 115.6919253  42.7306105  68.1769391 120.5969990  37.4590190
  68.0415066 121.4421526  37.8875038  68.7179203 120.7989268  36.6956124
  61.6298788 118.1145428  38.0318115  62.1423309 118.9088679  38.1823680
  62.2821501 117.4171719  37.9651717  63.4393673 121.2311185  40.1140868
  63.6160301 122.1529149  39.9261852  64.2350506 120.9169604  40.5435248
  62.7246029 113.2775817  49.9903031  62.6099545 112.3761074  50.2910130
  61.8690547 113.5239513  49.6387848  69.8037867 121.2193557  51.5890532
  69.3601721 120.4329935  51.2711437  70.4655081 121.4072707  50.9234423
  64.5624988 122.7489358  46.1151211  65.1132413 122.6206422  45.3428204
  63.7236464 123.0484247  45.7646103  71.9019105 121.4996357  49.6171933
  71.8837581 122.3205238  49.1252202  72.8239025 121.3750432  49.8422074
  68.3592159 119.0140486  50.4595442  68.8920496 118.2528774  50.2294750
  67.8306241 118.7214138  51.2019596  59.5947705 116.4434083  38.8077686
  60.4322927 116.8531091  38.5911393  59.7725973 115.5033525  38.7777879
  71.4912137 114.1109163  34.4961519  70.9758761 114.8813768  34.7349906
  71.2189446 113.4374299  35.1194580  69.0759248 108.9558864  39.5546757
  68.2200844 108.5665715  39.3752396  69.4886200 109.0350825  38.6946542
  76.4646411 116.8641518  36.4314692  75.6875854 116.5252677  35.9869854
  77.1437892 116.8694141  35.7569657  71.2798440 111.9836255  36.3221300
  70.9748576 112.2982405  37.1731443  72.2328882 112.0617675  36.3648633
  69.7244872 118.1426479  37.9714254  69.1966234 117.4079238  37.6587491
  69.2232375 118.9201155  37.7254222  74.7037718 116.3375499  43.0881300
  74.0461393 117.0274761  43.1761429  75.5078117 116.7271931  43.4315286
  64.4563600 108.8046145  40.3320865  65.0307352 108.5821327  39.5994058
  65.0434582 108.8734840  41.0849467  73.5143177 114.6919872  41.1385242
  74.0275059 115.3249864  41.6406951  74.1644401 114.0921067  40.7728602
  64.7833187 110.8350606  34.3516750  63.9470499 111.1725293  34.6726025
  64.6437956 110.6999586  33.4143887  66.7586267 105.6787394  39.0595935
  66.1050680 105.3636411  38.4352549  66.7166742 105.0563134  39.7855758
  67.8697472 115.9606689  30.9749227  66.9624534 115.7295942  31.1740376
  68.3668504 115.1644308  31.1623208  70.7765551 124.6704196  33.8945913
  70.1027250 124.9735893  34.5030871  71.1631373 125.4733277  33.5451370
  69.9924008 112.1669327  43.3843582  69.0746569 112.3884274  43.2265270
  70.4084151 112.2415638  42.5255290  70.7759056 113.5660743  38.5146263
  71.5230875 114.0782140  38.2053385  71.0450645 113.2444796  39.3750656
  69.0485706 116.0619284  35.4973217  68.1396925 115.7778317  35.5945687
  69.0780790 116.4818362  34.6376524  74.2804973 119.6725873  39.2664384
  73.8267300 118.8316783  39.3229575  73.6498940 120.3087272  39.6039165
  73.2237893 110.6017859  40.4965052  72.4860650 110.0895246  40.8275294
  73.4764666 110.1618241  39.6848329  72.7237912 121.5102370  40.2014203
  73.0160887 122.0707427  39.4826568  73.2336533 121.8030931  40.9567362
  59.6173876 113.7824798  39.4788419  59.4198276 113.1894159  38.7539486
  59.0620540 113.4777008  40.1964358  67.5970600 113.6747904  41.5983012
  67.6519210 112.7221741  41.5225489  66.7861802 113.8307344  42.0824311
  68.7461794 117.6028028  32.8361295  68.3081223 116.8863886  32.3766933
  69.4872234 117.8304142  32.2746387  65.5362960 112.2924964  39.3573391
  64.7230825 112.5919135  39.7638583  66.0321954 111.8980653  40.0747873
  67.6871538 122.2882721  41.2907656  67.6447716 122.5143567  40.3616188
  68.6034236 122.0546096  41.4393457  71.1337171 112.7566789  48.1888285
  71.4886559 112.9838262  49.0482751  71.7809303 113.0885165  47.5665540
  76.8634908 115.8785225  38.8937614  76.7252807 116.0686821  37.9658803
  76.5071127 116.6404607  39.3505665  65.0277034 109.8643320  44.9734626
  65.6676414 109.7232079  44.2757589  64.1954565 109.5777833  44.5973228
  76.8904288 117.9461752  43.9048885  77.3240795 117.8537041  44.7531940
  77.6035869 117.9219252  43.2668901  65.8037338 119.1645750  41.0869618
  66.5977937 118.6696070  40.8852193  65.0929031 118.6363613  40.7237324
  70.6232183 121.5463846  45.4381986  70.6769205 122.1154782  46.2059702
  69.7546964 121.7165731  45.0736023  62.1120102 113.3088832  37.1629371
  61.1817690 113.2473287  37.3799333  62.2077574 112.7864785  36.3666012
  62.0305651 109.8343645  39.7507613  62.2912468 110.7488978  39.6416773
  62.8522823 109.3668087  39.9004226  63.5030576 111.2481402  46.9206437
  64.1753630 111.0398764  46.2719086  62.6760363 111.0503488  46.4811670
  77.7519837 117.9885452  46.4381771  77.9455728 118.8931263  46.6841046
  77.6520456 117.5292871  47.2720356  72.8134946 118.1392195  52.0122651
  72.6620453 117.9102747  51.0952735  72.8039626 119.0962796  52.0253996
  69.5820283 115.7124108  46.9968918  70.5112343 115.8635267  46.8237885
  69.1611313 115.8008129  46.1417564  68.3808614 119.7374772  44.7667456
  68.2419700 119.3693557  45.6393394  67.5923211 120.2522412  44.5951413
  68.9756766 124.8383869  36.1092992  69.1508522 124.3671912  36.9238615
  68.2889554 125.4649635  36.3374253  69.9313830 119.1156375  42.1556293
  69.5963662 119.0757145  43.0513943  69.4317775 118.4501091  41.6826704
  63.9058073 114.5224005  47.6808874  63.7677871 113.7904244  48.2820414
  64.8162997 114.4332905  47.3993062  72.8673021 116.4612409  32.4293353
  72.2502192 115.7359237  32.3326406  72.3989510 117.2221769  32.0860427
  66.5340374 114.2343964  47.1692554  67.2439993 113.5937156  47.1279173
  66.4909682 114.4856859  48.0918735  74.5227153 121.1711318  50.0899133
  74.4639699 120.4870538  49.4229716  74.9246671 121.9130308  49.6379759
  65.2469308 111.2209182  48.9888194  64.7106665 110.7699921  49.6409790
  64.6586017 111.3555091  48.2458658  63.5417852 127.9873231  42.8832852
  63.7814450 128.6191756  43.5611871  62.6987048 127.6361271  43.1698212
  64.6571567 110.6797834  31.5514657  63.7801033 110.5586634  31.1876904
  65.1329320 109.8883912  31.2993546  74.5244560 119.1350901  48.3213113
  73.6371339 118.7976823  48.4439512  75.0943111 118.4033933  48.5581878
  56.1773707 115.4674993  41.6456164  56.8644747 115.1536723  41.0577180
  56.0221836 116.3716358  41.3723416  60.9808429 110.3565190  46.0741188
  60.8966618 109.7490859  45.3391598  60.1591136 110.8474208  46.0750684
  68.0545713 123.7952354  45.2874356  67.9815885 124.6007325  45.7993661
  67.6123107 123.9944320  44.4622378  67.8435493 123.0324124  38.7977178
  67.0603015 123.5745804  38.8915402  68.5428238 123.5498104  39.1971419
  71.1532143 108.8418753  41.4411383  71.6500843 108.0888716  41.1212453
  70.3819125 108.8783070  40.8754592  79.0061901 114.5459119  43.0829675
  78.9951777 115.4283834  42.7123608  78.1379280 114.1930670  42.8884212
  70.5144397 123.6939188  47.4432515  71.2272369 124.3286653  47.3708416
  70.0234426 123.7903054  46.6272517  72.2361924 117.5990441  39.0149807
  71.3018203 117.7191903  38.8454511  72.4138592 116.6962907  38.7509816
  67.7367112 110.9836136  41.1683068  67.3664899 110.4307177  41.8563973
  68.2326204 110.3794270  40.6158068  75.6234475 113.4407760  39.5499841
  76.0894927 114.2735751  39.4760143  76.0741976 112.9752741  40.2545099
  65.5656311 121.4433631  48.2638086  66.2665770 122.0770114  48.4167480
  65.0951426 121.7848363  47.5033725  73.6910706 119.7851581  36.5485993
  73.9670550 119.6708176  37.4579867  72.8215205 119.3869066  36.5098166
  73.3657596 113.9978239  46.0890636  72.7129047 114.2454146  45.4343089
  73.7437976 113.1842377  45.7553113  70.3264770 124.0337932  40.1918806
  70.5087165 123.2159588  40.6546559  71.1497756 124.2505624  39.7543696
  70.6606936 122.9606117  37.4533855  71.1894702 122.4498572  36.8404017
  70.9235155 122.6448647  38.3179388  69.4145170 114.7398050  52.5756673
  68.7385807 114.6392179  53.2459048  70.2372803 114.5837264  53.0392670
  61.1624029 120.9769986  45.1969188  61.7477465 120.2313674  45.3297093
  60.9648867 121.2873943  46.0805852  64.0162684 124.0121234  40.2131631
  63.3473059 124.4967361  39.7295671  63.8775554 124.2590454  41.1275009
  55.7541683 113.5475587  43.9173632  55.7925783 113.0139177  44.7110750
  55.2481976 113.0210792  43.2984609  68.1567952 126.0464977  46.8114289
  68.7086260 126.2096599  47.5763374  68.4974146 126.6369415  46.1394314
  63.1332446 108.3940127  47.4136174  63.1973772 109.2554958  47.0013572
  63.0699566 107.7814129  46.6808532  62.6084718 110.4663260  51.0609208
  63.2356757 110.0840337  51.6746732  61.7512637 110.2477462  51.4264901
  73.0078827 120.8726235  52.6662944  73.5518731 121.4856193  52.1717898
  72.4265672 121.4305813  53.1829957  59.3850261 112.2739689  36.9927563
  59.6803702 111.3650367  36.9394617  58.4838297 112.2527428  36.6708565
  71.2936340 123.9946953  43.7977971  71.1687479 123.1936693  43.2888917
  71.9515431 124.4893146  43.3091941  62.9144508 110.3495685  42.9755112
  62.1931094 110.9631653  42.8362585  63.7037764 110.8853450  42.8971757
  73.3571248 121.7955973  45.4257521  72.4101584 121.6761324  45.3535848
  73.7054021 120.9078471  45.5083783  65.7170821 107.6850112  49.2495763
  66.2405223 107.9312408  50.0122073  65.4983155 108.5170147  48.8298901
  61.1138102 109.9553786  37.1166888  60.7850809 109.0751165  36.9341994
  61.4677473 109.9001455  38.0043277  70.3617681 121.5908689  41.6261874
  70.2142644 120.6625397  41.8069444  71.1871175 121.6128780  41.1418949
  64.2279926 110.2426756  37.4842366  64.5675998 110.7712677  36.7620974
  64.6752046 110.5807162  38.2600932  73.9651803 122.4137248  42.7126746
  74.8898351 122.2080109  42.5751198  73.7967107 122.1653649  43.6216088
  66.9223366 108.6263807  46.9345434  66.5820187 107.8271620  47.3366114
  66.2162373 108.9265518  46.3622267  66.2148073 108.7401378  35.6835659
  66.9356435 109.1182631  35.1799375  65.5913377 109.4590255  35.7870636
  70.3579196 109.4446527  36.6193991  70.5742810 110.3271165  36.3182819
  69.8773263 109.0532740  35.8899633  65.0978417 112.4032240  43.1964735
  64.9522998 112.7172543  44.0889017  64.6203621 113.0217140  42.6435634
  66.9574800 109.3934788  43.2445625  66.9436369 108.4975881  42.9077923
  67.6747228 109.4005452  43.8783911  68.8100931 109.8272128  45.2898752
  68.5518708 110.7489199  45.2883083  68.2785971 109.4302563  45.9799217
  73.7547119 122.9322915  38.0688838  73.9283997 122.3669338  37.3162690
  74.2476011 123.7323810  37.8868328  59.5724079 114.9437584  46.1352397
  59.0277547 115.7197392  46.2672671  60.4503429 115.2908389  45.9771518
  66.3611696 108.2749168  38.5133195  66.4827607 107.3465814  38.7124083
  66.0713738 108.2887854  37.6011511  79.6086511 115.6959338  39.6879138
  80.0517657 114.9466663  39.2898261  78.7313021 115.6869475  39.3052870
  74.7422292 122.2489680  35.1685736  75.4373197 122.8696372  35.3873051
  75.0845442 121.3985031  35.4438114  60.3590101 114.0707481  49.0282553
  59.6171837 114.2190116  49.6147184  60.0382845 114.3315746  48.1649303
  76.6413715 119.6989385  36.6973067  77.1665039 120.0376658  35.9722387
  76.5536068 118.7636401  36.5136201  68.3033764 123.6123459  48.8262943
  68.6120890 123.3672606  49.6985643  69.1009246 123.8170097  48.3381814
  68.3254376 125.7661369  41.0568320  67.8859366 125.2737747  41.7501177
  69.0762493 125.2234336  40.8160395  60.8046715 121.9572909  41.0592948
  61.6304735 121.6576681  40.6791592  60.4540767 121.1880532  41.5082737
  65.7728248 121.3099378  43.1290622  65.1508257 120.6470083  42.8292850
  66.4433115 121.3360509  42.4464269  59.0055320 119.8759236  42.0181882
  58.1687228 119.4481410  41.8365883  58.9778965 120.0691679  42.9552673
  76.3307621 120.3322289  52.0024265  75.5403165 120.3146428  51.4628764
  76.0940976 120.8710583  52.7573301  76.4505496 117.1814755  49.3156993
  76.5003501 117.0164763  50.2572516  76.3419419 116.3142014  48.9254874
  65.3341755 119.8603301  36.6049082  65.4829875 120.5438765  35.9515755
  66.1408198 119.8408391  37.1198538  73.7409259 113.1645683  50.6316300
  74.6419121 113.0252148  50.3400298  73.8157233 113.3300138  51.5714478
  68.0752064 110.5412538  49.4769486  67.2055373 110.8346104  49.2052075
  68.3111544 111.1252983  50.1976750  77.9523693 119.6011697  49.5599015
  77.6608501 119.9641677  50.3962476  77.3395824 118.8878705  49.3812347
  79.1519375 117.1664577  42.0801585  79.9866267 117.6054381  42.2439145
  79.2878504 116.6903230  41.2609831  76.2010881 114.7244311  48.0279073
  76.6765003 114.9171958  47.2197924  75.2776447 114.7803497  47.7822457
  63.0894388 115.8868479  37.6110151  62.8440430 114.9830809  37.8090361
  63.2590302 115.8885629  36.6689629  70.7791098 106.7592155  46.9934907
  71.2973042 107.4953182  46.6681395  70.4246230 107.0656148  47.8281666
  62.3590035 111.6196836  35.1096313  61.6659280 111.6941191  34.4536349
  62.1141787 110.8557180  35.6317830  68.8337160 122.3551431  34.0760830
  68.2611127 122.9741619  33.6231302  69.4069954 122.9050793  34.6100752
  74.9012550 111.6010071  46.2607378  75.8529973 111.7008169  46.2819603
  74.7316001 110.8088340  46.7705463  72.9226930 108.6865655  46.4466779
  72.3276862 108.9670667  45.7513268  72.6376626 109.1759556  47.2183521
  72.0534420 122.6388582  35.2069412  72.9865093 122.5734143  35.4102287
  71.9657633 123.4744848  34.7483945  74.6822437 121.9554452  32.1673360
  74.6036068 121.6214315  33.0609117  75.5032104 122.4476220  32.1664832
  77.3800628 114.8216191  45.3749678  77.3476948 113.8832192  45.5609362
  77.9901252 114.9000228  44.6415503  69.2183959 113.6912244  31.4176882
  70.1643064 113.5618452  31.4865300  68.8398204 112.9526906  31.8946310
  77.5295116 111.6127235  45.4207961  77.0134165 110.8285691  45.2337890
  78.4135065 111.2845951  45.5854481  75.1905843 105.3568250  41.3803774
  74.9930665 105.0483338  42.2647106  75.8005549 106.0829889  41.5101704
  83.1977178 115.8832198  44.5155715  83.9280566 115.6217486  45.0763418
  82.5884123 115.1460920  44.5557783  81.2792475 114.0240061  45.1130166
  80.5525639 113.8896026  44.5046658  80.8639762 114.3316889  45.9186884
  69.1022651 117.7429990  52.8777539  70.0225661 117.9208589  53.0717586
  69.0672234 116.7986036  52.7257238  67.4026876 111.6162221  31.3531767
  66.4958331 111.3195333  31.4294481  67.6802857 111.3192039  30.4866054
  58.3204816 112.9368584  41.8030814  58.0007601 112.0833892  41.5105188
  57.7738245 113.1517162  42.5588781  62.0984724 115.6531025  45.5200320
  62.3170734 116.5848133  45.5388354  62.5110498 115.2938999  46.3055124
  69.0188942 106.1599110  37.5076009  68.2089670 105.8146195  37.8831255
  69.7073359 105.8506654  38.0963620  70.9479490 105.2377157  39.1300305
  71.5010529 105.6572610  39.7890328  71.1849576 104.3112905  39.1723261
  66.1725661 108.4749156  31.4943747  67.0344825 108.8004054  31.7539564
  66.3576005 107.6880652  30.9816812  58.1893076 116.5571495  43.7723935
  57.4956548 116.1425448  43.2593890  58.9366067 116.5992032  43.1757354
  74.3258297 107.3477682  38.6378970  73.7456966 108.0062486  38.2557022
  74.0594230 106.5255027  38.2266387  72.7761863 106.7482740  40.8400290
  73.2761642 106.8599274  40.0314609  73.4197471 106.4443793  41.4801098
  66.8343859 114.6561370  53.7268131  66.3510941 115.4561730  53.9332020
  66.9204798 114.6669314  52.7735575  60.1029819 116.4889749  41.6489950
  60.0800507 116.5877436  40.6971833  60.4130455 117.3354900  41.9707116
  62.7617197 118.5465904  45.7636565  63.7160450 118.5149847  45.6966496
  62.5629720 118.0856528  46.5786791  63.3516579 117.1167020  48.3307362
  64.1709468 117.6111099  48.3542200  63.6253387 116.1998988  48.3024930
  73.1083175 109.5077773  37.6935318  72.2209030 109.7927423  37.4755513
  73.5237164 109.3471536  36.8462595  76.4597711 109.5324294  41.4089657
  77.2358101 110.0220746  41.6814274  75.7345845 109.9582348  41.8661527
  78.8970270 110.2451913  42.4663598  79.4914761 110.0047649  41.7556906
  78.9696854 109.5259043  43.0937134  61.1167426 124.0885524  42.7806763
  60.9821894 123.3285925  42.2144761  60.6999488 124.8126424  42.3135551
  72.2526389 119.2722447  31.7883338  72.9562239 119.4772450  32.4040993
  71.5289037 119.8399209  32.0532421  73.0824199 115.0232309  37.9085608
  73.0259400 115.4800860  37.0693240  73.6352541 114.2622993  37.7308451
  76.8929005 110.8122040  38.7335728  76.6365939 110.4118676  39.5643935
  76.2681873 111.5265834  38.6085867  81.2041343 113.5518114  41.2407019
  80.6440901 113.6211303  42.0138581  80.5984846 113.3759098  40.5206515
  64.2736551 124.9854841  42.9925205  64.1568936 125.9300273  42.8903895
  63.4528998 124.6828402  43.3811004  74.1613086 119.7104976  33.8381798
  74.9958690 119.2786175  33.6559273  73.9997429 119.5386990  34.7658692
  73.8158978 116.2137090  35.2038137  73.7607782 116.0481361  34.2626581
  73.1905033 116.9213123  35.3600327  58.6051493 111.4505154  49.0299559
  59.2510357 110.9404108  49.5186785  58.3968644 112.1873836  49.6042985
  71.1304885 118.5186002  54.5291700  71.9996045 118.6926654  54.1678335
  70.6511637 119.3380418  54.4067429  67.1255104 105.7145199  34.7823456
  67.1133773 106.6587039  34.9391726  68.0178526 105.5315344  34.4882917
  65.2991066 125.6383103  46.2081134  66.2018312 125.6706713  46.5247629
  65.0728436 124.7083554  46.2227469  67.0544668 124.3914089  42.8691212
  66.1040299 124.3915951  42.7555585  67.3577154 123.6446824  42.3527247
  62.9448984 108.5972771  53.1274574  63.8080446 108.2409576  53.3377898
  62.3714395 108.2586666  53.8149978  82.7897361 130.2274628  43.9336975
  83.4275771 130.1081375  43.2300315  82.6718204 131.1755472  43.9924927
  79.5987067 130.1802056  43.8698499  79.2605579 130.0643120  42.9819034
  80.4676836 129.7793221  43.8499505  75.4573883 132.0337532  39.8595390
  74.8938748 131.9427469  39.0911678  75.3426278 131.2137437  40.3397883
  80.0806850 131.3336907  49.8284705  80.0695491 130.9389706  48.9565209
  80.2427490 130.6002980  50.4218476  73.0038315 133.5288724  42.6979611
  73.7959607 133.1879548  42.2825910  73.2434965 133.6383699  43.6181764
  81.0373442 135.7008500  35.1709855  80.3861422 136.2862580  34.7843869
  81.8317805 136.2314695  35.2304893  74.9629069 132.7897637  35.5696990
  75.7359945 132.2426624  35.4309865  75.3154468 133.6541886  35.7811451
  76.8014112 134.1174019  48.7763889  76.5103977 135.0219650  48.6610555
  77.4371096 134.1590547  49.4907958  77.7270318 131.4950868  45.3665249
  78.3233891 131.2706890  44.6522211  77.7845290 130.7535613  45.9690696
  77.2995347 128.9490303  33.2015439  77.5520867 128.4271824  32.4398902
  76.3619906 128.7856449  33.3042123  82.3438630 127.9526081  41.0090183
  83.1301719 127.5345505  40.6580600  82.6077334 128.8572174  41.1771831
  82.5148707 133.3898932  35.7078840  81.8794540 133.4633558  36.4199744
  82.1846113 133.9792531  35.0297919  87.7447057 127.8901315  41.9123161
  88.4772229 127.3200531  42.1460991  86.9886412 127.5022915  42.3529667
  77.0191635 130.8518409  35.4039814  76.9027894 130.1763312  36.0720899
  77.1293895 130.3650783  34.5871967  79.3623176 130.3128556  39.1086504
  78.9981384 129.7859177  39.8199425  80.2190292 129.9227025  38.9352989
  85.2672477 121.6022889  46.3717770  84.9355802 122.4718300  46.1478985
  84.6718090 121.2859173  47.0511800  79.0028663 125.3418456  34.1047852
  79.1703066 126.2098692  34.4718323  78.8125832 125.5045738  33.1809141
  81.7603997 133.8035435  45.7713683  81.4604720 134.7060474  45.6629490
  81.4155056 133.5367618  46.6234835  75.2116478 130.2549232  41.8050387
  74.2866975 130.1225446  42.0128079  75.4600891 131.0343451  42.3020329
  85.1601140 126.3217975  43.4511120  84.2518018 126.2533383  43.1569881
  85.1088736 126.7989920  44.2792945  78.9817884 127.7976113  35.0894519
  78.8617509 128.2433164  35.9279999  78.2870473 128.1461431  34.5308057
  72.5725289 129.8982505  42.6394176  72.7017670 130.1516984  43.5533588
  71.8922740 130.4910213  42.3198831  76.7424776 140.5679755  38.7384650
  76.6648806 141.5187580  38.8173131  76.1386420 140.2225628  39.3959577
  79.2342006 127.7407620  51.3946017  78.4575340 128.3001541  51.3848882
  79.8732569 128.2264403  51.9160887  87.0262787 124.5234413  45.2288994
  86.3837167 124.8166946  44.5828788  86.5217715 124.4087334  46.0342190
  84.6802950 128.2697586  35.9174853  85.5920807 128.5024973  35.7422551
  84.1712598 128.8534631  35.3549932  77.4888378 130.5493074  50.9563984
  78.2303063 131.0878118  50.6798808  76.7825364 131.1759363  51.1135536
  82.9643718 132.6922214  49.5536146  83.3727074 132.2504625  48.8090778
  82.2420980 132.1174842  49.8070339  79.3174788 127.6294821  46.9269703
  80.1635983 128.0534235  47.0704352  79.2573426 126.9728445  47.6208266
  83.2872533 133.2523405  43.3088435  82.6581395 133.4169119  42.6064502
  82.8998195 133.6665014  44.0799399  87.1661765 134.1877843  40.6632798
  86.4812803 134.5676744  40.1129832  87.2505614 134.7973169  41.3964746
  82.4674233 125.2899189  48.5850876  82.2235165 126.0441250  48.0485152
  82.7434164 125.6684537  49.4198123  84.4212696 131.8337802  47.2628142
  84.6329591 132.4769562  46.5862523  84.3742444 131.0000118  46.7950072
  82.0238925 124.4455622  44.1664714  81.1623404 124.7436876  44.4581452
  82.0501360 124.6626021  43.2345747  78.8400495 132.9897813  40.5738520
  79.3038840 133.2685516  39.7843142  78.5757293 132.0881258  40.3911610
  75.7324576 132.5369295  43.5118283  76.3025933 132.9656563  42.8735767
  76.3232688 132.2551879  44.2102469  77.7769381 129.1120965  37.3828085
  78.4793424 129.5642009  37.8502011  77.4450009 128.4704784  38.0107978
  76.2249742 127.7032722  51.7579294  75.5948403 128.3849003  51.9914691
  76.1185830 127.5915804  50.8132432  71.5194715 127.3704518  42.6845218
  70.7293769 127.6262047  42.2085329  72.0105962 128.1852856  42.7897259
  85.5358524 134.7109757  45.4350499  86.3575968 134.3089945  45.1533181
  85.5320927 134.6077991  46.3866615  73.4709460 127.7349097  39.6428695
  72.6740623 127.8467792  40.1612191  73.2435052 128.0735750  38.7769586
  79.3015128 134.2593801  47.5911210  79.3659560 134.7214208  48.4269381
  78.5926052 133.6291165  47.7193519  69.8032418 127.6235009  45.1160209
  70.0540456 128.5082018  45.3817785  70.3391966 127.4439610  44.3435301
  93.6264517 131.0548506  41.7835471  92.8728226 130.4855904  41.6279475
  93.7612058 131.0211170  42.7306105  79.0163145 135.9261908  37.4590190
  78.8808820 136.7713444  37.8875038  79.5572958 136.1281186  36.6956124
  75.5030485 122.0053488  54.1204545  75.1097431 121.4519686  54.7952189
  76.3196625 122.3164066  54.5111063  72.4692543 133.4437346  38.0318115
  72.9817063 134.2380596  38.1823680  73.1215256 132.7463637  37.9651717
  74.2787427 136.5603102  40.1140868  74.4554056 137.4821067  39.9261852
  75.0744261 136.2461522  40.5435248  78.4198446 123.4211367  51.7124802
  79.1608159 124.0218520  51.6329264  78.6516369 122.6789005  51.1542844
  73.5639784 128.6067734  49.9903031  73.4493299 127.7052991  50.2910130
  72.7084302 128.8531431  49.6387848  80.6431622 136.5485475  51.5890532
  80.1995476 135.7621853  51.2711437  81.3048835 136.7364625  50.9234423
  75.4018743 138.0781276  46.1151211  75.9526168 137.9498339  45.3428204
  74.5630219 138.3776165  45.7646103  82.7412860 136.8288274  49.6171933
  82.7231335 137.6497156  49.1252202  83.6632780 136.7042350  49.8422074
  79.1985914 134.3432404  50.4595442  79.7314251 133.5820692  50.2294750
  78.6699995 134.0506056  51.2019596  82.3655609 119.4492470  45.9889083
  82.0219878 120.3394112  45.9128194  82.7334571 119.2594128  45.1258668
  70.4341459 131.7726000  38.8077686  71.2716681 132.1823009  38.5911393
  70.6119727 130.8325443  38.7777879  82.3305892 129.4401081  34.4961519
  81.8152515 130.2105686  34.7349906  82.0583200 128.7666217  35.1194580
  79.9153003 124.2850782  39.5546757  79.0594599 123.8957632  39.3752396
  80.3279954 124.3642743  38.6946542  81.4452149 121.8197125  43.9538317
  80.9416945 121.7827260  43.1406122  81.7382756 122.7289868  44.0134973
  77.6895035 121.9035855  42.9604498  78.5548032 121.7078663  42.6010388
  77.7572544 121.6746207  43.8873855  87.3040166 132.1933436  36.4314692
  86.5269608 131.8544595  35.9869854  87.9831647 132.1986059  35.7569657
  82.1192195 127.3128173  36.3221300  81.8142330 127.6274322  37.1731443
  83.0722637 127.3909593  36.3648633  80.5638627 133.4718396  37.9714254
  80.0359988 132.7371156  37.6587491  80.0626129 134.2493073  37.7254222
  85.5431473 131.6667417  43.0881300  84.8855147 132.3566678  43.1761429
  86.3471872 132.0563849  43.4315286  75.2957354 124.1338063  40.3320865
  75.8701106 123.9113244  39.5994058  75.8828337 124.2026757  41.0849467
  84.3536931 130.0211790  41.1385242  84.8668813 130.6541781  41.6406951
  85.0038155 129.4212985  40.7728602  75.6226941 126.1642524  34.3516750
  74.7864254 126.5017210  34.6726025  75.4831711 126.0291504  33.4143887
  77.5980022 121.0079312  39.0595935  76.9444434 120.6928329  38.4352549
  77.5560496 120.3855052  39.7855758  78.7091227 131.2898607  30.9749227
  77.8018289 131.0587860  31.1740376  79.2062259 130.4936226  31.1623208
  81.6159306 139.9996114  33.8945913  80.9421004 140.3027811  34.5030871
  82.0025128 140.8025194  33.5451370  80.8317762 127.4961245  43.3843582
  79.9140324 127.7176192  43.2265270  81.2477906 127.5707556  42.5255290
  81.6152810 128.8952661  38.5146263  82.3624629 129.4074058  38.2053385
  81.8844400 128.5736714  39.3750656  79.8879460 131.3911202  35.4973217
  78.9790679 131.1070234  35.5945687  79.9174544 131.8110280  34.6376524
  85.1198728 135.0017791  39.2664384  84.6661055 134.1608701  39.3229575
  84.4892694 135.6379189  39.6039165  84.0631647 125.9309777  40.4965052
  83.3254404 125.4187163  40.8275294  84.3158421 125.4910159  39.6848329
  83.5631667 136.8394288  40.2014203  83.8554641 137.3999345  39.4826568
  84.0730287 137.1322849  40.9567362  84.1643275 118.7086029  41.0906821
  84.4702151 117.8483393  40.8032736  84.8895879 119.3003649  40.8905815
  70.4567631 129.1116716  39.4788419  70.2592030 128.5186076  38.7539486
  69.9014295 128.8068926  40.1964358  78.4364354 129.0039822  41.5983012
  78.4912964 128.0513659  41.5225489  77.6255556 129.1599261  42.0824311
  79.5855548 132.9319945  32.8361295  79.1474978 132.2155804  32.3766933
  80.3265989 133.1596060  32.2746387  76.3756714 127.6216882  39.3573391
  75.5624580 127.9211052  39.7638583  76.8715708 127.2272571  40.0747873
  78.5265292 137.6174639  41.2907656  78.4841471 137.8435485  40.3616188
  79.4427991 137.3838013  41.4393457  81.9730926 128.0858706  48.1888285
  82.3280314 128.3130180  49.0482751  82.6203057 128.4177083  47.5665540
  87.7028663 131.2077142  38.8937614  87.5646561 131.3978738  37.9658803
  87.3464882 131.9696525  39.3505665  75.8670789 125.1935237  44.9734626
  76.5070168 125.0523997  44.2757589  75.0348319 124.9069751  44.5973228
  87.7298042 133.2753669  43.9048885  88.1634549 133.1828958  44.7531940
  88.4429623 133.2511170  43.2668901  76.6431093 134.4937668  41.0869618
  77.4371691 133.9987988  40.8852193  75.9322785 133.9655531  40.7237324
  81.4625937 136.8755763  45.4381986  81.5162960 137.4446700  46.2059702
  80.5940719 137.0457648  45.0736023  72.9513856 128.6380750  37.1629371
  72.0211444 128.5765205  37.3799333  73.0471328 128.1156702  36.3666012
  72.8699405 125.1635562  39.7507613  73.1306223 126.0780896  39.6416773
  73.6916578 124.6960005  39.9004226  74.3424331 126.5773320  46.9206437
  75.0147384 126.3690682  46.2719086  73.5154117 126.3795406  46.4811670
  88.5913592 133.3177370  46.4381771  88.7849482 134.2223180  46.6841046
  88.4914210 132.8584789  47.2720356  80.2449903 123.2035261  48.9372098
  79.5977818 123.9025210  48.8436575  81.0150918 123.6371404  49.3048346
  83.6528701 133.4684113  52.0122651  83.5014207 133.2394664  51.0952735
  83.6433380 134.4254714  52.0253996  80.4214037 131.0416025  46.9968918
  81.3506097 131.1927185  46.8237885  80.0005067 131.1300046  46.1417564
  79.2202369 135.0666690  44.7667456  79.0813455 134.6985474  45.6393394
  78.4316965 135.5814329  44.5951413  79.8150521 140.1675786  36.1092992
  79.9902277 139.6963829  36.9238615  79.1283309 140.7941552  36.3374253
  80.7707584 134.4448293  42.1556293  80.4357417 134.4049062  43.0513943
  80.2711530 133.7793008  41.6826704  74.7451828 129.8515923  47.6808874
  74.6071626 129.1196161  48.2820414  75.6556751 129.7624823  47.3993062
  83.7066776 131.7904327  32.4293353  83.0895946 131.0651155  32.3326406
  83.2383264 132.5513687  32.0860427  77.3734129 129.5635882  47.1692554
  78.0833747 128.9229074  47.1279173  77.3303437 129.8148777  48.0918735
  85.3620907 136.5003235  50.0899133  85.3033453 135.8162455  49.4229716
  85.7640426 137.2422225  49.6379759  76.0863063 126.5501100  48.9888194
  75.5500420 126.0991838  49.6409790  75.4979771 126.6847009  48.2458658
  75.4965322 126.0089751  31.5514657  74.6194788 125.8878552  31.1876904
  75.9723075 125.2175829  31.2993546  85.3638315 134.4642819  48.3213113
  84.4765093 134.1268741  48.4439512  85.9336866 133.7325850  48.5581878
  67.0167462 130.7966911  41.6456164  67.7038502 130.4828641  41.0577180
  66.8615590 131.7008276  41.3723416  71.8202184 125.6857107  46.0741188
  71.7360373 125.0782777  45.3391598  70.9984890 126.1766126  46.0750684
  78.8939468 139.1244272  45.2874356  78.8209639 139.9299243  45.7993661
  78.4516861 139.3236237  44.4622378  78.6829248 138.3616042  38.7977178
  77.8996769 138.9037722  38.8915402  79.3821993 138.8790021  39.1971419
  81.9925898 124.1710671  41.4411383  82.4894597 123.4180633  41.1212453
  81.2212879 124.2074988  40.8754592  89.8455655 129.8751037  43.0829675
  89.8345531 130.7575752  42.7123608  88.9773035 129.5222587  42.8884212
  81.3538151 139.0231106  47.4432515  82.0666124 139.6578570  47.3708416
  80.8628180 139.1194972  46.6272517  83.0755678 132.9282358  39.0149807
  82.1411957 133.0483821  38.8454511  83.2532347 132.0254825  38.7509816
  78.5760866 126.3128054  41.1683068  78.2058654 125.7599094  41.8563973
  79.0719959 125.7086187  40.6158068  86.4628230 128.7699677  39.5499841
  86.9288682 129.6027669  39.4760143  86.9135730 128.3044659  40.2545099
  76.4050065 136.7725549  48.2638086  77.1059525 137.4062032  48.4167480
  75.9345180 137.1140281  47.5033725  84.5304461 135.1143499  36.5485993
  84.8064305 135.0000093  37.4579867  83.6608960 134.7160984  36.5098166
  84.4344892 121.1380264  43.5890742  83.5207972 121.3684491  43.7572949
  84.8637994 121.2218709  44.4404774  84.2051351 129.3270156  46.0890636
  83.5522801 129.5746064  45.4343089  84.5831731 128.5134295  45.7553113
  81.1658525 139.3629850  40.1918806  81.3480919 138.5451506  40.6546559
  81.9891511 139.5797542  39.7543696  81.5000690 138.2898035  37.4533855
  82.0288457 137.7790489  36.8404017  81.7628910 137.9740565  38.3179388
  80.2538924 130.0689968  52.5756673  79.5779561 129.9684097  53.2459048
  81.0766558 129.9129181  53.0392670  72.0017783 136.3061904  45.1969188
  72.5871220 135.5605592  45.3297093  71.8042622 136.6165861  46.0805852
  74.8556438 139.3413151  40.2131631  74.1866814 139.8259279  39.7295671
  74.7169308 139.5882372  41.1275009  66.5935438 128.8767504  43.9173632
  66.6319537 128.3431095  44.7110750  66.0875731 128.3502710  43.2984609
  78.9961707 141.3756895  46.8114289  79.5480015 141.5388516  47.5763374
  79.3367900 141.9661333  46.1394314  73.9726200 123.7232045  47.4136174
  74.0367527 124.5846876  47.0013572  73.9093320 123.1106046  46.6808532
  73.4478473 125.7955177  51.0609208  74.0750511 125.4132255  51.6746732
  72.5906391 125.5769379  51.4264901  83.8472581 136.2018152  52.6662944
  84.3912485 136.8148111  52.1717898  83.2659426 136.7597731  53.1829957
  70.2244015 127.6031606  36.9927563  70.5197456 126.6942285  36.9394617
  69.3232051 127.5819346  36.6708565  82.1330094 139.3238870  43.7977971
  82.0081234 138.5228610  43.2888917  82.7909185 139.8185064  43.3091941
  73.7538262 125.6787603  42.9755112  73.0324848 126.2923571  42.8362585
  74.5431518 126.2145368  42.8971757  84.1965003 137.1247891  45.4257521
  83.2495338 137.0053242  45.3535848  84.5447776 136.2370389  45.5083783
  76.5564576 123.0142029  49.2495763  77.0798978 123.2604326  50.0122073
  76.3376909 123.8462064  48.8298901  71.9531857 125.2845704  37.1166888
  71.6244563 124.4043083  36.9341994  72.3071228 125.2293373  38.0043277
  81.2011436 136.9200607  41.6261874  81.0536398 135.9917314  41.8069444
  82.0264929 136.9420697  41.1418949  75.0673680 125.5718674  37.4842366
  75.4069753 126.1004595  36.7620974  75.5145801 125.9099080  38.2600932
  84.8045558 137.7429166  42.7126746  85.7292105 137.5372027  42.5751198
  84.6360861 137.4945567  43.6216088  77.7617121 123.9555725  46.9345434
  77.4213941 123.1563538  47.3366114  77.0556127 124.2557435  46.3622267
  78.4133593 121.0405037  45.3872757  79.2359662 120.5665515  45.2651647
  78.6571656 121.8195521  45.8871443  77.0541827 124.0693295  35.6835659
  77.7750190 124.4474548  35.1799375  76.4307131 124.7882172  35.7870636
  81.1972950 124.7738444  36.6193991  81.4136565 125.6563082  36.3182819
  80.7167017 124.3824658  35.8899633  75.9372172 127.7324158  43.1964735
  75.7916752 128.0464461  44.0889017  75.4597375 128.3509058  42.6435634
  77.7968554 124.7226706  43.2445625  77.7830123 123.8267799  42.9077923
  78.5140983 124.7297369  43.8783911  79.6494685 125.1564046  45.2898752
  79.3912463 126.0781116  45.2883083  79.1179726 124.7594480  45.9799217
  84.5940874 138.2614833  38.0688838  84.7677751 137.6961255  37.3162690
  85.0869765 139.0615728  37.8868328  70.4117834 130.2729502  46.1352397
  69.8671302 131.0489310  46.2672671  71.2897184 130.6200307  45.9771518
  77.2005450 123.6041086  38.5133195  77.3221362 122.6757732  38.7124083
  76.9107493 123.6179772  37.6011511  80.0696641 121.2895996  41.6499915
  80.0918338 121.3535329  40.6951895  80.4864700 120.4500505  41.8440421
  90.4480265 131.0251256  39.6879138  90.8911411 130.2758581  39.2898261
  89.5706775 131.0161392  39.3052870  85.5816046 137.5781597  35.1685736
  86.2766951 138.1988290  35.3873051  85.9239197 136.7276949  35.4438114
  71.1983856 129.3999398  49.0282553  70.4565592 129.5482034  49.6147184
  70.8776600 129.6607664  48.1649303  87.4807470 135.0281303  36.6973067
  88.0058794 135.3668576  35.9722387  87.3929822 134.0928318  36.5136201
  79.1427518 138.9415377  48.8262943  79.4514645 138.6964523  49.6985643
  79.9403000 139.1462015  48.3381814  79.1648130 141.0953286  41.0568320
  78.7253121 140.6029665  41.7501177  79.9156247 140.5526254  40.8160395
  71.6440469 137.2864827  41.0592948  72.4698489 136.9868599  40.6791592
  71.2934521 136.5172449  41.5082737  76.6122002 136.6391295  43.1290622
  75.9902012 135.9762000  42.8292850  77.2826869 136.6652427  42.4464269
  69.8449074 135.2051153  42.0181882  69.0080983 134.7773328  41.8365883
  69.8172720 135.3983597  42.9552673  76.6846530 125.1173083  52.7223128
  76.7334685 125.9935206  52.3400897  77.2269044 124.5750476  52.1494771
  87.1701376 135.6614207  52.0024265  86.3796919 135.6438345  51.4628764
  86.9334730 136.2002500  52.7573301  87.2899251 132.5106673  49.3156993
  87.3397256 132.3456680  50.2572516  87.1813174 131.6433932  48.9254874
  76.1735509 135.1895219  36.6049082  76.3223630 135.8730683  35.9515755
  76.9801953 135.1700309  37.1198538  84.5803013 128.4937601  50.6316300
  85.4812876 128.3544066  50.3400298  84.6550988 128.6592056  51.5714478
  78.9145818 125.8704456  49.4769486  78.0449128 126.1638022  49.2052075
  79.1505299 126.4544901  50.1976750  88.7917447 134.9303614  49.5599015
  88.5002256 135.2933595  50.3962476  88.1789579 134.2170623  49.3812347
  89.9913130 132.4956494  42.0801585  90.8260021 132.9346298  42.2439145
  90.1272259 132.0195147  41.2609831  87.0404636 130.0536229  48.0279073
  87.5158757 130.2463875  47.2197924  86.1170201 130.1095415  47.7822457
  73.9288142 131.2160396  37.6110151  73.6834184 130.3122726  37.8090361
  74.0984057 131.2177547  36.6689629  81.6184852 122.0884073  46.9934907
  82.1366796 122.8245100  46.6681395  81.2639985 122.3948066  47.8281666
  73.1983790 126.9488754  35.1096313  72.5053035 127.0233109  34.4536349
  72.9535542 126.1849097  35.6317830  81.8697446 118.5084355  42.5135803
  82.1499200 117.8407544  43.1396230  82.6548053 118.7013451  42.0010467
  79.6730915 137.6843349  34.0760830  79.1004882 138.3033536  33.6231302
  80.2463709 138.2342711  34.6100752  85.7406305 126.9301989  46.2607378
  86.6923728 127.0300087  46.2819603  85.5709755 126.1380258  46.7705463
  83.7620684 124.0157572  46.4466779  83.1670616 124.2962585  45.7513268
  83.4770381 124.5051473  47.2183521  82.8928175 137.9680499  35.2069412
  83.8258848 137.9026061  35.4102287  82.8051387 138.8036766  34.7483945
  85.5216191 137.2846370  32.1673360  85.4429823 136.9506233  33.0609117
  86.3425858 137.7768137  32.1664832  88.2194382 130.1508109  45.3749678
  88.1870703 129.2124110  45.5609362  88.8295006 130.2292146  44.6415503
  80.0577713 129.0204162  31.4176882  81.0036818 128.8910370  31.4865300
  79.6791958 128.2818824  31.8946310  88.3688871 126.9419152  45.4207961
  87.8527920 126.1577609  45.2337890  89.2528819 126.6137869  45.5854481
  86.0299598 120.6860168  41.3803774  85.8324419 120.3775256  42.2647106
  86.6399303 121.4121807  41.5101704  94.0370932 131.2124116  44.5155715
  94.7674321 130.9509404  45.0763418  93.4277878 130.4752838  44.5557783
  92.1186229 129.3531978  45.1130166  91.3919393 129.2187943  44.5046658
  91.7033516 129.6608807  45.9186884  79.9416406 133.0721908  52.8777539
  80.8619415 133.2500507  53.0717586  79.9065989 132.1277953  52.7257238
  78.2420630 126.9454138  31.3531767  77.3352086 126.6487251  31.4294481
  78.5196612 126.6483956  30.4866054  69.1598571 128.2660502  41.8030814
  68.8401355 127.4125810  41.5105188  68.6131999 128.4809080  42.5588781
  72.9378478 130.9822943  45.5200320  73.1564488 131.9140050  45.5388354
  73.3504252 130.6230917  46.3055124  79.8582696 121.4891028  37.5076009
  79.0483425 121.1438113  37.8831255  80.5467113 121.1798572  38.0963620
  81.7873245 120.5669075  39.1300305  82.3404283 120.9864528  39.7890328
  82.0243331 119.6404823  39.1723261  77.8106344 126.5556148  54.9103069
  77.7103071 127.5050505  54.8415160  77.5927886 126.2274387  54.0379139
  77.0119415 123.8041073  31.4943747  77.8738579 124.1295972  31.7539564
  77.1969759 123.0172569  30.9816812  69.0286831 131.8863413  43.7723935
  68.3350302 131.4717366  43.2593890  69.7759822 131.9283950  43.1757354
  85.1652052 122.6769600  38.6378970  84.5850721 123.3354404  38.2557022
  84.8987984 121.8546944  38.2266387  83.6155618 122.0774658  40.8400290
  84.1155396 122.1891192  40.0314609  84.2591226 121.7735710  41.4801098
  77.6737614 129.9853287  53.7268131  77.1904695 130.7853647  53.9332020
  77.7598553 129.9961232  52.7735575  70.9423573 131.8181667  41.6489950
  70.9194262 131.9169354  40.6971833  71.2524210 132.6646818  41.9707116
  73.6010951 133.8757822  45.7636565  74.5554205 133.8441764  45.6966496
  73.4023475 133.4148446  46.5786791  74.1910333 132.4458938  48.3307362
  75.0103222 132.9403017  48.3542200  74.4647141 131.5290906  48.3024930
  83.9476930 124.8369690  37.6935318  83.0602785 125.1219341  37.4755513
  84.3630919 124.6763454  36.8462595  87.2991466 124.8616211  41.4089657
  88.0751856 125.3512664  41.6814274  86.5739600 125.2874265  41.8661527
  89.7364024 125.5743830  42.4663598  90.3308515 125.3339566  41.7556906
  89.8090608 124.8550961  43.0937134  71.9561180 139.4177441  42.7806763
  71.8215648 138.6577842  42.2144761  71.5393242 140.1418341  42.3135551
  83.0920143 134.6014365  31.7883338  83.7955993 134.8064367  32.4040993
  82.3682792 135.1691127  32.0532421  83.9217953 130.3524226  37.9085608
  83.8653155 130.8092778  37.0693240  84.4746296 129.5914911  37.7308451
  87.7322759 126.1413958  38.7335728  87.4759694 125.7410594  39.5643935
  87.1075627 126.8557752  38.6085867  92.0435097 128.8810031  41.2407019
  91.4834655 128.9503221  42.0138581  91.4378600 128.7051016  40.5206515
  75.1130306 140.3146758  42.9925205  74.9962690 141.2592191  42.8903895
  74.2922752 140.0120320  43.3811004  85.0006840 135.0396894  33.8381798
  85.8352444 134.6078093  33.6559273  84.8391183 134.8678908  34.7658692
  84.6552733 131.5429007  35.2038137  84.6001536 131.3773279  34.2626581
  84.0298788 132.2505040  35.3600327  69.4445248 126.7797072  49.0299559
  70.0904111 126.2696026  49.5186785  69.2362399 127.5165753  49.6042985
  81.9698640 133.8477919  54.5291700  82.8389799 134.0218572  54.1678335
  81.4905391 134.6672336  54.4067429  77.9648858 121.0437116  34.7823456
  77.9527528 121.9878956  34.9391726  78.8572280 120.8607262  34.4882917
  76.1384820 140.9675020  46.2081134  77.0412067 140.9998631  46.5247629
  75.9122190 140.0375471  46.2227469  77.8938422 139.7206007  42.8691212
  76.9434053 139.7207868  42.7555585  78.1970908 138.9738741  42.3527247
  81.7800978 117.6379893  39.0369392  81.0133373 117.0838380  39.1826075
  82.1911683 117.7101762  39.8983544  73.7842739 123.9264689  53.1274574
  74.6474200 123.5701494  53.3377898  73.2108149 123.5878584  53.8149978
  93.6291116 145.5566545  43.9336975  94.2669526 145.4373293  43.2300315
  93.5111958 146.5047389  43.9924927  90.4380822 145.5093973  43.8698499
  90.0999333 145.3935038  42.9819034  91.3070590 145.1085138  43.8499505
  86.2967638 147.3629450  39.8595390  85.7332503 147.2719387  39.0911678
  86.1820033 146.5429354  40.3397883  90.9200605 146.6628825  49.8284705
  90.9089246 146.2681623  48.9565209  91.0821244 145.9294898  50.4218476
  88.5664073 146.8242785  45.3665249  89.1627645 146.5998808  44.6522211
  88.6239044 146.0827531  45.9690696  93.1832384 143.2817999  41.0090183
  93.9695473 142.8637422  40.6580600  93.4471088 144.1864091  41.1771831
  98.5840811 143.2193232  41.9123161  99.3165983 142.6492449  42.1460991
  97.8280167 142.8314833  42.3529667  90.2016931 145.6420474  39.1086504
  89.8375138 145.1151095  39.8199425  91.0584047 145.2518943  38.9352989
  96.1066232 136.9314806  46.3717770  95.7749556 137.8010217  46.1478985
  95.5111845 136.6151090  47.0511800  86.0510233 145.5841149  41.8050387
  85.1260729 145.4517363  42.0128079  86.2994646 146.3635368  42.3020329
  95.9994895 141.6509893  43.4511120  95.0911772 141.5825301  43.1569881
  95.9482491 142.1281838  44.2792945  83.4119044 145.2274423  42.6394176
  83.5411425 145.4808902  43.5533588  82.7316495 145.8202131  42.3198831
  90.0735761 143.0699538  51.3946017  89.2969095 143.6293458  51.3848882
  90.7126324 143.5556321  51.9160887  97.8656541 139.8526331  45.2288994
  97.2230922 140.1458864  44.5828788  97.3611470 139.7379251  46.0342190
  88.3282133 145.8784992  50.9563984  89.0696817 146.4170035  50.6798808
  87.6219118 146.5051280  51.1135536  93.8037473 148.0214132  49.5536146
  94.2120829 147.5796543  48.8090778  93.0814734 147.4466760  49.8070339
  90.1568543 142.9586739  46.9269703  91.0029738 143.3826152  47.0704352
  90.0967180 142.3020363  47.6208266  93.3067988 140.6191107  48.5850876
  93.0628920 141.3733168  48.0485152  93.5827918 140.9976455  49.4198123
  92.8632680 139.7747540  44.1664714  92.0017159 140.0728794  44.4581452
  92.8895114 139.9917939  43.2345747  89.6794249 148.3189731  40.5738520
  90.1432595 148.5977434  39.7843142  89.4151047 147.4173175  40.3911610
  88.6163135 144.4412883  37.3828085  89.3187179 144.8933927  37.8502011
  88.2843764 143.7996702  38.0107978  87.0643497 143.0324640  51.7579294
  86.4342157 143.7140921  51.9914691  86.9579585 142.9207721  50.8132432
  82.3588469 142.6996436  42.6845218  81.5687523 142.9553964  42.2085329
  82.8499716 143.5144774  42.7897259  84.3103215 143.0641015  39.6428695
  83.5134378 143.1759709  40.1612191  84.0828807 143.4027667  38.7769586
  80.6426172 142.9526926  45.1160209  80.8934211 143.8373936  45.3817785
  81.1785721 142.7731528  44.3435301  86.3424239 137.3345406  54.1204545
  85.9491185 136.7811604  54.7952189  87.1590380 137.6455984  54.5111063
  89.2592200 138.7503285  51.7124802  90.0001914 139.3510438  51.6329264
  89.4910123 138.0080922  51.1542844  84.4033538 143.9359652  49.9903031
  84.2887054 143.0344909  50.2910130  83.5478056 144.1823349  49.6387848
  93.2049363 134.7784388  45.9889083  92.8613633 135.6686029  45.9128194
  93.5728326 134.5886045  45.1258668  90.7546757 139.6142699  39.5546757
  89.8988353 139.2249550  39.3752396  91.1673709 139.6934660  38.6946542
  92.2845904 137.1489043  43.9538317  91.7810699 137.1119178  43.1406122
  92.5776511 138.0581785  44.0134973  88.5288790 137.2327772  42.9604498
  89.3941786 137.0370581  42.6010388  88.5966299 137.0038124  43.8873855
  86.1351109 139.4629980  40.3320865  86.7094861 139.2405162  39.5994058
  86.7222091 139.5318675  41.0849467  95.1930686 145.3503707  41.1385242
  95.7062568 145.9833699  41.6406951  95.8431910 144.7504903  40.7728602
  88.4373776 136.3371229  39.0595935  87.7838189 136.0220246  38.4352549
  88.3954251 135.7146970  39.7855758  91.6711517 142.8253163  43.3843582
  90.7534078 143.0468110  43.2265270  92.0871660 142.8999473  42.5255290
  94.9025402 141.2601695  40.4965052  94.1648158 140.7479081  40.8275294
  95.1552175 140.8202076  39.6848329  95.0037029 134.0377947  41.0906821
  95.3095906 133.1775310  40.8032736  95.7289634 134.6295567  40.8905815
  81.2961385 144.4408633  39.4788419  81.0985785 143.8477994  38.7539486
  80.7408049 144.1360844  40.1964358  89.2758109 144.3331740  41.5983012
  89.3306719 143.3805576  41.5225489  88.4649311 144.4891179  42.0824311
  87.2150469 142.9508800  39.3573391  86.4018334 143.2502970  39.7638583
  87.7109463 142.5564488  40.0747873  92.8124680 143.4150624  48.1888285
  93.1674068 143.6422097  49.0482751  93.4596812 143.7469001  47.5665540
  86.7064543 140.5227155  44.9734626  87.3463923 140.3815914  44.2757589
  85.8742074 140.2361668  44.5973228  83.7907611 143.9672667  37.1629371
  82.8605199 143.9057123  37.3799333  83.8865083 143.4448620  36.3666012
  83.7093160 140.4927480  39.7507613  83.9699977 141.4072813  39.6416773
  84.5310332 140.0251923  39.9004226  85.1818085 141.9065237  46.9206437
  85.8541139 141.6982599  46.2719086  84.3547872 141.7087323  46.4811670
  91.0843657 138.5327178  48.9372098  90.4371572 139.2317128  48.8436575
  91.8544673 138.9663322  49.3048346  91.2607792 146.3707943  46.9968918
  92.1899852 146.5219103  46.8237885  90.8398822 146.4591964  46.1417564
  85.5845582 145.1807840  47.6808874  85.4465380 144.4488079  48.2820414
  86.4950506 145.0916740  47.3993062  88.2127883 144.8927800  47.1692554
  88.9227502 144.2520992  47.1279173  88.1697191 145.1440694  48.0918735
  86.9256817 141.8793017  48.9888194  86.3894174 141.4283756  49.6409790
  86.3373526 142.0138926  48.2458658  82.6595938 141.0149025  46.0741188
  82.5754127 140.4074695  45.3391598  81.8378645 141.5058043  46.0750684
  92.8319652 139.5002589  41.4411383  93.3288352 138.7472551  41.1212453
  92.0606634 139.5366905  40.8754592  89.4154621 141.6419972  41.1683068
  89.0452408 141.0891012  41.8563973  89.9113713 141.0378105  40.6158068
  95.2738647 136.4672182  43.5890742  94.3601727 136.6976409  43.7572949
  95.7031748 136.5510626  44.4404774  95.0445105 144.6562074  46.0890636
  94.3916556 144.9037982  45.4343089  95.4225485 143.8426212  45.7553113
  91.0932678 145.3981885  52.5756673  90.4173316 145.2976015  53.2459048
  91.9160312 145.2421099  53.0392670  77.4329192 144.2059422  43.9173632
  77.4713292 143.6723013  44.7110750  76.9269485 143.6794627  43.2984609
  84.8119955 139.0523962  47.4136174  84.8761281 139.9138793  47.0013572
  84.7487075 138.4397964  46.6808532  84.2872227 141.1247095  51.0609208
  84.9144266 140.7424172  51.6746732  83.4300146 140.9061297  51.4264901
  81.0637770 142.9323524  36.9927563  81.3591211 142.0234203  36.9394617
  80.1625806 142.9111264  36.6708565  84.5932017 141.0079521  42.9755112
  83.8718603 141.6215488  42.8362585  85.3825273 141.5437285  42.8971757
  87.3958330 138.3433947  49.2495763  87.9192732 138.5896244  50.0122073
  87.1770664 139.1753982  48.8298901  82.7925611 140.6137622  37.1166888
  82.4638318 139.7335001  36.9341994  83.1464982 140.5585290  38.0043277
  85.9067435 140.9010592  37.4842366  86.2463507 141.4296513  36.7620974
  86.3539555 141.2390998  38.2600932  88.6010875 139.2847642  46.9345434
  88.2607696 138.4855455  47.3366114  87.8949882 139.5849353  46.3622267
  89.2527347 136.3696955  45.3872757  90.0753417 135.8957433  45.2651647
  89.4965411 137.1487438  45.8871443  87.8935582 139.3985213  35.6835659
  88.6143944 139.7766466  35.1799375  87.2700886 140.1174090  35.7870636
  92.0366705 140.1030362  36.6193991  92.2530319 140.9855000  36.3182819
  91.5560772 139.7116576  35.8899633  86.7765926 143.0616075  43.1964735
  86.6310507 143.3756378  44.0889017  86.2991130 143.6800976  42.6435634
  88.6362309 140.0518623  43.2445625  88.6223878 139.1559717  42.9077923
  89.3534737 140.0589287  43.8783911  90.4888440 140.4855964  45.2898752
  90.2306217 141.4073034  45.2883083  89.9573480 140.0886398  45.9799217
  88.0399205 138.9333004  38.5133195  88.1615116 138.0049650  38.7124083
  87.7501247 138.9471690  37.6011511  90.9090395 136.6187914  41.6499915
  90.9312092 136.6827247  40.6951895  91.3258454 135.7792423  41.8440421
  82.0377610 144.7291316  49.0282553  81.2959346 144.8773951  49.6147184
  81.7170354 144.9899582  48.1649303  87.5240284 140.4465001  52.7223128
  87.5728440 141.3227124  52.3400897  88.0662799 139.9042394  52.1494771
  95.4196768 143.8229519  50.6316300  96.3206630 143.6835983  50.3400298
  95.4944742 143.9883973  51.5714478  89.7539573 141.1996373  49.4769486
  88.8842882 141.4929939  49.2052075  89.9899053 141.7836818  50.1976750
  84.7681897 146.5452314  37.6110151  84.5227939 145.6414644  37.8090361
  84.9377811 146.5469464  36.6689629  92.4578607 137.4175990  46.9934907
  92.9760551 138.1537017  46.6681395  92.1033739 137.7239984  47.8281666
  84.0377544 142.2780672  35.1096313  83.3446789 142.3525026  34.4536349
  83.7929296 141.5141015  35.6317830  92.7091201 133.8376273  42.5135803
  92.9892955 133.1699462  43.1396230  93.4941808 134.0305368  42.0010467
  96.5800059 142.2593907  46.2607378  97.5317482 142.3592004  46.2819603
  96.4103510 141.4672175  46.7705463  94.6014439 139.3449490  46.4466779
  94.0064371 139.6254503  45.7513268  94.3164135 139.8343391  47.2183521
  99.2082625 142.2711070  45.4207961  98.6921674 141.4869527  45.2337890
 100.0922574 141.9429787  45.5854481  96.8693352 136.0152086  41.3803774
  96.6718174 135.7067174  42.2647106  97.4793058 136.7413724  41.5101704
  90.7810160 148.4013826  52.8777539  91.7013170 148.5792425  53.0717586
  90.7459743 147.4569871  52.7257238  79.9992325 143.5952419  41.8030814
  79.6795110 142.7417727  41.5105188  79.4525754 143.8100997  42.5588781
  90.6976451 136.8182946  37.5076009  89.8877179 136.4730031  37.8831255
  91.3860868 136.5090489  38.0963620  92.6266999 135.8960992  39.1300305
  93.1798038 136.3156446  39.7890328  92.8637085 134.9696741  39.1723261
  88.6500098 141.8848066  54.9103069  88.5496825 142.8342423  54.8415160
  88.4321640 141.5566305  54.0379139  96.0045806 138.0061518  38.6378970
  95.4244475 138.6646322  38.2557022  95.7381739 137.1838862  38.2266387
  94.4549372 137.4066575  40.8400290  94.9549151 137.5183110  40.0314609
  95.0984980 137.1027628  41.4801098  88.5131368 145.3145205  53.7268131
  88.0298450 146.1145565  53.9332020  88.5992307 145.3253150  52.7735575
  94.7870684 140.1661608  37.6935318  93.8996539 140.4511259  37.4755513
  95.2024673 140.0055371  36.8462595  98.1385220 140.1908129  41.4089657
  98.9145610 140.6804581  41.6814274  97.4133354 140.6166183  41.8661527
 100.5757779 140.9035748  42.4663598 101.1702270 140.6631484  41.7556906
 100.6484363 140.1842879  43.0937134  80.2839002 142.1088990  49.0299559
  80.9297866 141.5987943  49.5186785  80.0756153 142.8457671  49.6042985
  88.8042613 136.3729034  34.7823456  88.7921282 137.3170874  34.9391726
  89.6966034 136.1899180  34.4882917  92.6194732 132.9671811  39.0369392
  91.8527128 132.4130297  39.1826075  93.0305437 133.0393680  39.8983544
  84.6236493 139.2556607  53.1274574  85.4867955 138.8993411  53.3377898
  84.0501904 138.9170501  53.8149978  15.6069096  21.5796091  38.3135839
  15.1632950  20.7932470  37.9956743  16.2686310  21.7675242  37.6479729
  17.7050334  21.8598891  36.3417240  17.6868809  22.6807772  35.8497509
  18.6270254  21.7352966  36.5667381  14.1623388  19.3743020  37.1840748
  14.6951725  18.6131309  36.9540056  13.6337469  19.0816672  37.9264903
  23.5551066  18.3487986  33.1627078  23.7486956  19.2533797  33.4086352
  23.4551684  17.8895406  33.9965663  18.6166175  18.4994729  38.7367958
  18.4651681  18.2705281  37.8198042  18.6070854  19.4565331  38.7499303
  20.3258382  21.5313852  36.8144440  20.2670928  20.8473072  36.1475023
  20.7277900  22.2732842  36.3625066  20.3275789  19.4953436  35.0458420
  19.4402568  19.1579357  35.1684819  20.8974340  18.7636467  35.2827185
  16.3175626  24.0541722  34.1677822  17.0303598  24.6889187  34.0953723
  15.8265654  24.1505588  33.3517823  15.2176398  15.1000584  39.3001980
  14.5417035  14.9994713  39.9704355  16.0404032  14.9439798  39.7637977
  13.9599181  26.4067512  33.5359596  14.5117489  26.5699133  34.3008681
  14.3005375  26.9971949  32.8639621  18.8110056  21.2328769  39.3908250
  19.3549960  21.8458727  38.8963205  18.2296900  21.7908347  39.9075263
  14.1064993  23.9725993  35.5508250  14.4152119  23.7275140  36.4230950
  14.9040475  24.1772632  35.0627120  22.1338850  20.6924823  38.7269571
  21.3434394  20.6748962  38.1874071  21.8972204  21.2313117  39.4818608
  22.2536725  17.5417289  36.0402300  22.3034730  17.3767297  36.9817823
  22.1450648  16.6744548  35.6500181  19.5440487  13.5248217  37.3561607
  20.4450350  13.3854682  37.0645605  19.6188462  13.6902672  38.2959784
  23.7554922  19.9614231  36.2844322  23.4639730  20.3244212  37.1207783
  23.1427053  19.2481239  36.1057654  14.9053880  18.1032524  39.6022846
  15.8256890  18.2811123  39.7962892  14.8703463  17.1588570  39.4502545
  12.6375088  15.0163904  40.4513438  12.1542170  15.8164264  40.6577327
  12.7236027  15.0271849  39.4980882  16.9336114  18.8788536  41.2537007
  17.8027274  19.0529188  40.8923642  16.4542866  19.6982953  41.1312736
  28.5928590  30.5877162  30.6582281  29.2307000  30.4683909  29.9545621
  28.4749433  31.5358006  30.7170233  25.4018296  30.5404590  30.5943806
  25.0636808  30.4245655  29.7064341  26.2708064  30.1395755  30.5744812
  25.8838079  31.6939442  36.5530012  25.8726720  31.2992240  35.6810515
  26.0458719  30.9605514  37.1463783  18.8069544  33.8891258  29.4224917
  19.5990836  33.5482083  29.0071217  19.0466194  33.9986233  30.3427071
  26.8404671  36.0611034  21.8955162  26.1892650  36.6465114  21.5089176
  27.6349033  36.5917229  21.9550199  22.6045340  34.4776553  35.5009195
  22.3135206  35.3822184  35.3855862  23.2402325  34.5193081  36.2153265
  23.5301547  31.8553402  32.0910555  24.1265119  31.6309424  31.3767518
  23.5876519  31.1138147  32.6936003  28.1469858  28.3128616  27.7335489
  28.9332948  27.8948039  27.3825906  28.4108563  29.2174708  27.9017138
  33.5478286  28.2503849  28.6368468  34.2803457  27.6803066  28.8706297
  32.7917641  27.8625449  29.0774973  25.1654405  30.6731090  25.8331810
  24.8012612  30.1461711  26.5444732  26.0221521  30.2829559  25.6598296
  31.0703706  21.9625423  33.0963076  30.7387031  22.8320834  32.8724291
  30.4749319  21.6461707  33.7757107  27.5635225  34.1637969  32.4958989
  27.2635948  35.0663008  32.3874796  27.2186285  33.8970152  33.3480142
  21.0147707  30.6151766  28.5295694  20.0898203  30.4827980  28.7373385
  21.2632120  31.3945985  29.0265636  30.9632369  26.6820509  30.1756426
  30.0549247  26.6135918  29.8815187  30.9119965  27.1592454  31.0038252
  18.3756518  30.2585039  29.3639483  18.5048899  30.5119518  30.2778894
  17.6953969  30.8512747  29.0444138  22.5456005  40.9282289  25.4629957
  22.4680035  41.8790114  25.5418437  21.9417649  40.5828162  26.1204883
  25.0373235  28.1010155  38.1191324  24.2606569  28.6604075  38.1094188
  25.6763798  28.5866938  38.6406194  32.8294016  24.8836948  31.9534300
  32.1868396  25.1769481  31.3074095  32.3248944  24.7689868  32.7587497
  23.2919607  30.9095608  37.6809291  24.0334292  31.4480652  37.4044114
  22.5856593  31.5361897  37.8380843  28.7674947  33.0524749  36.2781452
  29.1758303  32.6107159  35.5336085  28.0452208  32.4777376  36.5315645
  25.1206017  27.9897355  33.6515009  25.9667212  28.4136769  33.7949658
  25.0604655  27.3330980  34.3453572  29.0903762  33.6125939  30.0333741
  28.4612624  33.7771653  29.3309809  28.7029424  34.0267549  30.8044705
  32.9692993  34.5480377  27.3878105  32.2844032  34.9279278  26.8375138
  33.0536843  35.1575704  28.1210053  28.2705462  25.6501724  35.3096183
  28.0266394  26.4043784  34.7730459  28.5465393  26.0287071  36.1443430
  30.2243925  32.1940336  33.9873448  30.4360820  32.8372096  33.3107830
  30.1773673  31.3602653  33.5195379  27.8270154  24.8058157  30.8910021
  26.9654633  25.1039410  31.1826758  27.8532589  25.0228556  29.9591053
  24.6431723  33.3500347  27.2983826  25.1070069  33.6288050  26.5088449
  24.3788522  32.4483792  27.1156917  21.5355804  32.8971829  30.2363589
  22.1057162  33.3259097  29.5981074  22.1263916  32.6154413  30.9347775
  22.0280971  28.0635256  38.4824601  21.3979632  28.7451537  38.7159998
  21.9217059  27.9518338  37.5377739  31.3389753  35.0712291  32.1595806
  32.1607197  34.6692479  31.8778487  31.3352156  34.9680526  33.1111922
  25.1046356  34.6196335  34.3156516  25.1690789  35.0816742  35.1514688
  24.3957280  33.9893700  34.4438826  15.6063646  27.9837543  31.8405516
  15.8571685  28.8684553  32.1063092  16.1423195  27.8042144  31.0680608
  39.4295746  31.4151040  28.5080777  38.6759454  30.8458438  28.3524782
  39.5643287  31.3813704  29.4551412  24.8194374  36.2864442  24.1835497
  24.6840049  37.1315978  24.6120344  25.3604187  36.4883720  23.4201430
  21.3061714  22.3656022  40.8449852  20.9128659  21.8122221  41.5197496
  22.1227854  22.6766601  41.2356369  20.0818656  36.9205637  26.8386175
  20.2585285  37.8423601  26.6507159  20.8775490  36.6064056  27.2680555
  24.2229675  23.7813901  38.4370108  24.9639388  24.3821054  38.3574571
  24.4547598  23.0391539  37.8788151  19.3671013  28.9670268  36.7148338
  19.2524528  28.0655526  37.0155437  18.5115530  29.2133965  36.3633155
  26.4462850  36.9088009  38.3135839  26.0026705  36.1224387  37.9956743
  27.1080064  37.0967159  37.6479729  21.2049972  38.4383810  32.8396517
  21.7557397  38.3100874  32.0673511  20.3661448  38.7378699  32.4891410
  28.5444089  37.1890809  36.3417240  28.5262564  38.0099690  35.8497509
  29.4664009  37.0644884  36.5667381  25.0017143  34.7034938  37.1840748
  25.5345480  33.9423226  36.9540056  24.4731224  34.4108590  37.9264903
  28.1686838  19.8095004  32.7134390  27.8251107  20.6996646  32.6373501
  28.5365800  19.6196662  31.8503975  27.2483378  22.1799659  30.6783623
  26.7448174  22.1429794  29.8651429  27.5413985  23.0892402  30.7380280
  33.1071395  32.5535970  23.1559999  32.3300837  32.2147129  22.7115161
  33.7862876  32.5588593  22.4814964  26.3669855  33.8320931  24.6959560
  25.8391217  33.0973690  24.3832798  25.8657358  34.6095607  24.4499529
  31.3462701  32.0269951  29.8126607  30.6886376  32.7169213  29.9006735
  32.1503101  32.4166383  30.1560593  30.1568160  30.3814324  27.8630548
  30.6700042  31.0144316  28.3652258  30.8069384  29.7815519  27.4973908
  27.4190534  40.3598648  20.6191220  26.7452233  40.6630345  21.2276177
  27.8056356  41.1627728  20.2696677  26.6348991  27.8563779  30.1088889
  25.7171552  28.0778726  29.9510577  27.0509135  27.9310090  29.2500596
  27.4184039  29.2555195  25.2391569  28.1655858  29.7676592  24.9298691
  27.6875628  28.9339248  26.0995963  30.9229956  35.3620325  25.9909691
  30.4692284  34.5211235  26.0474881  30.2923923  35.9981724  26.3284471
  29.8662876  26.2912311  27.2210358  29.1285633  25.7789698  27.5520601
  30.1189650  25.8512693  26.4093635  29.3662896  37.1996822  26.9259509
  29.6585870  37.7601879  26.2071875  29.8761516  37.4925383  27.6812668
  24.2395583  29.3642356  28.3228319  24.2944193  28.4116193  28.2470795
  23.4286785  29.5201795  28.8069617  24.3296521  37.9777173  28.0152962
  24.2872700  38.2038019  27.0861494  25.2459220  37.7440548  28.1638764
  27.7762155  28.4461241  34.9133592  28.1311542  28.6732714  35.7728057
  28.4234286  28.7779617  34.2910847  33.5059892  31.5679676  25.6182921
  33.3677790  31.7581272  24.6904110  33.1496110  32.3299059  26.0750972
  21.6702018  25.5537772  31.6979933  22.3101397  25.4126531  31.0002896
  20.8379548  25.2672285  31.3218535  33.5329271  33.6356203  30.6294192
  33.9665778  33.5431493  31.4777246  34.2460852  33.6113704  29.9914208
  22.4462322  34.8540202  27.8114925  23.2402920  34.3590522  27.6097500
  21.7354014  34.3258065  27.4482631  27.2657166  37.2358298  32.1627293
  27.3194188  37.8049234  32.9305009  26.3971947  37.4060183  31.7981330
  20.1455560  26.9375854  33.6451744  20.8178613  26.7293216  32.9964393
  19.3185346  26.7397940  33.2056976  34.3944821  33.6779904  33.1627078
  34.5880711  34.5825715  33.4086352  34.2945439  33.2187323  33.9965663
  26.0481132  23.5637795  35.6617405  25.4009047  24.2627744  35.5681881
  26.8182147  23.9973939  36.0293653  29.4559929  33.8286647  38.7367958
  29.3045436  33.5997199  37.8198042  29.4464609  34.7857248  38.7499303
  26.2245266  31.4018560  33.7214225  27.1537326  31.5529719  33.5483192
  25.8036296  31.4902580  32.8662871  25.0233598  35.4269224  31.4912762
  24.8844683  35.0588008  32.3638700  24.2348194  35.9416863  31.3196720
  25.6181750  40.5278321  22.8338299  25.7933505  40.0566364  23.6483921
  24.9314538  41.1544087  23.0619559  26.5738813  34.8050827  28.8801600
  26.2388645  34.7651597  29.7759250  26.0742758  34.1395543  28.4072010
  20.5483057  30.2118457  34.4054181  20.4102855  29.4798696  35.0065720
  21.4587980  30.1227357  34.1238369  23.1765357  29.9238416  33.8937861
  23.8864976  29.2831608  33.8524479  23.1334666  30.1751311  34.8164042
  31.1652136  36.8605769  36.8144440  31.1064682  36.1764990  36.1475023
  31.5671654  37.6024759  36.3625066  21.8894291  26.9103634  35.7133500
  21.3531648  26.4594372  36.3655097  21.3011000  27.0449543  34.9703965
  20.1842835  43.6767683  29.6078159  20.4239433  44.3086207  30.2857177
  19.3412031  43.3255723  29.8943518  31.1669543  34.8245353  35.0458420
  30.2796322  34.4871275  35.1684819  31.7368094  34.0928385  35.2827185
  17.6233413  26.0459642  32.7986495  17.5391601  25.4385311  32.0636905
  16.8016119  26.5368660  32.7995991  24.6970697  39.4846806  32.0119663
  24.6240868  40.2901777  32.5238967  24.2548090  39.6838772  31.1867684
  24.4860476  38.7218576  25.5222484  23.7027998  39.2640256  25.6160709
  25.1853222  39.2392555  25.9216726  35.6486884  30.2353571  29.8074981
  35.6376760  31.1178286  29.4368914  34.7804263  29.8825122  29.6129518
  27.1569380  39.3833640  34.1677822  27.8697352  40.0181105  34.0953723
  26.6659409  39.4797506  33.3517823  28.8786907  33.2884892  25.7395113
  27.9443186  33.4086355  25.5699818  29.0563576  32.3857359  25.4755123
  32.2659459  29.1302212  26.2745147  32.7319911  29.9630203  26.2005450
  32.7166959  28.6647193  26.9790406  22.2081294  37.1328083  34.9883392
  22.9090753  37.7664566  35.1412787  21.7376409  37.4742815  34.2279032
  30.3335690  35.4746033  23.2731299  30.6095534  35.3602628  24.1825173
  29.4640188  35.0763518  23.2343472  30.2376121  21.4982799  30.3136049
  29.3239201  21.7287026  30.4818256  30.6669223  21.5821243  31.1650081
  30.0082580  29.6872691  32.8135943  29.3554030  29.9348598  32.1588395
  30.3862960  28.8736829  32.4798420  26.9689754  39.7232384  26.9164113
  27.1512148  38.9054040  27.3791865  27.7922740  39.9400076  26.4789003
  27.3031919  38.6500569  24.1779161  27.8319686  38.1393024  23.5649324
  27.5660139  38.3343099  25.0424695  26.0570153  30.4292502  39.3001980
  25.3810790  30.3286631  39.9704355  26.8797787  30.2731715  39.7637977
  17.8049012  36.6664438  31.9214495  18.3902449  35.9208126  32.0542399
  17.6073850  36.9768395  32.8051159  20.6587667  39.7015686  26.9376937
  19.9898042  40.1861813  26.4540977  20.5200537  39.9484906  27.8520316
  24.7992936  41.7359429  33.5359596  25.3511244  41.8991051  34.3008681
  25.1399129  42.3263867  32.8639621  19.7757429  24.0834579  34.1381480
  19.8398755  24.9449410  33.7258878  19.7124549  23.4708581  33.4053839
  19.2509701  26.1557712  37.7854515  19.8781740  25.7734789  38.3992039
  18.3937620  25.9371913  38.1510207  29.6503810  36.5620687  39.3908250
  30.1943714  37.1750645  38.8963205  29.0690655  37.1200265  39.9075263
  27.9361323  39.6841405  30.5223278  27.8112462  38.8831145  30.0134223
  28.5940414  40.1787598  30.0337248  29.9996231  37.4850425  32.1502828
  29.0526567  37.3655776  32.0781155  30.3479004  36.5972923  32.2329089
  22.3595805  23.3744564  35.9741070  22.8830207  23.6206860  36.7367379
  22.1408138  24.2064599  35.5544207  27.0042665  37.2803141  28.3507180
  26.8567627  36.3519848  28.5314750  27.8296158  37.3023232  27.8664255
  30.6076786  38.1031700  29.4372053  31.5323334  37.8974561  29.2996504
  30.4392090  37.8548101  30.3461394  23.5648350  24.3158259  33.6590740
  23.2245170  23.5166072  34.0611420  22.8587356  24.6159970  33.0867574
  24.2164822  21.4007571  32.1118063  25.0390891  20.9268049  31.9896954
  24.4602885  22.1798055  32.6116750  21.7403400  28.0926692  29.9210042
  21.5947981  28.4066995  30.8134324  21.2628604  28.7111592  29.3680941
  23.5999783  25.0829240  29.9690932  23.5861352  24.1870333  29.6323230
  24.3172211  25.0899904  30.6029218  25.4525914  25.5166580  32.0144059
  25.1943692  26.4383651  32.0128389  24.9210954  25.1197015  32.7044523
  30.3972103  38.6217367  24.7934144  30.5708980  38.0563790  24.0407997
  30.8900994  39.4218262  24.6113634  16.2149063  30.6332036  32.8597703
  15.6702531  31.4091844  32.9917978  17.0928412  30.9802841  32.7016825
  36.2511494  31.3853790  26.4124444  36.6942640  30.6361115  26.0143567
  35.3738004  31.3763926  26.0298176  31.3847275  37.9384132  21.8931043
  32.0798180  38.5590824  22.1118357  31.7270425  37.0879483  22.1683421
  17.0015084  29.7601933  35.7527860  16.2596820  29.9084568  36.3392491
  16.6807829  30.0210198  34.8894610  33.2838698  35.3883837  23.4218374
  33.8090022  35.7271110  22.6967694  33.1961051  34.4530852  23.2381508
  24.9458747  39.3017911  35.5508250  25.2545873  39.0567058  36.4230950
  25.7434229  39.5064549  35.0627120  24.9679359  41.4555820  27.7813627
  24.5284349  40.9632199  28.4746483  25.7187476  40.9128788  27.5405702
  17.4471698  37.6467361  27.7838255  18.2729718  37.3471133  27.4036898
  17.0965750  36.8774984  28.2328043  22.4153231  36.9993829  29.8535928
  21.7933240  36.3364535  29.5538156  23.0858098  37.0254961  29.1709576
  15.6480303  35.5653688  28.7427188  14.8112211  35.1375862  28.5611190
  15.6203949  35.7586131  29.6797980  22.4877759  25.4775618  39.4468434
  22.5365914  26.3537740  39.0646204  23.0300273  24.9353011  38.8740078
  32.9732604  36.0216741  38.7269571  32.1828148  36.0040880  38.1874071
  32.7365959  36.5605034  39.4818608  33.0930479  32.8709207  36.0402300
  33.1428484  32.7059215  36.9817823  32.9844403  32.0036466  35.6500181
  30.3834242  28.8540135  37.3561607  31.2844105  28.7146600  37.0645605
  30.4582216  29.0194590  38.2959784  24.7177047  26.2306990  36.2014793
  23.8480357  26.5240556  35.9297382  24.9536528  26.8147435  36.9222057
  34.5948676  35.2906149  36.2844322  34.3033485  35.6536129  37.1207783
  33.9820808  34.5773157  36.1057654  35.7944359  32.8559028  28.8046892
  36.6291250  33.2948832  28.9684452  35.9303487  32.3797682  27.9855138
  32.8435865  30.4138763  34.7524380  33.3189986  30.6066410  33.9443231
  31.9201430  30.4697949  34.5067763  27.4216081  22.4486607  33.7180213
  27.9398025  23.1847634  33.3926702  27.0671214  22.7550600  34.5526973
  31.5437534  27.2904523  32.9852685  32.4954956  27.3902621  33.0064909
  31.3740984  26.4982792  33.4950769  29.5651913  24.3760107  33.1712086
  28.9701845  24.6565119  32.4758575  29.2801610  24.8654008  33.9428827
  28.6959403  38.3283033  21.9314719  29.6290077  38.2628595  22.1347594
  28.6082616  39.1639300  21.4729251  31.3247420  37.6448904  18.8918666
  31.2461052  37.3108767  19.7854424  32.1457087  38.1370672  18.8910139
  34.0225611  30.5110643  32.0994985  33.9901931  29.5726644  32.2854669
  34.6326235  30.5894680  31.3660810  34.1720100  27.3021686  32.1453268
  33.6559148  26.5180143  31.9583197  35.0560048  26.9740403  32.3099787
  31.8330827  21.0462702  28.1049081  31.6355648  20.7377790  28.9892413
  32.4430532  21.7724341  28.2347010  39.8402161  31.5726650  31.2401022
  40.5705550  31.3111938  31.8008725  39.2309107  30.8355372  31.2803090
  37.9217458  29.7134512  31.8375473  37.1950622  29.5790477  31.2291964
  37.5064745  30.0211341  32.6432191  25.7447635  33.4324442  39.6022846
  26.6650644  33.6103041  39.7962892  25.7097218  32.4880488  39.4502545
  18.7409707  31.3425477  32.2445627  18.9595717  32.2742585  32.2633661
  19.1535481  30.9833451  33.0300431  23.6137573  26.9158683  41.6348376
  23.5134299  27.8653040  41.5660467  23.3959115  26.5876921  40.7624446
  14.8318060  32.2465947  30.4969242  14.1381531  31.8319900  29.9839196
  15.5791051  32.2886484  29.9002661  23.4768843  30.3455821  40.4513438
  22.9935924  31.1456182  40.6577327  23.5629782  30.3563766  39.4980882
  19.4042180  34.2360356  32.4881871  20.3585434  34.2044298  32.4211803
  19.2054704  33.7750980  33.3032097  19.9941562  32.8061472  35.0552669
  20.8134451  33.3005551  35.0787506  20.2678370  31.8893440  35.0270236
  33.1022695  25.2218745  28.1334964  33.8783085  25.7115198  28.4059581
  32.3770829  25.6476800  28.5906833  35.5395253  25.9346365  29.1908904
  36.1339744  25.6942101  28.4802213  35.6121837  25.2153495  29.8182441
  17.7592409  39.7779976  29.5052069  17.6246877  39.0180376  28.9390067
  17.3424471  40.5020875  29.0380858  29.7249182  30.7126760  24.6330915
  29.6684384  31.1695312  23.7938547  30.2777525  29.9517445  24.4553757
  33.5353988  26.5016492  25.4581034  33.2790922  26.1013128  26.2889242
  32.9106856  27.2160286  25.3331173  37.8466326  29.2412566  27.9652326
  37.2865884  29.3105755  28.7383888  37.2409829  29.0653550  27.2451822
  20.9161535  40.6749293  29.7170512  20.7993919  41.6194725  29.6149202
  20.0953981  40.3722854  30.1056311  30.8038069  35.3999428  20.5627105
  31.6383673  34.9680627  20.3804579  30.6422412  35.2281442  21.4903999
  15.2476476  27.1399606  35.7544866  15.8935340  26.6298560  36.2432091
  15.0393628  27.8768288  36.3288291  27.7729869  34.2080454  41.2537007
  28.6421028  34.3821106  40.8923642  27.2936620  35.0274870  41.1312736
  21.9416049  41.3277555  32.9326440  22.8443296  41.3601165  33.2492935
  21.7153419  40.3978005  32.9472776  23.6969651  40.0808541  29.5936519
  22.7465282  40.0810403  29.4800891  24.0002137  39.3341276  29.0772554
  19.5873967  24.2867223  39.8519880  20.4505429  23.9304028  40.0623205
  19.0139378  23.9481118  40.5395285  39.4322344  45.9169079  30.6582281
  40.0700754  45.7975827  29.9545621  39.3143187  46.8649923  30.7170233
  36.2412051  45.8696508  30.5943806  35.9030562  45.7537572  29.7064341
  37.1101819  45.4687673  30.5744812  32.0998866  47.7231984  26.5840697
  31.5363731  47.6321921  25.8156985  31.9851261  46.9031888  27.0643189
  36.7231834  47.0231359  36.5530012  36.7120474  46.6284158  35.6810515
  36.8852473  46.2897432  37.1463783  29.6463298  49.2183176  29.4224917
  30.4384590  48.8774000  29.0071217  29.8859948  49.3278151  30.3427071
  37.6798425  51.3902952  21.8955162  37.0286405  51.9757032  21.5089176
  38.4742788  51.9209147  21.9550199  31.6054052  48.4792089  22.2942296
  32.3784928  47.9321076  22.1555172  31.9579451  49.3436338  22.5056758
  33.4439095  49.8068471  35.5009195  33.1528961  50.7114102  35.3855862
  34.0796079  49.8484999  36.2153265  34.3695302  47.1845320  32.0910555
  34.9658874  46.9601342  31.3767518  34.4270273  46.4430065  32.6936003
  33.9420330  44.6384755  19.9260746  34.1945851  44.1166276  19.1644209
  33.0044889  44.4750900  20.0287430  38.9863613  43.6420533  27.7335489
  39.7726702  43.2239956  27.3825906  39.2502317  44.5466625  27.9017138
  39.1573690  49.0793384  22.4324146  38.5219523  49.1528010  23.1445051
  38.8271097  49.6686982  21.7543225  44.3872040  43.5795767  28.6368468
  45.1197212  43.0094983  28.8706297  43.6311396  43.1917367  29.0774973
  33.6616619  46.5412861  22.1285121  33.5452877  45.8657764  22.7966205
  33.7718879  46.0545235  21.3117274  36.0048160  46.0023008  25.8331810
  35.6406367  45.4753629  26.5444732  36.8615276  45.6121477  25.6598296
  41.9097460  37.2917341  33.0963076  41.5780785  38.1612752  32.8724291
  41.3143074  36.9753625  33.7757107  35.6453647  41.0312908  20.8293159
  35.8128049  41.8993144  21.1963630  35.4550816  41.1940189  19.9054448
  38.4028980  49.4929887  32.4958989  38.1029703  50.3954925  32.3874796
  38.0580039  49.2262070  33.3480142  31.8541461  45.9443683  28.5295694
  30.9291958  45.8119898  28.7373385  32.1025875  46.7237903  29.0265636
  41.8026124  42.0112427  30.1756426  40.8943001  41.9427835  29.8815187
  41.7513719  42.4884372  31.0038252  35.6242868  43.4870565  21.8139826
  35.5042493  43.9327616  22.6525306  34.9295456  43.8355883  21.2553364
  29.2150272  45.5876957  29.3639483  29.3442654  45.8411436  30.2778894
  28.5347724  46.1804665  29.0444138  33.3849760  56.2574207  25.4629957
  33.3073789  57.2082032  25.5418437  32.7811403  55.9120079  26.1204883
  35.8766989  43.4302072  38.1191324  35.1000324  43.9895993  38.1094188
  36.5157553  43.9158855  38.6406194  43.6687770  40.2128865  31.9534300
  43.0262150  40.5061398  31.3074095  43.1642699  40.0981786  32.7587497
  41.3227934  43.9592038  22.6420160  42.2345790  44.1919425  22.4667857
  40.8137581  44.5429083  22.0795238  34.1313362  46.2387526  37.6809291
  34.8728046  46.7772570  37.4044114  33.4250347  46.8653814  37.8380843
  39.6068701  48.3816666  36.2781452  40.0152057  47.9399077  35.5336085
  38.8845963  47.8069294  36.5315645  35.9599771  43.3189273  33.6515009
  36.8060967  43.7428687  33.7949658  35.8998409  42.6622897  34.3453572
  39.9297516  48.9417857  30.0333741  39.3006378  49.1063571  29.3309809
  39.5423178  49.3559466  30.8044705  43.8086748  49.8772295  27.3878105
  43.1237786  50.2571196  26.8375138  43.8930597  50.4867621  28.1210053
  39.1099217  40.9793641  35.3096183  38.8660149  41.7335702  34.7730459
  39.3859147  41.3578989  36.1443430  41.0637680  47.5232254  33.9873448
  41.2754575  48.1664014  33.3107830  41.0167428  46.6894570  33.5195379
  38.6663909  40.1350074  30.8910021  37.8048388  40.4331328  31.1826758
  38.6926343  40.3520473  29.9591053  35.4825478  48.6792265  27.2983826
  35.9463823  48.9579968  26.5088449  35.2182276  47.7775709  27.1156917
  32.3749559  48.2263746  30.2363589  32.9450916  48.6551015  29.5981074
  32.9657671  47.9446331  30.9347775  34.4194364  44.8015417  24.1073391
  35.1218407  45.2536461  24.5747318  34.0874992  44.1599236  24.7353285
  32.8674726  43.3927174  38.4824601  32.2373386  44.0743455  38.7159998
  32.7610813  43.2810256  37.5377739  28.1619698  43.0598970  29.4090525
  27.3718752  43.3156498  28.9330636  28.6530945  43.8747308  29.5142565
  42.1783507  50.4004209  32.1595806  43.0000951  49.9984396  31.8778487
  42.1745910  50.2972443  33.1111922  30.1134443  43.4243549  26.3674002
  29.3165607  43.5362243  26.8857497  29.8860036  43.7630201  25.5014892
  35.9440111  49.9488252  34.3156516  36.0084543  50.4108660  35.1514688
  35.2351035  49.3185617  34.4438826  26.4457401  43.3129460  31.8405516
  26.6965439  44.1976470  32.1063092  26.9816949  43.1334062  31.0680608
  50.2689501  46.7442958  28.5080777  49.5153209  46.1750356  28.3524782
  50.4037042  46.7105622  29.4551412  35.6588129  51.6156360  24.1835497
  35.5233803  52.4607896  24.6120344  36.1997941  51.8175638  23.4201430
  32.1455468  37.6947940  40.8449852  31.7522414  37.1414138  41.5197496
  32.9621609  38.0058518  41.2356369  29.1117526  49.1331798  24.7563422
  29.6242047  49.9275048  24.9068986  29.7640239  48.4358088  24.6897023
  30.9212411  52.2497554  26.8386175  31.0979039  53.1715519  26.6507159
  31.7169244  51.9355973  27.2680555  35.0623429  39.1105819  38.4370108
  35.8033143  39.7112972  38.3574571  35.2941352  38.3683457  37.8788151
  30.2064767  44.2962186  36.7148338  30.0918282  43.3947443  37.0155437
  29.3509285  44.5425883  36.3633155  37.2856605  52.2379926  38.3135839
  36.8420459  51.4516305  37.9956743  37.9473819  52.4259077  37.6479729
  32.0443726  53.7675728  32.8396517  32.5951151  53.6392791  32.0673511
  31.2055202  54.0670617  32.4891410  39.3837843  52.5182726  36.3417240
  39.3656318  53.3391607  35.8497509  40.3057763  52.3936802  36.5667381
  35.8410897  50.0326856  37.1840748  36.3739234  49.2715144  36.9540056
  35.3124978  49.7400508  37.9264903  39.0080592  35.1386922  32.7134390
  38.6644862  36.0288563  32.6373501  39.3759555  34.9488579  31.8503975
  27.0766443  47.4620452  25.5322992  27.9141665  47.8717461  25.3156700
  27.2544710  46.5219894  25.5023186  38.9730875  45.1295533  21.2206825
  38.4577498  45.9000138  21.4595213  38.7008183  44.4560669  21.8439887
  36.5577986  39.9745234  26.2792064  35.7019582  39.5852084  26.0997702
  36.9704938  40.0537194  25.4191849  38.0877133  37.5091577  30.6783623
  37.5841928  37.4721712  29.8651429  38.3807739  38.4184320  30.7380280
  34.3320018  37.5930307  29.6849805  35.1973015  37.3973115  29.3255695
  34.3997527  37.3640658  30.6119162  43.9465149  47.8827888  23.1559999
  43.1694592  47.5439047  22.7115161  44.6256630  47.8880511  22.4814964
  38.7617178  43.0022625  23.0466606  38.4567314  43.3168774  23.8976750
  39.7147620  43.0804045  23.0893939  37.2063610  49.1612848  24.6959560
  36.6784971  48.4265608  24.3832798  36.7051113  49.9387525  24.4499529
  42.1856456  47.3561869  29.8126607  41.5280130  48.0461130  29.9006735
  42.9896855  47.7458301  30.1560593  31.9382338  39.8232515  27.0566172
  32.5126089  39.6007696  26.3239365  32.5253320  39.8921209  27.8094773
  40.9961915  45.7106241  27.8630548  41.5093796  46.3436233  28.3652258
  41.6463139  45.1107437  27.4973908  32.2651925  41.8536976  21.0762057
  31.4289237  42.1911662  21.3971332  32.1256694  41.7185955  20.1389194
  34.2405005  36.6973763  25.7841241  33.5869418  36.3822781  25.1597856
  34.1985479  36.0749504  26.5101064  35.3516210  46.9793059  17.6994533
  34.4443272  46.7482312  17.8985682  35.8487242  46.1830678  17.8868515
  38.2584289  55.6890566  20.6191220  37.5845988  55.9922263  21.2276177
  38.6450111  56.4919646  20.2696677  37.4742746  43.1855697  30.1088889
  36.5565307  43.4070644  29.9510577  37.8902889  43.2602008  29.2500596
  38.2577793  44.5847113  25.2391569  39.0049612  45.0968510  24.9298691
  38.5269383  44.2631165  26.0995963  36.5304444  47.0805653  22.2218523
  35.6215663  46.7964686  22.3190993  36.5599527  47.5004732  21.3621830
  41.7623711  50.6912243  25.9909691  41.3086038  49.8503153  26.0474881
  41.1317678  51.3273641  26.3284471  40.7056631  41.6204229  27.2210358
  39.9679387  41.1081615  27.5520601  40.9583404  41.1804611  26.4093635
  40.2056650  52.5288740  26.9259509  40.4979625  53.0893797  26.2071875
  40.7155271  52.8217301  27.6812668  40.8068258  34.3980481  27.8152128
  41.1127135  33.5377844  27.5278043  41.5320863  34.9898101  27.6151122
  27.0992614  44.8011168  26.2033726  26.9017014  44.2080528  25.4784792
  26.5439278  44.4963378  26.9209664  35.0789338  44.6934274  28.3228319
  35.1337947  43.7408110  28.2470795  34.2680540  44.8493713  28.8069617
  36.2280531  48.6214397  19.5606602  35.7899961  47.9050256  19.1012239
  36.9690972  48.8490512  18.9991693  33.0181697  43.3111334  26.0818698
  32.2049563  43.6105504  26.4883890  33.5140692  42.9167023  26.7993180
  35.1690275  53.3069091  28.0152962  35.1266454  53.5329937  27.0861494
  36.0852974  53.0732465  28.1638764  38.6155909  43.7753158  34.9133592
  38.9705297  44.0024631  35.7728057  39.2628040  44.1071535  34.2910847
  44.3453646  46.8971594  25.6182921  44.2071545  47.0873190  24.6904110
  43.9889865  47.6590977  26.0750972  32.5095772  40.8829689  31.6979933
  33.1495152  40.7418448  31.0002896  31.6773303  40.5964203  31.3218535
  44.3723026  48.9648121  30.6294192  44.8059532  48.8723410  31.4777246
  45.0854606  48.9405622  29.9914208  33.2856076  50.1832120  27.8114925
  34.0796675  49.6882440  27.6097500  32.5747769  49.6549983  27.4482631
  38.1050921  52.5650215  32.1627293  38.1587943  53.1341152  32.9305009
  37.2365702  52.7352100  31.7981330  29.5938840  44.3275201  23.8874678
  28.6636428  44.2659657  24.1044640  29.6896312  43.8051154  23.0911319
  29.5124389  40.8530014  26.4752919  29.7731206  41.7675348  26.3662080
  30.3341561  40.3854457  26.6249532  30.9849314  42.2667771  33.6451744
  31.6572367  42.0585134  32.9964393  30.1579101  42.0689857  33.2056976
  45.2338575  49.0071822  33.1627078  45.4274465  49.9117632  33.4086352
  45.1339193  48.5479241  33.9965663  36.8874886  38.8929712  35.6617405
  36.2402801  39.5919662  35.5681881  37.6575901  39.3265856  36.0293653
  40.2953684  49.1578565  38.7367958  40.1439190  48.9289116  37.8198042
  40.2858363  50.1149166  38.7499303  37.0639020  46.7310477  33.7214225
  37.9931080  46.8821637  33.5483192  36.6430050  46.8194498  32.8662871
  35.8627352  50.7561142  31.4912762  35.7238438  50.3879926  32.3638700
  35.0741948  51.2708781  31.3196720  36.4575504  55.8570238  22.8338299
  36.6327260  55.3858281  23.6483921  35.7708292  56.4836004  23.0619559
  37.4132567  50.1342744  28.8801600  37.0782400  50.0943514  29.7759250
  36.9136513  49.4687460  28.4072010  31.3876811  45.5410374  34.4054181
  31.2496609  44.8090613  35.0065720  32.2981735  45.4519275  34.1238369
  40.3491759  47.4798779  19.1538660  39.7320930  46.7545607  19.0571712
  39.8808247  48.2408139  18.8105734  34.0159112  45.2530334  33.8937861
  34.7258730  44.6123526  33.8524479  33.9728420  45.5043229  34.8164042
  42.0045891  52.1897687  36.8144440  41.9458437  51.5056907  36.1475023
  42.4065409  52.9316677  36.3625066  32.7288046  42.2395552  35.7133500
  32.1925403  41.7886290  36.3655097  32.1404754  42.3741460  34.9703965
  31.0236589  59.0059601  29.6078159  31.2633188  59.6378125  30.2857177
  30.1805786  58.6547641  29.8943518  32.1390305  41.6984203  18.2759964
  31.2619771  41.5773004  17.9122211  32.6148058  40.9070281  18.0238853
  42.0063298  50.1537271  35.0458420  41.1190077  49.8163193  35.1684819
  42.5761849  49.4220302  35.2827185  23.6592445  46.4861363  28.3701471
  24.3463485  46.1723093  27.7822486  23.5040574  47.3902727  28.0968722
  28.4627167  41.3751559  32.7986495  28.3785356  40.7677229  32.0636905
  27.6409874  41.8660578  32.7995991  35.5364451  54.8138723  32.0119663
  35.4634623  55.6193695  32.5238967  35.0941844  55.0130689  31.1867684
  35.3254231  54.0510493  25.5222484  34.5421753  54.5932174  25.6160709
  36.0246976  54.5684473  25.9216726  38.6350881  39.8605123  28.1656690
  39.1319581  39.1075085  27.8457760  37.8637863  39.8969440  27.5999899
  46.4880638  45.5645488  29.8074981  46.4770515  46.4470204  29.4368914
  45.6198018  45.2117039  29.6129518  37.9963135  54.7125557  34.1677822
  38.7091107  55.3473022  34.0953723  37.5053163  54.8089423  33.3517823
  39.7180662  48.6176810  25.7395113  38.7836940  48.7378273  25.5699818
  39.8957330  47.7149277  25.4755123  35.2185850  42.0022506  27.8928374
  34.8483637  41.4493546  28.5809280  35.7144942  41.3980639  27.3403374
  43.1053213  44.4594129  26.2745147  43.5713665  45.2922121  26.2005450
  43.5560714  43.9939111  26.9790406  33.0475048  52.4620001  34.9883392
  33.7484508  53.0956484  35.1412787  32.5770163  52.8034732  34.2279032
  41.1729444  50.8037951  23.2731299  41.4489288  50.6894545  24.1825173
  40.3033943  50.4055436  23.2343472  41.0769876  36.8274716  30.3136049
  40.1632956  37.0578943  30.4818256  41.5062977  36.9113160  31.1650081
  40.8476334  45.0164608  32.8135943  40.1947785  45.2640516  32.1588395
  41.2256714  44.2028747  32.4798420  37.8083508  55.0524302  26.9164113
  37.9905903  54.2345957  27.3791865  38.6316494  55.2691994  26.4789003
  38.1425674  53.9792487  24.1779161  38.6713440  53.4684941  23.5649324
  38.4053893  53.6635017  25.0424695  36.8963907  45.7584419  39.3001980
  36.2204544  45.6578549  39.9704355  37.7191541  45.6023633  39.7637977
  28.6442766  51.9956356  31.9214495  29.2296203  51.2500044  32.0542399
  28.4467605  52.3060313  32.8051159  31.4981422  55.0307603  26.9376937
  30.8291797  55.5153731  26.4540977  31.3594291  55.2776824  27.8520316
  23.2360421  44.5661956  30.6418938  23.2744521  44.0325547  31.4356056
  22.7300714  44.0397162  30.0229915  35.6386690  57.0651347  33.5359596
  36.1904998  57.2282968  34.3008681  35.9792884  57.6555785  32.8639621
  30.6151183  39.4126497  34.1381480  30.6792510  40.2741328  33.7258878
  30.5518304  38.8000498  33.4053839  30.0903456  41.4849629  37.7854515
  30.7175495  41.1026707  38.3992039  29.2331375  41.2663831  38.1510207
  40.4897565  51.8912604  39.3908250  41.0337468  52.5042563  38.8963205
  39.9084409  52.4492183  39.9075263  26.8668999  43.2926058  23.7172870
  27.1622440  42.3836737  23.6639923  25.9657034  43.2713798  23.3953872
  38.7755077  55.0133322  30.5223278  38.6506217  54.2123062  30.0134223
  39.4334169  55.5079516  30.0337248  30.3963246  41.3682055  29.7000418
  29.6749831  41.9818023  29.5607891  31.1856501  41.9039820  29.6217064
  40.8389986  52.8142342  32.1502828  39.8920321  52.6947694  32.0781155
  41.1872759  51.9264841  32.2329089  33.1989559  38.7036481  35.9741070
  33.7223961  38.9498778  36.7367379  32.9801892  39.5356516  35.5544207
  28.5956840  40.9740156  23.8412195  28.2669546  40.0937535  23.6587301
  28.9496211  40.9187825  24.7288584  37.8436419  52.6095059  28.3507180
  37.6961382  51.6811766  28.5314750  38.6689913  52.6315149  27.8664255
  31.7098663  41.2613126  24.2087672  32.0494736  41.7899047  23.4866281
  32.1570784  41.5993532  24.9846239  41.4470541  53.4323617  29.4372053
  42.3717088  53.2266479  29.2996504  41.2785844  53.1840019  30.3461394
  34.4042104  39.6450176  33.6590740  34.0638925  38.8457990  34.0611420
  33.6981111  39.9451887  33.0867574  35.0558576  36.7299489  32.1118063
  35.8784645  36.2559967  31.9896954  35.2996640  37.5089973  32.6116750
  33.6966811  39.7587747  22.4080965  34.4175173  40.1369000  21.9044682
  33.0732115  40.4776624  22.5115943  37.8397933  40.4632896  23.3439297
  38.0561548  41.3457534  23.0428126  37.3592001  40.0719110  22.6144939
  32.5797155  43.4218610  29.9210042  32.4341736  43.7358913  30.8134324
  32.1022358  44.0403510  29.3680941  34.4393538  40.4121158  29.9690932
  34.4255106  39.5162251  29.6323230  35.1565966  40.4191821  30.6029218
  36.2919668  40.8458498  32.0144059  36.0337446  41.7675568  32.0128389
  35.7604709  40.4488932  32.7044523  41.2365857  53.9509285  24.7934144
  41.4102735  53.3855707  24.0407997  41.7294748  54.7510180  24.6113634
  27.0542817  45.9623954  32.8597703  26.5096285  46.7383762  32.9917978
  27.9322167  46.3094758  32.7016825  33.8430434  39.2935538  25.2378502
  33.9646345  38.3652184  25.4369389  33.5532476  39.3074224  24.3256817
  36.7121624  36.9790448  28.3745222  36.7343321  37.0429781  27.4197201
  37.1289683  36.1394957  28.5685728  47.0905248  46.7145708  26.4124444
  47.5336394  45.9653033  26.0143567  46.2131759  46.7055844  26.0298176
  42.2241030  53.2676049  21.8931043  42.9191934  53.8882742  22.1118357
  42.5664180  52.4171400  22.1683421  27.8408839  45.0893850  35.7527860
  27.0990575  45.2376486  36.3392491  27.5201583  45.3502116  34.8894610
  44.1232453  50.7175755  23.4218374  44.6483777  51.0563028  22.6967694
  44.0354805  49.7822770  23.2381508  35.7852502  54.6309828  35.5508250
  36.0939628  54.3858975  36.4230950  36.5827984  54.8356467  35.0627120
  35.8073114  56.7847738  27.7813627  35.3678104  56.2924117  28.4746483
  36.5581231  56.2420706  27.5405702  28.2865453  52.9759279  27.7838255
  29.1123472  52.6763051  27.4036898  27.9359505  52.2066901  28.2328043
  33.2546986  52.3285747  29.8535928  32.6326995  51.6656452  29.5538156
  33.9251853  52.3546879  29.1709576  26.4874058  50.8945605  28.7427188
  25.6505966  50.4667780  28.5611190  26.4597703  51.0878049  29.6797980
  33.3271513  40.8067535  39.4468434  33.3759669  41.6829658  39.0646204
  33.8694027  40.2644928  38.8740078  43.8126359  51.3508658  38.7269571
  43.0221903  51.3332797  38.1874071  43.5759713  51.8896952  39.4818608
  43.9324234  48.2001125  36.0402300  43.9822239  48.0351132  36.9817823
  43.8238157  47.3328384  35.6500181  32.8160493  50.8789671  23.3294389
  32.9648613  51.5625135  22.6761062  33.6226936  50.8594761  23.8443845
  41.2227996  44.1832053  37.3561607  42.1237859  44.0438518  37.0645605
  41.2975971  44.3486508  38.2959784  35.5570802  41.5598908  36.2014793
  34.6874111  41.8532474  35.9297382  35.7930282  42.1439353  36.9222057
  45.4342431  50.6198066  36.2844322  45.1427239  50.9828047  37.1207783
  44.8214562  49.9065075  36.1057654  46.6338113  48.1850946  28.8046892
  47.4685004  48.6240750  28.9684452  46.7697242  47.7089599  27.9855138
  43.6829619  45.7430681  34.7524380  44.1583741  45.9358327  33.9443231
  42.7595184  45.7989867  34.5067763  30.5713126  46.9054848  24.3355458
  30.3259168  46.0017178  24.5335668  30.7409040  46.9071999  23.3934936
  38.2609835  37.7778525  33.7180213  38.7791779  38.5139551  33.3926702
  37.9064968  38.0842518  34.5526973  29.8408773  42.6383206  21.8341619
  29.1478018  42.7127561  21.1781655  29.5960525  41.8743549  22.3563136
  38.5122430  34.1978807  29.2381110  38.7924183  33.5301996  29.8641537
  39.2973037  34.3907903  28.7255774  36.3155898  53.3737801  20.8006136
  35.7429865  53.9927988  20.3476608  36.8888692  53.9237163  21.3346058
  42.3831288  42.6196441  32.9852685  43.3348711  42.7194539  33.0064909
  42.2134738  41.8274710  33.4950769  40.4045667  39.7052024  33.1712086
  39.8095600  39.9857037  32.4758575  40.1195364  40.1945925  33.9428827
  39.5353158  53.6574951  21.9314719  40.4683831  53.5920513  22.1347594
  39.4476371  54.4931218  21.4729251  42.1641175  52.9740821  18.8918666
  42.0854806  52.6400685  19.7854424  42.9850841  53.4662589  18.8910139
  44.8619366  45.8402561  32.0994985  44.8295686  44.9018561  32.2854669
  45.4719989  45.9186597  31.3660810  36.7002697  44.7098614  18.1422189
  37.6461801  44.5804822  18.2110607  36.3216942  43.9713276  18.6191617
  45.0113854  42.6313604  32.1453268  44.4952903  41.8472061  31.9583197
  45.8953803  42.3032321  32.3099787  42.6724581  36.3754620  28.1049081
  42.4749402  36.0669708  28.9892413  43.2824287  37.1016259  28.2347010
  50.6795916  46.9018568  31.2401022  51.4099304  46.6403856  31.8008725
  50.0702861  46.1647290  31.2803090  48.7611213  45.0426430  31.8375473
  48.0344376  44.9082395  31.2291964  48.3458500  45.3503259  32.6432191
  36.5841389  48.7616360  39.6022846  37.5044399  48.9394959  39.7962892
  36.5490972  47.8172405  39.4502545  34.8845614  42.6348590  18.0777074
  33.9777069  42.3381703  18.1539788  35.1621595  42.3378408  17.2111360
  25.8023554  43.9554954  28.5276120  25.4826339  43.1020262  28.2350494
  25.2556982  44.1703532  29.2834088  29.5803462  46.6717395  32.2445627
  29.7989472  47.6034502  32.2633661  29.9929236  46.3125369  33.0300431
  36.5007680  37.1785480  24.2321315  35.6908408  36.8332565  24.6076561
  37.1892096  36.8693024  24.8208927  38.4298228  36.2563527  25.8545612
  38.9829266  36.6758980  26.5135635  38.6668314  35.3299275  25.8968568
  34.4531327  42.2450600  41.6348376  34.3528054  43.1944957  41.5660467
  34.2352869  41.9168839  40.7624446  33.6544398  39.4935525  18.2189053
  34.5163562  39.8190424  18.4784871  33.8394743  38.7067021  17.7062119
  25.6711814  47.5757865  30.4969242  24.9775286  47.1611818  29.9839196
  26.4184805  47.6178402  29.9002661  41.8077035  38.3664052  25.3624276
  41.2275704  39.0248856  24.9802329  41.5412968  37.5441396  24.9511694
  40.2580601  37.7669109  27.5645597  40.7580380  37.8785644  26.7559915
  40.9016209  37.4630162  28.2046405  34.3162597  45.6747739  40.4513438
  33.8329679  46.4748099  40.6577327  34.4023536  45.6855684  39.4980882
  27.5848557  47.5076119  28.3735257  27.5619245  47.6063806  27.4217140
  27.8949193  48.3541270  28.6952423  30.2435935  49.5652274  32.4881871
  31.1979188  49.5336216  32.4211803  30.0448458  49.1042898  33.3032097
  30.8335317  48.1353390  35.0552669  31.6528206  48.6297469  35.0787506
  31.1072124  47.2185358  35.0270236  40.5901913  40.5264142  24.4180625
  39.7027768  40.8113793  24.2000819  41.0055902  40.3657906  23.5707901
  43.9416449  40.5510663  28.1334964  44.7176839  41.0407116  28.4059581
  43.2164583  40.9768717  28.5906833  46.3789008  41.2638282  29.1908904
  46.9733498  41.0234018  28.4802213  46.4515591  40.5445413  29.8182441
  28.5986163  55.1071893  29.5052069  28.4640631  54.3472294  28.9390067
  28.1818226  55.8312793  29.0380858  39.7345126  50.2908817  18.5128644
  40.4380977  50.4958819  19.1286300  39.0107775  50.8585579  18.7777728
  40.5642937  46.0418678  24.6330915  40.5078138  46.4987230  23.7938547
  41.1171279  45.2809363  24.4553757  44.3747743  41.8308410  25.4581034
  44.1184677  41.4305046  26.2889242  43.7500611  42.5452204  25.3331173
  48.6860080  44.5704483  27.9652326  48.1259638  44.6397673  28.7383888
  48.0803584  44.3945468  27.2451822  31.7555289  56.0041210  29.7170512
  31.6387673  56.9486643  29.6149202  30.9347736  55.7014772  30.1056311
  41.6431824  50.7291346  20.5627105  42.4777428  50.2972545  20.3804579
  41.4816167  50.5573360  21.4903999  41.2977716  47.2323459  21.9283444
  41.2426520  47.0667731  20.9871888  40.6723771  47.9399492  22.0845634
  26.0870231  42.4691524  35.7544866  26.7329095  41.9590478  36.2432091
  25.8787382  43.2060205  36.3288291  38.6123623  49.5372371  41.2537007
  39.4814783  49.7113023  40.8923642  38.1330375  50.3566788  41.1312736
  34.6073841  36.7331568  21.5068762  34.5952511  37.6773408  21.6637033
  35.4997263  36.5501714  21.2128223  32.7809803  56.6569472  32.9326440
  33.6837050  56.6893082  33.2492935  32.5547173  55.7269923  32.9472776
  34.5363405  55.4100459  29.5936519  33.5859036  55.4102320  29.4800891
  34.8395892  54.6633193  29.0772554  38.4225961  33.3274345  25.7614699
  37.6558357  32.7732832  25.9071381  38.8336666  33.3996214  26.6228851
  30.4267722  39.6159141  39.8519880  31.2899184  39.2595946  40.0623205
  29.8533133  39.2773036  40.5395285  50.2716099  61.2460997  30.6582281
  50.9094509  61.1267744  29.9545621  50.1536942  62.1941841  30.7170233
  47.0805805  61.1988425  30.5943806  46.7424317  61.0829490  29.7064341
  47.9495573  60.7979590  30.5744812  42.9392621  63.0523902  26.5840697
  42.3757486  62.9613839  25.8156985  42.8245016  62.2323806  27.0643189
  47.5625588  62.3523277  36.5530012  47.5514229  61.9576075  35.6810515
  47.7246228  61.6189350  37.1463783  40.4857053  64.5475093  29.4224917
  41.2778345  64.2065918  29.0071217  40.7253703  64.6570068  30.3427071
  48.5192180  66.7194869  21.8955162  47.8680159  67.3048950  21.5089176
  49.3136542  67.2501064  21.9550199  42.4447807  63.8084007  22.2942296
  43.2178683  63.2612994  22.1555172  42.7973206  64.6728256  22.5056758
  44.2832849  65.1360389  35.5009195  43.9922715  66.0406020  35.3855862
  44.9189834  65.1776916  36.2153265  45.2089056  62.5137237  32.0910555
  45.8052628  62.2893260  31.3767518  45.2664028  61.7721983  32.6936003
  44.7814085  59.9676673  19.9260746  45.0339605  59.4458194  19.1644209
  43.8438644  59.8042818  20.0287430  49.8257367  58.9712451  27.7335489
  50.6120457  58.5531874  27.3825906  50.0896072  59.8758543  27.9017138
  49.9967445  64.4085301  22.4324146  49.3613278  64.4819928  23.1445051
  49.6664851  64.9978900  21.7543225  55.2265794  58.9087684  28.6368468
  55.9590966  58.3386901  28.8706297  54.4705150  58.5209285  29.0774973
  44.5010373  61.8704779  22.1285121  44.3846631  61.1949682  22.7966205
  44.6112633  61.3837153  21.3117274  46.8441914  61.3314926  25.8331810
  46.4800121  60.8045547  26.5444732  47.7009030  60.9413395  25.6598296
  52.7491215  52.6209258  33.0963076  52.4174540  53.4904669  32.8724291
  52.1536828  52.3045542  33.7757107  46.4847401  56.3604825  20.8293159
  46.6521804  57.2285062  21.1963630  46.2944570  56.5232107  19.9054448
  49.2422734  64.8221804  32.4958989  48.9423457  65.7246843  32.3874796
  48.8973794  64.5553987  33.3480142  42.6935216  61.2735601  28.5295694
  41.7685712  61.1411815  28.7373385  42.9419629  62.0529820  29.0265636
  52.6419878  57.3404344  30.1756426  51.7336756  57.2719753  29.8815187
  52.5907474  57.8176289  31.0038252  46.4636622  58.8162483  21.8139826
  46.3436247  59.2619534  22.6525306  45.7689210  59.1647801  21.2553364
  40.0544027  60.9168875  29.3639483  40.1836408  61.1703354  30.2778894
  39.3741478  61.5096583  29.0444138  44.2243514  71.5866125  25.4629957
  44.1467544  72.5373950  25.5418437  43.6205158  71.2411997  26.1204883
  46.7160744  58.7593990  38.1191324  45.9394078  59.3187910  38.1094188
  47.3551307  59.2450773  38.6406194  54.5081525  55.5420783  31.9534300
  53.8655905  55.8353316  31.3074095  54.0036453  55.4273703  32.7587497
  52.1621688  59.2883956  22.6420160  53.0739544  59.5211343  22.4667857
  51.6531335  59.8721000  22.0795238  44.9707116  61.5679443  37.6809291
  45.7121801  62.1064487  37.4044114  44.2644102  62.1945732  37.8380843
  50.4462456  63.7108584  36.2781452  50.8545812  63.2690994  35.5336085
  49.7239717  63.1361211  36.5315645  46.7993526  58.6481191  33.6515009
  47.6454721  59.0720604  33.7949658  46.7392164  57.9914815  34.3453572
  50.7691271  64.2709775  30.0333741  50.1400133  64.4355489  29.3309809
  50.3816933  64.6851384  30.8044705  54.6480502  65.2064212  27.3878105
  53.9631541  65.5863114  26.8375138  54.7324352  65.8159539  28.1210053
  49.9492971  56.3085559  35.3096183  49.7053903  57.0627620  34.7730459
  50.2252902  56.6870907  36.1443430  51.9031434  62.8524171  33.9873448
  52.1148329  63.4955931  33.3107830  51.8561182  62.0186488  33.5195379
  49.5057663  55.4641992  30.8910021  48.6442142  55.7623246  31.1826758
  49.5320098  55.6812391  29.9591053  46.3219232  64.0084183  27.2983826
  46.7857578  64.2871886  26.5088449  46.0576031  63.1067627  27.1156917
  43.2143313  63.5555664  30.2363589  43.7844671  63.9842933  29.5981074
  43.8051425  63.2738249  30.9347775  45.2588118  60.1307335  24.1073391
  45.9612162  60.5828379  24.5747318  44.9268747  59.4891154  24.7353285
  43.7068480  58.7219092  38.4824601  43.0767141  59.4035372  38.7159998
  43.6004568  58.6102173  37.5377739  39.0013452  58.3890888  29.4090525
  38.2112506  58.6448416  28.9330636  39.4924700  59.2039225  29.5142565
  53.0177262  65.7296127  32.1595806  53.8394706  65.3276314  31.8778487
  53.0139665  65.6264361  33.1111922  40.9528198  58.7535467  26.3674002
  40.1559361  58.8654161  26.8857497  40.7253790  59.0922119  25.5014892
  46.7833865  65.2780170  34.3156516  46.8478298  65.7400577  35.1514688
  46.0744789  64.6477535  34.4438826  37.2851155  58.6421378  31.8405516
  37.5359194  59.5268388  32.1063092  37.8210704  58.4625980  31.0680608
  61.1083255  62.0734875  28.5080777  60.3546963  61.5042273  28.3524782
  61.2430796  62.0397540  29.4551412  46.4981883  66.9448278  24.1835497
  46.3627558  67.7899813  24.6120344  47.0391696  67.1467555  23.4201430
  42.9849223  53.0239857  40.8449852  42.5916168  52.4706056  41.5197496
  43.8015363  53.3350436  41.2356369  39.9511280  64.4623716  24.7563422
  40.4635801  65.2566966  24.9068986  40.6033993  63.7650006  24.6897023
  41.7606165  67.5789472  26.8386175  41.9372794  68.5007437  26.6507159
  42.5562999  67.2647891  27.2680555  45.9017184  54.4397737  38.4370108
  46.6426897  55.0404890  38.3574571  46.1335107  53.6975374  37.8788151
  41.0458522  59.6254104  36.7148338  40.9312037  58.7239361  37.0155437
  40.1903039  59.8717801  36.3633155  48.1250359  67.5671844  38.3135839
  47.6814214  66.7808223  37.9956743  48.7867573  67.7550995  37.6479729
  42.8837481  69.0967646  32.8396517  43.4344906  68.9684709  32.0673511
  42.0448957  69.3962535  32.4891410  50.2231598  67.8474644  36.3417240
  50.2050073  68.6683525  35.8497509  51.1451518  67.7228719  36.5667381
  46.6804652  65.3618774  37.1840748  47.2132988  64.6007062  36.9540056
  46.1518733  65.0692425  37.9264903  49.8474347  50.4678839  32.7134390
  49.5038616  51.3580481  32.6373501  50.2153309  50.2780497  31.8503975
  37.9160197  62.7912370  25.5322992  38.7535419  63.2009378  25.3156700
  38.0938465  61.8511812  25.5023186  49.8124629  60.4587451  21.2206825
  49.2971253  61.2292055  21.4595213  49.5401938  59.7852587  21.8439887
  47.3971740  55.3037151  26.2792064  46.5413337  54.9144002  26.0997702
  47.8098692  55.3829112  25.4191849  48.9270887  52.8383495  30.6783623
  48.4235683  52.8013630  29.8651429  49.2201494  53.7476237  30.7380280
  45.1713773  52.9222224  29.6849805  46.0366770  52.7265033  29.3255695
  45.2391282  52.6932576  30.6119162  54.7858904  63.2119805  23.1559999
  54.0088346  62.8730965  22.7115161  55.4650384  63.2172428  22.4814964
  49.6010933  58.3314543  23.0466606  49.2961068  58.6460692  23.8976750
  50.5541375  58.4095963  23.0893939  48.0457364  64.4904766  24.6959560
  47.5178726  63.7557526  24.3832798  47.5444867  65.2679442  24.4499529
  53.0250210  62.6853786  29.8126607  52.3673885  63.3753048  29.9006735
  53.8290610  63.0750218  30.1560593  42.7776092  55.1524432  27.0566172
  43.3519844  54.9299614  26.3239365  43.3647074  55.2213127  27.8094773
  51.8355669  61.0398159  27.8630548  52.3487551  61.6728151  28.3652258
  52.4856893  60.4399355  27.4973908  43.1045679  57.1828893  21.0762057
  42.2682991  57.5203580  21.3971332  42.9650449  57.0477873  20.1389194
  45.0798760  52.0265681  25.7841241  44.4263172  51.7114698  25.1597856
  45.0379234  51.4041422  26.5101064  46.1909965  62.3084976  17.6994533
  45.2837026  62.0774230  17.8985682  46.6880997  61.5122596  17.8868515
  49.0978043  71.0182483  20.6191220  48.4239742  71.3214180  21.2276177
  49.4843865  71.8211564  20.2696677  48.3136500  58.5147615  30.1088889
  47.3959061  58.7362562  29.9510577  48.7296644  58.5893925  29.2500596
  49.0971548  59.9139030  25.2391569  49.8443367  60.4260428  24.9298691
  49.3663137  59.5923083  26.0995963  47.3698198  62.4097571  22.2218523
  46.4609417  62.1256604  22.3190993  47.3993282  62.8296650  21.3621830
  52.6017465  66.0204161  25.9909691  52.1479793  65.1795071  26.0474881
  51.9711432  66.6565559  26.3284471  51.5450385  56.9496147  27.2210358
  50.8073142  56.4373533  27.5520601  51.7977159  56.5096528  26.4093635
  51.0450405  67.8580657  26.9259509  51.3373379  68.4185714  26.2071875
  51.5549025  68.1509218  27.6812668  51.6462012  49.7272399  27.8152128
  51.9520889  48.8669762  27.5278043  52.3714617  50.3190019  27.6151122
  37.9386368  60.1303085  26.2033726  37.7410768  59.5372446  25.4784792
  37.3833032  59.8255295  26.9209664  45.9183092  60.0226192  28.3228319
  45.9731702  59.0700028  28.2470795  45.1074294  60.1785631  28.8069617
  47.0674286  63.9506315  19.5606602  46.6293716  63.2342174  19.1012239
  47.8084727  64.1782430  18.9991693  43.8575452  58.6403251  26.0818698
  43.0443318  58.9397422  26.4883890  44.3534446  58.2458940  26.7993180
  46.0084030  68.6361008  28.0152962  45.9660209  68.8621855  27.0861494
  46.9246729  68.4024383  28.1638764  49.4549664  59.1045076  34.9133592
  49.8099051  59.3316549  35.7728057  50.1021795  59.4363453  34.2910847
  55.1847401  62.2263512  25.6182921  55.0465299  62.4165108  24.6904110
  54.8283619  62.9882895  26.0750972  43.3489527  56.2121607  31.6979933
  43.9888906  56.0710366  31.0002896  42.5167057  55.9256120  31.3218535
  55.2116780  64.2940039  30.6294192  55.6453287  64.2015328  31.4777246
  55.9248361  64.2697539  29.9914208  44.1249831  65.5124037  27.8114925
  44.9190429  65.0174358  27.6097500  43.4141523  64.9841901  27.4482631
  48.9444675  67.8942133  32.1627293  48.9981697  68.4633069  32.9305009
  48.0759456  68.0644018  31.7981330  40.4332594  59.6567119  23.8874678
  39.5030182  59.5951575  24.1044640  40.5290066  59.1343072  23.0911319
  40.3518143  56.1821932  26.4752919  40.6124960  57.0967265  26.3662080
  41.1735315  55.7146375  26.6249532  41.8243068  57.5959689  33.6451744
  42.4966122  57.3877051  32.9964393  40.9972855  57.3981775  33.2056976
  56.0732330  64.3363739  33.1627078  56.2668220  65.2409550  33.4086352
  55.9732948  63.8771159  33.9965663  47.7268640  54.2221630  35.6617405
  47.0796556  54.9211580  35.5681881  48.4969656  54.6557774  36.0293653
  51.1347438  64.4870482  38.7367958  50.9832945  64.2581034  37.8198042
  51.1252118  65.4441084  38.7499303  47.9032775  62.0602395  33.7214225
  48.8324835  62.2113555  33.5483192  47.4823805  62.1486416  32.8662871
  46.7021107  66.0853059  31.4912762  46.5632192  65.7171844  32.3638700
  45.9135703  66.6000699  31.3196720  47.2969259  71.1862156  22.8338299
  47.4721014  70.7150199  23.6483921  46.6102047  71.8127922  23.0619559
  48.2526322  65.4634662  28.8801600  47.9176154  65.4235432  29.7759250
  47.7530267  64.7979378  28.4072010  42.2270566  60.8702292  34.4054181
  42.0890364  60.1382531  35.0065720  43.1375489  60.7811192  34.1238369
  51.1885513  62.8090696  19.1538660  50.5714684  62.0837525  19.0571712
  50.7202002  63.5700057  18.8105734  44.8552866  60.5822251  33.8937861
  45.5652485  59.9415444  33.8524479  44.8122175  60.8335146  34.8164042
  43.5681800  57.5687469  35.7133500  43.0319157  57.1178208  36.3655097
  42.9798509  57.7033378  34.9703965  41.8630344  74.3351519  29.6078159
  42.1026942  74.9670043  30.2857177  41.0199540  73.9839559  29.8943518
  42.9784059  57.0276121  18.2759964  42.1013526  56.9064922  17.9122211
  43.4541812  56.2362199  18.0238853  52.8457052  65.4829189  35.0458420
  51.9583831  65.1455111  35.1684819  53.4155603  64.7512220  35.2827185
  34.4986199  61.8153280  28.3701471  35.1857239  61.5015011  27.7822486
  34.3434328  62.7194645  28.0968722  39.3020922  56.7043477  32.7986495
  39.2179110  56.0969147  32.0636905  38.4803628  57.1952495  32.7995991
  46.3758206  70.1430641  32.0119663  46.3028377  70.9485613  32.5238967
  45.9335599  70.3422607  31.1867684  46.1647985  69.3802411  25.5222484
  45.3815507  69.9224091  25.6160709  46.8640731  69.8976391  25.9216726
  49.4744635  55.1897041  28.1656690  49.9713335  54.4367003  27.8457760
  48.7031617  55.2261357  27.5999899  57.3274393  60.8937406  29.8074981
  57.3164269  61.7762122  29.4368914  56.4591772  60.5408957  29.6129518
  48.8356889  70.0417475  34.1677822  49.5484861  70.6764940  34.0953723
  48.3446918  70.1381341  33.3517823  50.5574416  63.9468728  25.7395113
  49.6230695  64.0670190  25.5699818  50.7351085  63.0441195  25.4755123
  46.0579604  57.3314424  27.8928374  45.6877392  56.7785464  28.5809280
  46.5538697  56.7272557  27.3403374  53.9446968  59.7886047  26.2745147
  54.4107420  60.6214039  26.2005450  54.3954468  59.3231029  26.9790406
  43.8868803  67.7911919  34.9883392  44.5878262  68.4248402  35.1412787
  43.4163918  68.1326650  34.2279032  52.0123199  66.1329868  23.2731299
  52.2883043  66.0186463  24.1825173  51.1427697  65.7347353  23.2343472
  51.9163630  52.1566634  30.3136049  51.0026710  52.3870861  30.4818256
  52.3456732  52.2405078  31.1650081  51.6870089  60.3456526  32.8135943
  51.0341539  60.5932433  32.1588395  52.0650469  59.5320664  32.4798420
  48.6477263  70.3816219  26.9164113  48.8299657  69.5637875  27.3791865
  49.4710249  70.5983911  26.4789003  48.9819428  69.3084404  24.1779161
  49.5107195  68.7976859  23.5649324  49.2447648  68.9926935  25.0424695
  47.7357662  61.0876337  39.3001980  47.0598299  60.9870466  39.9704355
  48.5585296  60.9315551  39.7637977  39.4836521  67.3248274  31.9214495
  40.0689958  66.5791962  32.0542399  39.2861359  67.6352230  32.8051159
  42.3375176  70.3599521  26.9376937  41.6685551  70.8445649  26.4540977
  42.1988046  70.6068741  27.8520316  34.0754176  59.8953874  30.6418938
  34.1138275  59.3617465  31.4356056  33.5694468  59.3689079  30.0229915
  46.4780445  72.3943265  33.5359596  47.0298753  72.5574886  34.3008681
  46.8186638  72.9847702  32.8639621  41.4544938  54.7418414  34.1381480
  41.5186264  55.6033245  33.7258878  41.3912058  54.1292416  33.4053839
  40.9297210  56.8141547  37.7854515  41.5569249  56.4318624  38.3992039
  40.0725129  56.5955749  38.1510207  37.7062753  58.6217976  23.7172870
  38.0016194  57.7128654  23.6639923  36.8050789  58.6005715  23.3953872
  49.6148832  70.3425240  30.5223278  49.4899971  69.5414980  30.0134223
  50.2727923  70.8371433  30.0337248  41.2357000  56.6973973  29.7000418
  40.5143586  57.3109940  29.5607891  42.0250256  57.2331737  29.6217064
  51.6783740  68.1434260  32.1502828  50.7314076  68.0239611  32.0781155
  52.0266513  67.2556758  32.2329089  44.0383314  54.0328399  35.9741070
  44.5617716  54.2790696  36.7367379  43.8195647  54.8648434  35.5544207
  39.4350595  56.3032074  23.8412195  39.1063301  55.4229453  23.6587301
  39.7889965  56.2479742  24.7288584  48.6830174  67.9386976  28.3507180
  48.5355136  67.0103684  28.5314750  49.5083667  67.9607067  27.8664255
  42.5492418  56.5905043  24.2087672  42.8888490  57.1190965  23.4866281
  42.9964538  56.9285450  24.9846239  52.2864295  68.7615535  29.4372053
  53.2110843  68.5558396  29.2996504  52.1179599  68.5131936  30.3461394
  45.2435859  54.9742094  33.6590740  44.9032679  54.1749907  34.0611420
  44.5374865  55.2743805  33.0867574  45.8952331  52.0591407  32.1118063
  46.7178400  51.5851885  31.9896954  46.1390394  52.8381890  32.6116750
  44.5360565  55.0879665  22.4080965  45.2568928  55.4660918  21.9044682
  43.9125869  55.8068542  22.5115943  48.6791688  55.7924814  23.3439297
  48.8955302  56.6749452  23.0428126  48.1985755  55.4011027  22.6144939
  43.4190909  58.7510527  29.9210042  43.2735490  59.0650830  30.8134324
  42.9416113  59.3695428  29.3680941  45.2787292  55.7413075  29.9690932
  45.2648861  54.8454169  29.6323230  45.9959720  55.7483739  30.6029218
  47.1313423  56.1750415  32.0144059  46.8731201  57.0967486  32.0128389
  46.5998463  55.7780850  32.7044523  52.0759612  69.2801203  24.7934144
  52.2496489  68.7147625  24.0407997  52.5688503  70.0802097  24.6113634
  37.8936571  61.2915872  32.8597703  37.3490040  62.0675680  32.9917978
  38.7715921  61.6386676  32.7016825  44.6824188  54.6227455  25.2378502
  44.8040099  53.6944102  25.4369389  44.3926231  54.6366141  24.3256817
  47.5515379  52.3082366  28.3745222  47.5737075  52.3721699  27.4197201
  47.9683438  51.4686875  28.5685728  57.9299003  62.0437625  26.4124444
  58.3730149  61.2944951  26.0143567  57.0525513  62.0347762  26.0298176
  53.0634784  68.5967967  21.8931043  53.7585689  69.2174660  22.1118357
  53.4057934  67.7463318  22.1683421  38.6802593  60.4185768  35.7527860
  37.9384329  60.5668403  36.3392491  38.3595338  60.6794034  34.8894610
  54.9626207  66.0467672  23.4218374  55.4877531  66.3854945  22.6967694
  54.8748560  65.1114688  23.2381508  46.6246256  69.9601746  35.5508250
  46.9333382  69.7150893  36.4230950  47.4221738  70.1648385  35.0627120
  46.6466868  72.1139656  27.7813627  46.2071858  71.6216034  28.4746483
  47.3974985  71.5712623  27.5405702  39.1259207  68.3051197  27.7838255
  39.9517227  68.0054968  27.4036898  38.7753259  67.5358819  28.2328043
  44.0940740  67.6577665  29.8535928  43.4720749  66.9948370  29.5538156
  44.7645607  67.6838797  29.1709576  37.3267812  66.2237523  28.7427188
  36.4899720  65.7959697  28.5611190  37.2991458  66.4169966  29.6797980
  44.1665268  56.1359453  39.4468434  44.2153423  57.0121576  39.0646204
  44.7087782  55.5936846  38.8740078  54.7717988  63.5293042  36.0402300
  54.8215993  63.3643050  36.9817823  54.6631912  62.6620302  35.6500181
  43.6554247  66.2081588  23.3294389  43.8042367  66.8917053  22.6761062
  44.4620691  66.1886678  23.8443845  52.0621751  59.5123971  37.3561607
  52.9631614  59.3730435  37.0645605  52.1369725  59.6778425  38.2959784
  46.3964556  56.8890825  36.2014793  45.5267866  57.1824391  35.9297382
  46.6324036  57.4731270  36.9222057  56.2736185  65.9489984  36.2844322
  55.9820994  66.3119965  37.1207783  55.6608317  65.2356992  36.1057654
  57.4731868  63.5142864  28.8046892  58.3078759  63.9532668  28.9684452
  57.6090996  63.0381517  27.9855138  54.5223373  61.0722599  34.7524380
  54.9977495  61.2650245  33.9443231  53.5988939  61.1281784  34.5067763
  41.4106880  62.2346766  24.3355458  41.1652922  61.3309096  24.5335668
  41.5802795  62.2363916  23.3934936  49.1003590  53.1070442  33.7180213
  49.6185534  53.8431469  33.3926702  48.7458723  53.4134435  34.5526973
  40.6802528  57.9675123  21.8341619  39.9871773  58.0419478  21.1781655
  40.4354280  57.2035467  22.3563136  49.3516184  49.5270725  29.2381110
  49.6317938  48.8593914  29.8641537  50.1366791  49.7199820  28.7255774
  47.1549653  68.7029719  20.8006136  46.5823620  69.3219906  20.3476608
  47.7282446  69.2529080  21.3346058  53.2225042  57.9488359  32.9852685
  54.1742465  58.0486456  33.0064909  53.0528493  57.1566627  33.4950769
  51.2439422  55.0343942  33.1712086  50.6489354  55.3148955  32.4758575
  50.9589119  55.5237843  33.9428827  50.3746912  68.9866869  21.9314719
  51.3077586  68.9212430  22.1347594  50.2870125  69.8223136  21.4729251
  53.0034929  68.3032739  18.8918666  52.9248561  67.9692603  19.7854424
  53.8244596  68.7954507  18.8910139  55.7013120  61.1694478  32.0994985
  55.6689440  60.2310479  32.2854669  56.3113744  61.2478515  31.3660810
  47.5396451  60.0390531  18.1422189  48.4855556  59.9096739  18.2110607
  47.1610696  59.3005193  18.6191617  55.8507609  57.9605522  32.1453268
  55.3346657  57.1763978  31.9583197  56.7347557  57.6324238  32.3099787
  53.5118336  51.7046537  28.1049081  53.3143157  51.3961626  28.9892413
  54.1218041  52.4308176  28.2347010  61.5189670  62.2310485  31.2401022
  62.2493059  61.9695773  31.8008725  60.9096616  61.4939207  31.2803090
  59.6004967  60.3718348  31.8375473  58.8738131  60.2374313  31.2291964
  59.1852254  60.6795176  32.6432191  47.4235144  64.0908278  39.6022846
  48.3438153  64.2686877  39.7962892  47.3884727  63.1464323  39.4502545
  45.7239368  57.9640508  18.0777074  44.8170824  57.6673620  18.1539788
  46.0015349  57.6670326  17.2111360  36.6417309  59.2846871  28.5276120
  36.3220093  58.4312179  28.2350494  36.0950737  59.4995449  29.2834088
  40.4197216  62.0009312  32.2445627  40.6383226  62.9326420  32.2633661
  40.8322990  61.6417287  33.0300431  47.3401434  52.5077397  24.2321315
  46.5302162  52.1624482  24.6076561  48.0285851  52.1984941  24.8208927
  49.2691982  51.5855444  25.8545612  49.8223021  52.0050898  26.5135635
  49.5062069  50.6591192  25.8968568  45.2925082  57.5742518  41.6348376
  45.1921808  58.5236875  41.5660467  45.0746624  57.2460757  40.7624446
  44.4938153  54.8227443  18.2189053  45.3557317  55.1482341  18.4784871
  44.6788497  54.0358939  17.7062119  36.5105569  62.9049783  30.4969242
  35.8169040  62.4903735  29.9839196  37.2578560  62.9470319  29.9002661
  52.6470789  53.6955969  25.3624276  52.0669458  54.3540773  24.9802329
  52.3806722  52.8733314  24.9511694  51.0974356  53.0961027  27.5645597
  51.5974134  53.2077562  26.7559915  51.7409964  52.7922080  28.2046405
  45.1556352  61.0039657  40.4513438  44.6723433  61.8040017  40.6577327
  45.2417291  61.0147602  39.4980882  38.4242311  62.8368036  28.3735257
  38.4012999  62.9355724  27.4217140  38.7342948  63.6833187  28.6952423
  41.0829689  64.8944191  32.4881871  42.0372943  64.8628134  32.4211803
  40.8842213  64.4334815  33.3032097  41.6729071  63.4645308  35.0552669
  42.4921960  63.9589386  35.0787506  41.9465879  62.5477276  35.0270236
  51.4295667  55.8556060  24.4180625  50.5421522  56.1405710  24.2000819
  51.8449656  55.6949823  23.5707901  54.7810204  55.8802581  28.1334964
  55.5570594  56.3699033  28.4059581  54.0558338  56.3060635  28.5906833
  57.2182762  56.5930200  29.1908904  57.8127253  56.3525936  28.4802213
  57.2909346  55.8737331  29.8182441  39.4379918  70.4363811  29.5052069
  39.3034386  69.6764212  28.9390067  39.0211980  71.1604711  29.0380858
  50.5738881  65.6200734  18.5128644  51.2774731  65.8250737  19.1286300
  49.8501530  66.1877496  18.7777728  51.4036691  61.3710596  24.6330915
  51.3471893  61.8279147  23.7938547  51.9565034  60.6101280  24.4553757
  55.2141497  57.1600328  25.4581034  54.9578431  56.7596963  26.2889242
  54.5894365  57.8744122  25.3331173  59.5253835  59.8996401  27.9652326
  58.9653393  59.9689590  28.7383888  58.9197338  59.7237386  27.2451822
  42.5949044  71.3333128  29.7170512  42.4781428  72.2778560  29.6149202
  41.7741490  71.0306690  30.1056311  52.4825578  66.0583264  20.5627105
  53.3171182  65.6264462  20.3804579  52.3209921  65.8865277  21.4903999
  52.1371470  62.5615377  21.9283444  52.0820274  62.3959648  20.9871888
  51.5117526  63.2691410  22.0845634  36.9263985  57.7983441  35.7544866
  37.5722849  57.2882395  36.2432091  36.7181137  58.5352123  36.3288291
  49.4517378  64.8664289  41.2537007  50.3208537  65.0404941  40.8923642
  48.9724129  65.6858706  41.1312736  45.4467596  52.0623486  21.5068762
  45.4346266  53.0065326  21.6637033  46.3391018  51.8793631  21.2128223
  43.6203558  71.9861390  32.9326440  44.5230805  72.0185000  33.2492935
  43.3940928  71.0561841  32.9472776  45.3757160  70.7392376  29.5936519
  44.4252791  70.7394238  29.4800891  45.6789646  69.9925111  29.0772554
  49.2619715  48.6566263  25.7614699  48.4952111  48.1024749  25.9071381
  49.6730420  48.7288131  26.6228851  41.2661476  54.9451058  39.8519880
  42.1292938  54.5887863  40.0623205  40.6926887  54.6064953  40.5395285
  61.1109853  76.5752915  30.6582281  61.7488263  76.4559662  29.9545621
  60.9930696  77.5233759  30.7170233  57.9199560  76.5280343  30.5943806
  57.5818071  76.4121408  29.7064341  58.7889328  76.1271508  30.5744812
  53.7786375  78.3815819  26.5840697  53.2151240  78.2905756  25.8156985
  53.6638770  77.5615724  27.0643189  51.3250807  79.8767011  29.4224917
  52.1172099  79.5357836  29.0071217  51.5647457  79.9861986  30.3427071
  59.3585934  82.0486787  21.8955162  58.7073914  82.6340867  21.5089176
  60.1530297  82.5792982  21.9550199  53.2841561  79.1375924  22.2942296
  54.0572437  78.5904911  22.1555172  53.6366960  80.0020174  22.5056758
  56.0482811  77.8429155  32.0910555  56.6446383  77.6185177  31.3767518
  56.1057782  77.1013900  32.6936003  55.6207839  75.2968590  19.9260746
  55.8733360  74.7750112  19.1644209  54.6832398  75.1334736  20.0287430
  60.6651122  74.3004369  27.7335489  61.4514211  73.8823792  27.3825906
  60.9289826  75.2050461  27.9017138  60.8361199  79.7377219  22.4324146
  60.2007032  79.8111845  23.1445051  60.5058606  80.3270818  21.7543225
  55.3404128  77.1996696  22.1285121  55.2240386  76.5241600  22.7966205
  55.4506388  76.7129070  21.3117274  57.6835669  76.6606843  25.8331810
  57.3193876  76.1337464  26.5444732  58.5402785  76.2705312  25.6598296
  57.3241156  71.6896743  20.8293159  57.4915558  72.5576979  21.1963630
  57.1338325  71.8524025  19.9054448  60.0816489  80.1513722  32.4958989
  59.7817212  81.0538761  32.3874796  59.7367548  79.8845905  33.3480142
  53.5328970  76.6027519  28.5295694  52.6079467  76.4703733  28.7373385
  53.7813384  77.3821738  29.0265636  63.4813633  72.6696262  30.1756426
  62.5730510  72.6011671  29.8815187  63.4301228  73.1468207  31.0038252
  57.3030377  74.1454401  21.8139826  57.1830002  74.5911451  22.6525306
  56.6082965  74.4939718  21.2553364  50.8937781  76.2460792  29.3639483
  51.0230163  76.4995271  30.2778894  50.2135233  76.8388500  29.0444138
  55.0637269  86.9158042  25.4629957  54.9861298  87.8665867  25.5418437
  54.4598912  86.5703915  26.1204883  63.0015443  74.6175874  22.6420160
  63.9133299  74.8503260  22.4667857  62.4925090  75.2012918  22.0795238
  61.6085025  79.6001692  30.0333741  60.9793887  79.7647406  29.3309809
  61.2210687  80.0143302  30.8044705  65.4874257  80.5356130  27.3878105
  64.8025295  80.9155031  26.8375138  65.5718106  81.1451457  28.1210053
  60.3451417  70.7933910  30.8910021  59.4835897  71.0915163  31.1826758
  60.3713852  71.0104309  29.9591053  57.1612987  79.3376100  27.2983826
  57.6251332  79.6163803  26.5088449  56.8969785  78.4359545  27.1156917
  54.0537068  78.8847582  30.2363589  54.6238425  79.3134850  29.5981074
  54.6445180  78.6030167  30.9347775  56.0981873  75.4599253  24.1073391
  56.8005916  75.9120296  24.5747318  55.7662501  74.8183072  24.7353285
  49.8407207  73.7182805  29.4090525  49.0506261  73.9740334  28.9330636
  50.3318454  74.5331143  29.5142565  51.7921952  74.0827385  26.3674002
  50.9953116  74.1946079  26.8857497  51.5647544  74.4214037  25.5014892
  57.6227620  80.6072088  34.3156516  57.6872052  81.0692495  35.1514688
  56.9138544  79.9769453  34.4438826  48.1244910  73.9713296  31.8405516
  48.3752948  74.8560306  32.1063092  48.6604458  73.7917897  31.0680608
  71.9477010  77.4026793  28.5080777  71.1940718  76.8334191  28.3524782
  72.0824551  77.3689457  29.4551412  57.3375638  82.2740195  24.1835497
  57.2021312  83.1191731  24.6120344  57.8785450  82.4759473  23.4201430
  50.7905035  79.7915633  24.7563422  51.3029556  80.5858884  24.9068986
  51.4427748  79.0941924  24.6897023  52.5999920  82.9081390  26.8386175
  52.7766548  83.8299354  26.6507159  53.3956753  82.5939809  27.2680555
  51.8852276  74.9546021  36.7148338  51.7705791  74.0531279  37.0155437
  51.0296794  75.2009718  36.3633155  53.7231235  84.4259563  32.8396517
  54.2738660  84.2976627  32.0673511  52.8842711  84.7254452  32.4891410
  48.7553952  78.1204288  25.5322992  49.5929174  78.5301296  25.3156700
  48.9332219  77.1803730  25.5023186  60.6518384  75.7879368  21.2206825
  60.1365007  76.5583973  21.4595213  60.3795692  75.1144504  21.8439887
  58.2365495  70.6329069  26.2792064  57.3807091  70.2435919  26.0997702
  58.6492447  70.7121030  25.4191849  56.0107527  68.2514142  29.6849805
  56.8760524  68.0556951  29.3255695  56.0785036  68.0224494  30.6119162
  65.6252658  78.5411723  23.1559999  64.8482101  78.2022882  22.7115161
  66.3044139  78.5464346  22.4814964  60.4404687  73.6606460  23.0466606
  60.1354823  73.9752610  23.8976750  61.3935129  73.7387880  23.0893939
  58.8851119  79.8196684  24.6959560  58.3572480  79.0849443  24.3832798
  58.3838622  80.5971360  24.4499529  63.8643965  78.0145704  29.8126607
  63.2067639  78.7044966  29.9006735  64.6684364  78.4042136  30.1560593
  53.6169846  70.4816350  27.0566172  54.1913598  70.2591531  26.3239365
  54.2040829  70.5505044  27.8094773  62.6749424  76.3690077  27.8630548
  63.1881305  77.0020069  28.3652258  63.3250648  75.7691272  27.4973908
  53.9439434  72.5120811  21.0762057  53.1076746  72.8495498  21.3971332
  53.8044203  72.3769791  20.1389194  55.9192514  67.3557599  25.7841241
  55.2656927  67.0406616  25.1597856  55.8772988  66.7333339  26.5101064
  57.0303719  77.6376894  17.6994533  56.1230781  77.4066147  17.8985682
  57.5274751  76.8414513  17.8868515  59.9371798  86.3474401  20.6191220
  59.2633497  86.6506098  21.2276177  60.3237620  87.1503481  20.2696677
  59.1530255  73.8439532  30.1088889  58.2352816  74.0654479  29.9510577
  59.5690398  73.9185843  29.2500596  59.9365302  75.2430948  25.2391569
  60.6837121  75.7552345  24.9298691  60.2056892  74.9215001  26.0995963
  58.2091952  77.7389489  22.2218523  57.3003172  77.4548522  22.3190993
  58.2387036  78.1588567  21.3621830  63.4411220  81.3496078  25.9909691
  62.9873547  80.5086988  26.0474881  62.8105187  81.9857477  26.3284471
  62.3844139  72.2788064  27.2210358  61.6466896  71.7665451  27.5520601
  62.6370913  71.8388446  26.4093635  61.8844159  83.1872575  26.9259509
  62.1767134  83.7477632  26.2071875  62.3942780  83.4801136  27.6812668
  62.4855767  65.0564316  27.8152128  62.7914644  64.1961680  27.5278043
  63.2108372  65.6481937  27.6151122  48.7780123  75.4595003  26.2033726
  48.5804523  74.8664364  25.4784792  48.2226787  75.1547213  26.9209664
  56.7576847  75.3518109  28.3228319  56.8125456  74.3991946  28.2470795
  55.9468049  75.5077548  28.8069617  57.9068040  79.2798232  19.5606602
  57.4687470  78.5634091  19.1012239  58.6478481  79.5074347  18.9991693
  54.6969206  73.9695169  26.0818698  53.8837072  74.2689340  26.4883890
  55.1928201  73.5750858  26.7993180  56.8477784  83.9652926  28.0152962
  56.8053963  84.1913772  27.0861494  57.7640483  83.7316301  28.1638764
  66.0241155  77.5555430  25.6182921  65.8859054  77.7457025  24.6904110
  65.6677374  78.3174812  26.0750972  54.1883281  71.5413525  31.6979933
  54.8282661  71.4002284  31.0002896  53.3560812  71.2548038  31.3218535
  66.0510535  79.6231957  30.6294192  66.4847041  79.5307246  31.4777246
  66.7642115  79.5989457  29.9914208  54.9643585  80.8415955  27.8114925
  55.7584184  80.3466275  27.6097500  54.2535278  80.3133818  27.4482631
  59.7838430  83.2234051  32.1627293  59.8375452  83.7924987  32.9305009
  58.9153211  83.3935936  31.7981330  51.2726349  74.9859037  23.8874678
  50.3423937  74.9243492  24.1044640  51.3683821  74.4634990  23.0911319
  51.1911898  71.5113850  26.4752919  51.4518715  72.4259183  26.3662080
  52.0129070  71.0438292  26.6249532  52.6636823  72.9251607  33.6451744
  53.3359876  72.7168969  32.9964393  51.8366610  72.7273693  33.2056976
  58.7426529  77.3894313  33.7214225  59.6718589  77.5405472  33.5483192
  58.3217559  77.4778333  32.8662871  57.5414861  81.4144977  31.4912762
  57.4025947  81.0463761  32.3638700  56.7529457  81.9292617  31.3196720
  58.1363013  86.5154074  22.8338299  58.3114769  86.0442117  23.6483921
  57.4495801  87.1419840  23.0619559  59.0920076  80.7926580  28.8801600
  58.7569909  80.7527350  29.7759250  58.5924022  80.1271296  28.4072010
  53.0664320  76.1994210  34.4054181  52.9284118  75.4674449  35.0065720
  53.9769244  76.1103110  34.1238369  62.0279268  78.1382614  19.1538660
  61.4108439  77.4129442  19.0571712  61.5595756  78.8991974  18.8105734
  55.6946621  75.9114169  33.8937861  56.4046239  75.2707361  33.8524479
  55.6515929  76.1627064  34.8164042  52.7024098  89.6643436  29.6078159
  52.9420697  90.2961960  30.2857177  51.8593295  89.3131476  29.8943518
  53.8177814  72.3568038  18.2759964  52.9407280  72.2356839  17.9122211
  54.2935567  71.5654117  18.0238853  45.3379954  77.1445198  28.3701471
  46.0250994  76.8306928  27.7822486  45.1828083  78.0486563  28.0968722
  50.1414676  72.0335395  32.7986495  50.0572865  71.4261064  32.0636905
  49.3197383  72.5244413  32.7995991  57.2151960  85.4722559  32.0119663
  57.1422132  86.2777530  32.5238967  56.7729353  85.6714525  31.1867684
  57.0041740  84.7094329  25.5222484  56.2209262  85.2516009  25.6160709
  57.7034485  85.2268308  25.9216726  60.3138390  70.5188958  28.1656690
  60.8107090  69.7658921  27.8457760  59.5425371  70.5553275  27.5999899
  59.6750644  85.3709393  34.1677822  60.3878616  86.0056858  34.0953723
  59.1840672  85.4673259  33.3517823  61.3968171  79.2760645  25.7395113
  60.4624449  79.3962108  25.5699818  61.5744839  78.3733112  25.4755123
  56.8973359  72.6606341  27.8928374  56.5271146  72.1077382  28.5809280
  57.3932451  72.0564475  27.3403374  64.7840722  75.1177965  26.2745147
  65.2501174  75.9505956  26.2005450  65.2348223  74.6522946  26.9790406
  54.7262557  83.1203836  34.9883392  55.4272017  83.7540319  35.1412787
  54.2557672  83.4618568  34.2279032  62.8516953  81.4621786  23.2731299
  63.1276797  81.3478381  24.1825173  61.9821452  81.0639271  23.2343472
  62.7557385  67.4858552  30.3136049  61.8420465  67.7162779  30.4818256
  63.1850486  67.5696996  31.1650081  59.4871017  85.7108137  26.9164113
  59.6693412  84.8929793  27.3791865  60.3104003  85.9275829  26.4789003
  59.8213183  84.6376322  24.1779161  60.3500949  84.1268777  23.5649324
  60.0841402  84.3218852  25.0424695  50.3230275  82.6540191  31.9214495
  50.9083712  81.9083879  32.0542399  50.1255114  82.9644148  32.8051159
  53.1768931  85.6891439  26.9376937  52.5079306  86.1737566  26.4540977
  53.0381800  85.9360659  27.8520316  44.9147930  75.2245792  30.6418938
  44.9532030  74.6909382  31.4356056  44.4088223  74.6980997  30.0229915
  57.3174199  87.7235182  33.5359596  57.8692507  87.8866804  34.3008681
  57.6580393  88.3139620  32.8639621  52.2938692  70.0710332  34.1381480
  52.3580019  70.9325163  33.7258878  52.2305813  69.4584334  33.4053839
  48.5456508  73.9509894  23.7172870  48.8409949  73.0420572  23.6639923
  47.6444543  73.9297633  23.3953872  60.4542586  85.6717158  30.5223278
  60.3293726  84.8706898  30.0134223  61.1121678  86.1663351  30.0337248
  52.0750755  72.0265890  29.7000418  51.3537340  72.6401858  29.5607891
  52.8644010  72.5623655  29.6217064  62.5177495  83.4726178  32.1502828
  61.5707830  83.3531529  32.0781155  62.8660268  82.5848676  32.2329089
  50.2744349  71.6323991  23.8412195  49.9457055  70.7521370  23.6587301
  50.6283720  71.5771660  24.7288584  59.5223928  83.2678894  28.3507180
  59.3748891  82.3395601  28.5314750  60.3477422  83.2898985  27.8664255
  53.3886172  71.9196961  24.2087672  53.7282245  72.4482882  23.4866281
  53.8358293  72.2577367  24.9846239  63.1258050  84.0907453  29.4372053
  64.0504597  83.8850314  29.2996504  62.9573353  83.8423854  30.3461394
  56.0829613  70.3034012  33.6590740  55.7426434  69.5041825  34.0611420
  55.3768620  70.6035723  33.0867574  56.7346085  67.3883324  32.1118063
  57.5572154  66.9143802  31.9896954  56.9784149  68.1673808  32.6116750
  55.3754320  70.4171583  22.4080965  56.0962682  70.7952835  21.9044682
  54.7519624  71.1360460  22.5115943  59.5185442  71.1216732  23.3439297
  59.7349057  72.0041370  23.0428126  59.0379510  70.7302945  22.6144939
  54.2584664  74.0802445  29.9210042  54.1129245  74.3942748  30.8134324
  53.7809867  74.6987345  29.3680941  56.1181047  71.0704993  29.9690932
  56.1042615  70.1746086  29.6323230  56.8353475  71.0775657  30.6029218
  57.9707177  71.5042333  32.0144059  57.7124955  72.4259404  32.0128389
  57.4392218  71.1072768  32.7044523  62.9153366  84.6093120  24.7934144
  63.0890244  84.0439543  24.0407997  63.4082257  85.4094015  24.6113634
  48.7330326  76.6207789  32.8597703  48.1883794  77.3967597  32.9917978
  49.6109676  76.9678594  32.7016825  55.5217943  69.9519373  25.2378502
  55.6433854  69.0236019  25.4369389  55.2319985  69.9658059  24.3256817
  58.3909133  67.6374284  28.3745222  58.4130830  67.7013617  27.4197201
  58.8077192  66.7978792  28.5685728  68.7692757  77.3729543  26.4124444
  69.2123903  76.6236868  26.0143567  67.8919268  77.3639680  26.0298176
  63.9028539  83.9259885  21.8931043  64.5979443  84.5466577  22.1118357
  64.2451689  83.0755236  22.1683421  49.5196348  75.7477686  35.7527860
  48.7778084  75.8960321  36.3392491  49.1989092  76.0085951  34.8894610
  65.8019962  81.3759590  23.4218374  66.3271286  81.7146863  22.6967694
  65.7142314  80.4406605  23.2381508  57.4640010  85.2893664  35.5508250
  57.7727137  85.0442811  36.4230950  58.2615493  85.4940302  35.0627120
  57.4860623  87.4431573  27.7813627  57.0465613  86.9507952  28.4746483
  58.2368739  86.9004541  27.5405702  49.9652962  83.6343114  27.7838255
  50.7910981  83.3346886  27.4036898  49.6147014  82.8650737  28.2328043
  54.9334495  82.9869583  29.8535928  54.3114504  82.3240288  29.5538156
  55.6039362  83.0130714  29.1709576  48.1661567  81.5529441  28.7427188
  47.3293475  81.1251615  28.5611190  48.1385212  81.7461884  29.6797980
  54.4948002  81.5373506  23.3294389  54.6436122  82.2208970  22.6761062
  55.3014445  81.5178596  23.8443845  68.3125622  78.8434781  28.8046892
  69.1472513  79.2824586  28.9684452  68.4484751  78.3673435  27.9855138
  52.2500635  77.5638683  24.3355458  52.0046677  76.6601013  24.5335668
  52.4196549  77.5655834  23.3934936  51.5196282  73.2967041  21.8341619
  50.8265527  73.3711396  21.1781655  51.2748034  72.5327385  22.3563136
  60.1909939  64.8562642  29.2381110  60.4711692  64.1885831  29.8641537
  60.9760546  65.0491738  28.7255774  57.9943407  84.0321636  20.8006136
  57.4217374  84.6511823  20.3476608  58.5676201  84.5820998  21.3346058
  61.2140667  84.3158786  21.9314719  62.1471340  84.2504348  22.1347594
  61.1263880  85.1515053  21.4729251  63.8428684  83.6324657  18.8918666
  63.7642315  83.2984520  19.7854424  64.6638350  84.1246425  18.8910139
  58.3790206  75.3682449  18.1422189  59.3249310  75.2388657  18.2110607
  58.0004451  74.6297111  18.6191617  64.3512090  67.0338455  28.1049081
  64.1536911  66.7253543  28.9892413  64.9611796  67.7600094  28.2347010
  72.3583425  77.5602403  31.2401022  73.0886813  77.2987691  31.8008725
  71.7490370  76.8231125  31.2803090  56.5633123  73.2932425  18.0777074
  55.6564578  72.9965538  18.1539788  56.8409104  72.9962244  17.2111360
  47.4811063  74.6138789  28.5276120  47.1613847  73.7604097  28.2350494
  46.9344491  74.8287367  29.2834088  51.2590971  77.3301230  32.2445627
  51.4776980  78.2618338  32.2633661  51.6716745  76.9709204  33.0300431
  58.1795188  67.8369315  24.2321315  57.3695917  67.4916400  24.6076561
  58.8679605  67.5276859  24.8208927  60.1085737  66.9147362  25.8545612
  60.6616775  67.3342815  26.5135635  60.3455823  65.9883110  25.8968568
  55.3331907  70.1519361  18.2189053  56.1951071  70.4774259  18.4784871
  55.5182252  69.3650857  17.7062119  47.3499323  78.2341700  30.4969242
  46.6562795  77.8195653  29.9839196  48.0972314  78.2762237  29.9002661
  63.4864544  69.0247887  25.3624276  62.9063213  69.6832691  24.9802329
  63.2200477  68.2025232  24.9511694  61.9368110  68.4252945  27.5645597
  62.4367889  68.5369479  26.7559915  62.5803718  68.1213998  28.2046405
  49.2636066  78.1659954  28.3735257  49.2406754  78.2647641  27.4217140
  49.5736702  79.0125105  28.6952423  51.9223444  80.2236109  32.4881871
  52.8766697  80.1920051  32.4211803  51.7235967  79.7626733  33.3032097
  52.5122826  78.7937225  35.0552669  53.3315715  79.2881304  35.0787506
  52.7859633  77.8769193  35.0270236  62.2689422  71.1847978  24.4180625
  61.3815277  71.4697628  24.2000819  62.6843411  71.0241741  23.5707901
  65.6203958  71.2094498  28.1334964  66.3964348  71.6990951  28.4059581
  64.8952092  71.6352553  28.5906833  68.0576517  71.9222118  29.1908904
  68.6521007  71.6817854  28.4802213  68.1303100  71.2029248  29.8182441
  50.2773672  85.7655729  29.5052069  50.1428140  85.0056130  28.9390067
  49.8605735  86.4896629  29.0380858  61.4132635  80.9492652  18.5128644
  62.1168485  81.1542655  19.1286300  60.6895284  81.5169414  18.7777728
  62.2430446  76.7002513  24.6330915  62.1865647  77.1571065  23.7938547
  62.7958788  75.9393198  24.4553757  66.0535252  72.4892245  25.4581034
  65.7972186  72.0888881  26.2889242  65.4288120  73.2036039  25.3331173
  70.3647589  75.2288319  27.9652326  69.8047147  75.2981508  28.7383888
  69.7591093  75.0529303  27.2451822  53.4342798  86.6625046  29.7170512
  53.3175182  87.6070478  29.6149202  52.6135244  86.3598607  30.1056311
  63.3219333  81.3875181  20.5627105  64.1564937  80.9556380  20.3804579
  63.1603676  81.2157195  21.4903999  62.9765225  77.8907295  21.9283444
  62.9214029  77.7251566  20.9871888  62.3511280  78.5983328  22.0845634
  47.7657740  73.1275359  35.7544866  48.4116604  72.6174313  36.2432091
  47.5574891  73.8644041  36.3288291  56.2861350  67.3915404  21.5068762
  56.2740020  68.3357244  21.6637033  57.1784772  67.2085549  21.2128223
  54.4597312  87.3153308  32.9326440  55.3624559  87.3476918  33.2492935
  54.2334682  86.3853759  32.9472776  56.2150914  86.0684294  29.5936519
  55.2646545  86.0686156  29.4800891  56.5183401  85.3217029  29.0772554
  60.1013470  63.9858180  25.7614699  59.3345866  63.4316667  25.9071381
  60.5124175  64.0580049  26.6228851  71.9503608  91.9044832  30.6582281
  72.5882018  91.7851580  29.9545621  71.8324451  92.8525676  30.7170233
  68.7593314  91.8572261  30.5943806  68.4211826  91.7413325  29.7064341
  69.6283082  91.4563426  30.5744812  64.6180130  93.7107737  26.5840697
  64.0544995  93.6197674  25.8156985  64.5032525  92.8907641  27.0643189
  62.1644562  95.2058929  29.4224917  62.9565854  94.8649753  29.0071217
  62.4041212  95.3153904  30.3427071  70.1979689  97.3778705  21.8955162
  69.5467668  97.9632785  21.5089176  70.9924051  97.9084900  21.9550199
  64.1235316  94.4667842  22.2942296  64.8966192  93.9196829  22.1555172
  64.4760715  95.3312091  22.5056758  66.8876565  93.1721073  32.0910555
  67.4840137  92.9477095  31.3767518  66.9451537  92.4305818  32.6936003
  66.4601594  90.6260508  19.9260746  66.7127114  90.1042029  19.1644209
  65.5226153  90.4626653  20.0287430  71.5044876  89.6296286  27.7335489
  72.2907966  89.2115710  27.3825906  71.7683581  90.5342379  27.9017138
  71.6754954  95.0669137  22.4324146  71.0400787  95.1403763  23.1445051
  71.3452360  95.6562735  21.7543225  76.9053303  89.5671520  28.6368468
  77.6378475  88.9970736  28.8706297  76.1492659  89.1793120  29.0774973
  66.1797882  92.5288614  22.1285121  66.0634140  91.8533517  22.7966205
  66.2900142  92.0420988  21.3117274  68.5229423  91.9898761  25.8331810
  68.1587630  91.4629382  26.5444732  69.3796539  91.5997230  25.6598296
  68.1634910  87.0188661  20.8293159  68.3309313  87.8868897  21.1963630
  67.9732079  87.1815942  19.9054448  70.9210243  95.4805640  32.4958989
  70.6210966  96.3830678  32.3874796  70.5761303  95.2137823  33.3480142
  64.3722725  91.9319436  28.5295694  63.4473221  91.7995651  28.7373385
  64.6207138  92.7113656  29.0265636  74.3207387  87.9988180  30.1756426
  73.4124264  87.9303588  29.8815187  74.2694983  88.4760125  31.0038252
  68.1424131  89.4746318  21.8139826  68.0223756  89.9203369  22.6525306
  67.4476719  89.8231636  21.2553364  65.9031023 102.2449960  25.4629957
  65.8255053 103.1957785  25.5418437  65.2992667 101.8995832  26.1204883
  76.1869034  86.2004618  31.9534300  75.5443414  86.4937151  31.3074095
  75.6823962  86.0857539  32.7587497  73.8409197  89.9467791  22.6420160
  74.7527053  90.1795178  22.4667857  73.3318844  90.5304836  22.0795238
  72.1249965  94.3692419  36.2781452  72.5333321  93.9274830  35.5336085
  71.4027226  93.7945047  36.5315645  68.4781035  89.3065026  33.6515009
  69.3242230  89.7304440  33.7949658  68.4179673  88.6498650  34.3453572
  72.4478780  94.9293610  30.0333741  71.8187642  95.0939324  29.3309809
  72.0604442  95.3435219  30.8044705  76.3268011  95.8648048  27.3878105
  75.6419050  96.2446949  26.8375138  76.4111861  96.4743374  28.1210053
  73.5818943  93.5108007  33.9873448  73.7935838  94.1539767  33.3107830
  73.5348691  92.6770323  33.5195379  71.1845172  86.1225827  30.8910021
  70.3229651  86.4207081  31.1826758  71.2107607  86.3396226  29.9591053
  68.0006741  94.6668018  27.2983826  68.4645087  94.9455721  26.5088449
  67.7363539  93.7651463  27.1156917  64.8930822  94.2139499  30.2363589
  65.4632180  94.6426768  29.5981074  65.4838934  93.9322084  30.9347775
  66.9375627  90.7891170  24.1073391  67.6399671  91.2412214  24.5747318
  66.6056256  90.1474989  24.7353285  60.6800961  89.0474723  29.4090525
  59.8900015  89.3032252  28.9330636  61.1712209  89.8623061  29.5142565
  74.6964771  96.3879962  32.1595806  75.5182215  95.9860149  31.8778487
  74.6927174  96.2848196  33.1111922  62.6315707  89.4119302  26.3674002
  61.8346870  89.5237996  26.8857497  62.4041299  89.7505954  25.5014892
  68.4621374  95.9364005  34.3156516  68.5265807  96.3984413  35.1514688
  67.7532298  95.3061370  34.4438826  82.7870764  92.7318711  28.5080777
  82.0334472  92.1626109  28.3524782  82.9218305  92.6981375  29.4551412
  68.1769392  97.6032113  24.1835497  68.0415067  98.4483649  24.6120344
  68.7179205  97.8051391  23.4201430  61.6298789  95.1207551  24.7563422
  62.1423310  95.9150801  24.9068986  62.2821502  94.4233841  24.6897023
  63.4393674  98.2373307  26.8386175  63.6160302  99.1591272  26.6507159
  64.2350508  97.9231726  27.2680555  64.5624990  99.7551481  32.8396517
  65.1132415  99.6268544  32.0673511  63.7236466 100.0546370  32.4891410
  71.9019107  98.5058479  36.3417240  71.8837582  99.3267360  35.8497509
  72.8239027  98.3812555  36.5667381  59.5947706  93.4496205  25.5322992
  60.4322928  93.8593214  25.3156700  59.7725974  92.5095647  25.5023186
  71.4912138  91.1171286  21.2206825  70.9758762  91.8875891  21.4595213
  71.2189447  90.4436422  21.8439887  69.0759249  85.9620987  26.2792064
  68.2200846  85.5727837  26.0997702  69.4886201  86.0412948  25.4191849
  70.6058396  83.4967330  30.6783623  70.1023192  83.4597465  29.8651429
  70.8989003  84.4060073  30.7380280  66.8501282  83.5806060  29.6849805
  67.7154279  83.3848868  29.3255695  66.9178791  83.3516411  30.6119162
  76.4646412  93.8703641  23.1559999  75.6875855  93.5314800  22.7115161
  77.1437893  93.8756264  22.4814964  71.2798442  88.9898378  23.0466606
  70.9748577  89.3044527  23.8976750  72.2328884  89.0679798  23.0893939
  69.7244873  95.1488601  24.6959560  69.1966235  94.4141361  24.3832798
  69.2232376  95.9263278  24.4499529  74.7037719  93.3437622  29.8126607
  74.0461394  94.0336883  29.9006735  75.5078119  93.7334054  30.1560593
  64.4563601  85.8108268  27.0566172  65.0307353  85.5883449  26.3239365
  65.0434583  85.8796962  27.8094773  73.5143178  91.6981995  27.8630548
  74.0275060  92.3311986  28.3652258  74.1644402  91.0983190  27.4973908
  64.7833188  87.8412729  21.0762057  63.9470500  88.1787415  21.3971332
  64.6437958  87.7061708  20.1389194  66.7586269  82.6849517  25.7841241
  66.1050681  82.3698534  25.1597856  66.7166743  82.0625257  26.5101064
  67.8697474  92.9668812  17.6994533  66.9624535  92.7358065  17.8985682
  68.3668506  92.1706431  17.8868515  70.7765552 101.6766319  20.6191220
  70.1027251 101.9798016  21.2276177  71.1631374 102.4795399  20.2696677
  69.9924009  89.1731450  30.1088889  69.0746570  89.3946397  29.9510577
  70.4084153  89.2477761  29.2500596  70.7759057  90.5722866  25.2391569
  71.5230876  91.0844263  24.9298691  71.0450646  90.2506918  26.0995963
  69.0485707  93.0681406  22.2218523  68.1396926  92.7840439  22.3190993
  69.0780791  93.4880485  21.3621830  74.2804974  96.6787996  25.9909691
  73.8267302  95.8378906  26.0474881  73.6498941  97.3149394  26.3284471
  73.2237894  87.6079982  27.2210358  72.4860651  87.0957368  27.5520601
  73.4764668  87.1680364  26.4093635  72.7237914  98.5164493  26.9259509
  73.0160888  99.0769550  26.2071875  73.2336534  98.8093054  27.6812668
  73.3249521  80.3856234  27.8152128  73.6308398  79.5253597  27.5278043
  74.0502126  80.9773854  27.6151122  59.6173877  90.7886921  26.2033726
  59.4198277  90.1956281  25.4784792  59.0620541  90.4839131  26.9209664
  67.5970601  90.6810027  28.3228319  67.6519211  89.7283863  28.2470795
  66.7861803  90.8369466  28.8069617  68.7461795  94.6090150  19.5606602
  68.3081225  93.8926009  19.1012239  69.4872236  94.8366265  18.9991693
  65.5362961  89.2987087  26.0818698  64.7230826  89.5981257  26.4883890
  66.0321955  88.9042776  26.7993180  67.6871539  99.2944844  28.0152962
  67.6447718  99.5205690  27.0861494  68.6034238  99.0608218  28.1638764
  76.8634910  92.8847347  25.6182921  76.7252808  93.0748943  24.6904110
  76.5071128  93.6466730  26.0750972  65.0277036  86.8705442  31.6979933
  65.6676415  86.7294201  31.0002896  64.1954566  86.5839956  31.3218535
  76.8904289  94.9523874  30.6294192  77.3240796  94.8599163  31.4777246
  77.6035870  94.9281375  29.9914208  65.8037340  96.1707873  27.8114925
  66.5977938  95.6758193  27.6097500  65.0929032  95.6425736  27.4482631
  70.6232184  98.5525968  32.1627293  70.6769206  99.1216905  32.9305009
  69.7546965  98.7227853  31.7981330  62.1120103  90.3150955  23.8874678
  61.1817691  90.2535410  24.1044640  62.2077575  89.7926907  23.0911319
  62.0305652  86.8405767  26.4752919  62.2912469  87.7551101  26.3662080
  62.8522824  86.3730210  26.6249532  77.7519839  94.9947575  33.1627078
  77.9455729  95.8993385  33.4086352  77.6520457  94.5354994  33.9965663
  69.5820284  92.7186230  33.7214225  70.5112344  92.8697390  33.5483192
  69.1611314  92.8070251  32.8662871  68.3808616  96.7436895  31.4912762
  68.2419701  96.3755679  32.3638700  67.5923212  97.2584534  31.3196720
  68.9756768 101.8445991  22.8338299  69.1508523 101.3734034  23.6483921
  68.2889556 102.4711757  23.0619559  69.9313831  96.1218497  28.8801600
  69.5963663  96.0819267  29.7759250  69.4317776  95.4563213  28.4072010
  72.8673022  93.4674532  19.1538660  72.2502193  92.7421360  19.0571712
  72.3989511  94.2283892  18.8105734  74.5227154  98.1773440  36.8144440
  74.4639700  97.4932660  36.1475023  74.9246672  98.9192430  36.3625066
  63.5417853 104.9935354  29.6078159  63.7814451 105.6253878  30.2857177
  62.6987049 104.6423394  29.8943518  64.6571568  87.6859956  18.2759964
  63.7801035  87.5648757  17.9122211  65.1329321  86.8946034  18.0238853
  74.5244561  96.1413024  35.0458420  73.6371340  95.8038946  35.1684819
  75.0943112  95.4096055  35.2827185  56.1773708  92.4737116  28.3701471
  56.8644748  92.1598846  27.7822486  56.0221837  93.3778480  28.0968722
  68.0545715 100.8014476  32.0119663  67.9815886 101.6069448  32.5238967
  67.6123108 101.0006442  31.1867684  67.8435494 100.0386246  25.5222484
  67.0603016 100.5807927  25.6160709  68.5428240 100.5560226  25.9216726
  71.1532144  85.8480876  28.1656690  71.6500844  85.0950838  27.8457760
  70.3819126  85.8845193  27.5999899  79.0061902  91.5521241  29.8074981
  78.9951778  92.4345957  29.4368914  78.1379281  91.1992792  29.6129518
  70.5144398 100.7001310  34.1677822  71.2272370 101.3348775  34.0953723
  70.0234427 100.7965176  33.3517823  72.2361925  94.6052563  25.7395113
  71.3018204  94.7254026  25.5699818  72.4138594  93.7025030  25.4755123
  67.7367113  87.9898259  27.8928374  67.3664901  87.4369299  28.5809280
  68.2326206  87.3856392  27.3403374  75.6234477  90.4469882  26.2745147
  76.0894929  91.2797874  26.2005450  76.0741977  89.9814864  26.9790406
  65.5656312  98.4495754  34.9883392  66.2665771  99.0832237  35.1412787
  65.0951427  98.7910485  34.2279032  73.6910708  96.7913704  23.2731299
  73.9670552  96.6770298  24.1825173  72.8215206  96.3931189  23.2343472
  73.5951139  82.8150469  30.3136049  72.6814219  83.0454696  30.4818256
  74.0244241  82.8988913  31.1650081  70.3264772 101.0400055  26.9164113
  70.5087166 100.2221710  27.3791865  71.1497758 101.2567747  26.4789003
  70.6606937  99.9668240  24.1779161  71.1894704  99.4560694  23.5649324
  70.9235157  99.6510770  25.0424695  61.1624030  97.9832109  31.9214495
  61.7477467  97.2375797  32.0542399  60.9648868  98.2936066  32.8051159
  64.0162685 101.0183356  26.9376937  63.3473060 101.5029484  26.4540977
  63.8775555 101.2652577  27.8520316  55.7541685  90.5537709  30.6418938
  55.7925784  90.0201300  31.4356056  55.2481977  90.0272915  30.0229915
  68.1567954 103.0527100  33.5359596  68.7086262 103.2158721  34.3008681
  68.4974147 103.6431538  32.8639621  59.3850262  89.2801811  23.7172870
  59.6803703  88.3712490  23.6639923  58.4838298  89.2589551  23.3953872
  71.2936341 101.0009075  30.5223278  71.1687480 100.1998815  30.0134223
  71.9515432 101.4955269  30.0337248  62.9144509  87.3557808  29.7000418
  62.1931095  87.9693776  29.5607891  63.7037765  87.8915573  29.6217064
  73.3571249  98.8018095  32.1502828  72.4101585  98.6823447  32.0781155
  73.7054022  97.9140594  32.2329089  61.1138104  86.9615909  23.8412195
  60.7850810  86.0813288  23.6587301  61.4677474  86.9063578  24.7288584
  70.3617683  98.5970812  28.3507180  70.2142645  97.6687519  28.5314750
  71.1871176  98.6190902  27.8664255  64.2279927  87.2488879  24.2087672
  64.5675999  87.7774800  23.4866281  64.6752047  87.5869285  24.9846239
  73.9651804  99.4199370  29.4372053  74.8898352  99.2142232  29.2996504
  73.7967108  99.1715772  30.3461394  66.9223368  85.6325930  33.6590740
  66.5820188  84.8333743  34.0611420  66.2162374  85.9327640  33.0867574
  67.5739840  82.7175242  32.1118063  68.3965909  82.2435720  31.9896954
  67.8177903  83.4965726  32.6116750  66.2148074  85.7463500  22.4080965
  66.9356437  86.1244753  21.9044682  65.5913378  86.4652377  22.5115943
  70.3579197  86.4508649  23.3439297  70.5742811  87.3333287  23.0428126
  69.8773264  86.0594863  22.6144939  65.0978418  89.4094363  29.9210042
  64.9522999  89.7234666  30.8134324  64.6203622  90.0279263  29.3680941
  66.9574801  86.3996911  29.9690932  66.9436370  85.5038004  29.6323230
  67.6747229  86.4067574  30.6029218  68.8100932  86.8334251  32.0144059
  68.5518710  87.7551321  32.0128389  68.2785972  86.4364685  32.7044523
  73.7547121  99.9385038  24.7934144  73.9283998  99.3731460  24.0407997
  74.2476012 100.7385933  24.6113634  66.3611697  85.2811291  25.2378502
  66.4827608  84.3527937  25.4369389  66.0713739  85.2949977  24.3256817
  69.2302888  82.9666201  28.3745222  69.2524584  83.0305534  27.4197201
  69.6470947  82.1270710  28.5685728  79.6086512  92.7021461  26.4124444
  80.0517658  91.9528786  26.0143567  78.7313022  92.6931597  26.0298176
  74.7422293  99.2551802  21.8931043  75.4373198  99.8758495  22.1118357
  75.0845443  98.4047154  22.1683421  76.6413716  96.7051508  23.4218374
  77.1665040  97.0438781  22.6967694  76.5536069  95.7698523  23.2381508
  68.3033765 100.6185581  35.5508250  68.6120891 100.3734728  36.4230950
  69.1009247 100.8232220  35.0627120  68.3254377 102.7723491  27.7813627
  67.8859367 102.2799870  28.4746483  69.0762494 102.2296459  27.5405702
  60.8046716  98.9635032  27.7838255  61.6304736  98.6638804  27.4036898
  60.4540768  98.1942654  28.2328043  65.7728249  98.3161500  29.8535928
  65.1508258  97.6532205  29.5538156  66.4433116  98.3422632  29.1709576
  59.0055321  96.8821358  28.7427188  58.1687229  96.4543533  28.5611190
  58.9778966  97.0753802  29.6797980  65.3341756  96.8665424  23.3294389
  65.4829876  97.5500888  22.6761062  66.1408200  96.8470514  23.8443845
  79.1519377  94.1726699  28.8046892  79.9866268  94.6116503  28.9684452
  79.2878505  93.6965352  27.9855138  63.0894389  92.8930601  24.3355458
  62.8440431  91.9892931  24.5335668  63.2590304  92.8947752  23.3934936
  62.3590037  88.6258959  21.8341619  61.6659282  88.7003314  21.1781655
  62.1141788  87.8619302  22.3563136  71.0303693  80.1854560  29.2381110
  71.3105447  79.5177749  29.8641537  71.8154300  80.3783656  28.7255774
  68.8337162  99.3613554  20.8006136  68.2611129  99.9803741  20.3476608
  69.4069955  99.9112916  21.3346058  72.0534421  99.6450704  21.9314719
  72.9865095  99.5796266  22.1347594  71.9657634 100.4806971  21.4729251
  74.6822438  98.9616574  18.8918666  74.6036070  98.6276438  19.7854424
  75.5032105  99.4538342  18.8910139  69.2183960  90.6974367  18.1422189
  70.1643065  90.5680575  18.2110607  68.8398205  89.9589029  18.6191617
  75.1905845  82.3630373  28.1049081  74.9930666  82.0545461  28.9892413
  75.8005550  83.0892012  28.2347010  83.1977179  92.8894321  31.2401022
  83.9280568  92.6279609  31.8008725  82.5884125  92.1523043  31.2803090
  81.2792476  91.0302183  31.8375473  80.5525640  90.8958148  31.2291964
  80.8639763  91.3379012  32.6432191  67.4026877  88.6224343  18.0777074
  66.4958333  88.3257456  18.1539788  67.6802858  88.3254161  17.2111360
  58.3204818  89.9430707  28.5276120  58.0007602  89.0896015  28.2350494
  57.7738246  90.1579285  29.2834088  69.0188943  83.1661233  24.2321315
  68.2089671  82.8208318  24.6076561  69.7073360  82.8568777  24.8208927
  70.9479491  82.2439280  25.8545612  71.5010530  82.6634733  26.5135635
  71.1849578  81.3175028  25.8968568  66.1725662  85.4811278  18.2189053
  67.0344826  85.8066177  18.4784871  66.3576006  84.6942774  17.7062119
  58.1893078  93.5633618  30.4969242  57.4956549  93.1487571  29.9839196
  58.9366069  93.6054155  29.9002661  74.3258298  84.3539805  25.3624276
  73.7456967  85.0124609  24.9802329  74.0594231  83.5317149  24.9511694
  72.7761865  83.7544863  27.5645597  73.2761643  83.8661397  26.7559915
  73.4197473  83.4505915  28.2046405  60.1029820  93.4951872  28.3735257
  60.0800508  93.5939559  27.4217140  60.4130457  94.3417023  28.6952423
  73.1083176  86.5139895  24.4180625  72.2209031  86.7989546  24.2000819
  73.5237165  86.3533659  23.5707901  76.4597713  86.5386416  28.1334964
  77.2358103  87.0282869  28.4059581  75.7345847  86.9644470  28.5906833
  78.8970271  87.2514035  29.1908904  79.4914762  87.0109771  28.4802213
  78.9696855  86.5321166  29.8182441  61.1167427 101.0947646  29.5052069
  60.9821895 100.3348047  28.9390067  60.6999489 101.8188546  29.0380858
  72.2526390  96.2784570  18.5128644  72.9562240  96.4834572  19.1286300
  71.5289039  96.8461332  18.7777728  73.0824200  92.0294431  24.6330915
  73.0259402  92.4862983  23.7938547  73.6352543  91.2685116  24.4553757
  76.8929006  87.8184163  25.4581034  76.6365940  87.4180799  26.2889242
  76.2681874  88.5327957  25.3331173  81.2041344  90.5580236  27.9652326
  80.6440902  90.6273426  28.7383888  80.5984847  90.3821221  27.2451822
  64.2736553 101.9916963  29.7170512  64.1568937 102.9362396  29.6149202
  63.4528999 101.6890525  30.1056311  74.1613087  96.7167099  20.5627105
  74.9958691  96.2848298  20.3804579  73.9997430  96.5449113  21.4903999
  73.8158979  93.2199212  21.9283444  73.7607783  93.0543484  20.9871888
  73.1905035  93.9275245  22.0845634  67.1255105  82.7207321  21.5068762
  67.1133775  83.6649161  21.6637033  68.0178527  82.5377467  21.2128223
  65.2991067 102.6445225  32.9326440  66.2018314 102.6768836  33.2492935
  65.0728437 101.7145676  32.9472776  67.0544669 101.3976212  29.5936519
  66.1040300 101.3978073  29.4800891  67.3577155 100.6508946  29.0772554
  70.9407224  79.3150098  25.7614699  70.1739620  78.7608585  25.9071381
  71.3517929  79.3871967  26.6228851  82.7897362 107.2336750  30.6582281
  83.4275772 107.1143498  29.9545621  82.6718205 108.1817594  30.7170233
  79.5987069 107.1864178  30.5943806  79.2605580 107.0705243  29.7064341
  80.4676837 106.7855343  30.5744812  75.4573884 109.0399655  26.5840697
  74.8938749 108.9489592  25.8156985  75.3426279 108.2199559  27.0643189
  80.0806852 108.3399030  36.5530012  80.0695492 107.9451828  35.6810515
  80.2427491 107.6065103  37.1463783  73.0038316 110.5350846  29.4224917
  73.7959608 110.1941671  29.0071217  73.2434966 110.6445821  30.3427071
  81.0373443 112.7070622  21.8955162  80.3861423 113.2924703  21.5089176
  81.8317806 113.2376817  21.9550199  74.9629070 109.7959760  22.2942296
  75.7359946 109.2488747  22.1555172  75.3154469 110.6604009  22.5056758
  76.8014113 111.1236142  35.5009195  76.5103979 112.0281773  35.3855862
  77.4371097 111.1652669  36.2153265  77.7270320 108.5012990  32.0910555
  78.3233892 108.2769013  31.3767518  77.7845291 107.7597736  32.6936003
  77.2995348 105.9552426  19.9260746  77.5520869 105.4333947  19.1644209
  76.3619907 105.7918571  20.0287430  82.3438631 104.9588204  27.7335489
  83.1301720 104.5407627  27.3825906  82.6077335 105.8634296  27.9017138
  82.5148708 110.3961054  22.4324146  81.8794541 110.4695681  23.1445051
  82.1846115 110.9854653  21.7543225  87.7447058 104.8963437  28.6368468
  88.4772230 104.3262654  28.8706297  86.9886414 104.5085038  29.0774973
  77.0191637 107.8580532  22.1285121  76.9027895 107.1825435  22.7966205
  77.1293897 107.3712906  21.3117274  79.3623178 107.3190679  25.8331810
  78.9981385 106.7921300  26.5444732  80.2190294 106.9289148  25.6598296
  85.2672478  98.6085011  33.0963076  84.9355803  99.4780422  32.8724291
  84.6718092  98.2921295  33.7757107  79.0028665 102.3480578  20.8293159
  79.1703067 103.2160815  21.1963630  78.8125834 102.5107860  19.9054448
  81.7603998 110.8097557  32.4958989  81.4604721 111.7122596  32.3874796
  81.4155057 110.5429741  33.3480142  75.2116479 107.2611354  28.5295694
  74.2866976 107.1287568  28.7373385  75.4600893 108.0405573  29.0265636
  85.1601142 103.3280098  30.1756426  84.2518019 103.2595506  29.8815187
  85.1088737 103.8052042  31.0038252  78.9817886 104.8038236  21.8139826
  78.8617511 105.2495287  22.6525306  78.2870474 105.1523554  21.2553364
  72.5725290 106.9044628  29.3639483  72.7017672 107.1579107  30.2778894
  71.8922742 107.4972336  29.0444138  76.7424778 117.5741878  25.4629957
  76.6648807 118.5249703  25.5418437  76.1386421 117.2287750  26.1204883
  79.2342007 104.7469743  38.1191324  78.4575341 105.3063663  38.1094188
  79.8732570 105.2326526  38.6406194  87.0262788 101.5296536  31.9534300
  86.3837168 101.8229069  31.3074095  86.5217717 101.4149456  32.7587497
  84.6802952 105.2759709  22.6420160  85.5920808 105.5087096  22.4667857
  84.1712599 105.8596753  22.0795238  77.4888380 107.5555196  37.6809291
  78.2303064 108.0940240  37.4044114  76.7825365 108.1821485  37.8380843
  82.9643719 109.6984337  36.2781452  83.3727075 109.2566747  35.5336085
  82.2420981 109.1236964  36.5315645  79.3174789 104.6356944  33.6515009
  80.1635985 105.0596357  33.7949658  79.2573427 103.9790568  34.3453572
  83.2872534 110.2585528  30.0333741  82.6581396 110.4231242  29.3309809
  82.8998196 110.6727137  30.8044705  87.1661766 111.1939965  27.3878105
  86.4812804 111.5738867  26.8375138  87.2505615 111.8035292  28.1210053
  84.4212698 108.8399924  33.9873448  84.6329593 109.4831684  33.3107830
  84.3742446 108.0062241  33.5195379  82.0238926 101.4517745  30.8910021
  81.1623405 101.7498999  31.1826758  82.0501361 101.6688144  29.9591053
  78.8400496 109.9959936  27.2983826  79.3038841 110.2747639  26.5088449
  78.5757294 109.0943380  27.1156917  75.7324577 109.5431417  30.2363589
  76.3025934 109.9718686  29.5981074  76.3232689 109.2614002  30.9347775
  77.7769382 106.1183088  24.1073391  78.4793425 106.5704132  24.5747318
  77.4450010 105.4766907  24.7353285  76.2249743 104.7094845  38.4824601
  75.5948404 105.3911125  38.7159998  76.1185831 104.5977926  37.5377739
  71.5194716 104.3766641  29.4090525  70.7293770 104.6324169  28.9330636
  72.0105963 105.1914979  29.5142565  85.5358525 111.7171880  32.1595806
  86.3575969 111.3152067  31.8778487  85.5320928 111.6140114  33.1111922
  73.4709461 104.7411220  26.3674002  72.6740625 104.8529914  26.8857497
  73.2435053 105.0797872  25.5014892  79.3015129 111.2655923  34.3156516
  79.3659561 111.7276330  35.1514688  78.5926053 110.6353288  34.4438826
  69.8032419 104.6297131  31.8405516  70.0540457 105.5144141  32.1063092
  70.3391967 104.4501733  31.0680608  93.6264519 108.0610628  28.5080777
  92.8728227 107.4918026  28.3524782  93.7612060 108.0273293  29.4551412
  79.0163147 112.9324031  24.1835497  78.8808821 113.7775566  24.6120344
  79.5572959 113.1343308  23.4201430  72.4692544 110.4499469  24.7563422
  72.9817065 111.2442719  24.9068986  73.1215257 109.7525759  24.6897023
  74.2787429 113.5665225  26.8386175  74.4554057 114.4883190  26.6507159
  75.0744262 113.2523644  27.2680555  73.5639785 105.6129857  36.7148338
  73.4493300 104.7115114  37.0155437  72.7084303 105.8593554  36.3633155
  80.6431623 113.5547597  38.3135839  80.1995477 112.7683976  37.9956743
  81.3048837 113.7426748  37.6479729  75.4018744 115.0843399  32.8396517
  75.9526169 114.9560462  32.0673511  74.5630220 115.3838288  32.4891410
  82.7412861 113.8350397  36.3417240  82.7231336 114.6559278  35.8497509
  83.6632781 113.7104472  36.5667381  79.1985915 111.3494527  37.1840748
  79.7314252 110.5882815  36.9540056  78.6699996 111.0568178  37.9264903
  82.3655610  96.4554593  32.7134390  82.0219880  97.3456234  32.6373501
  82.7334573  96.2656250  31.8503975  70.4341461 108.7788123  25.5322992
  71.2716683 109.1885131  25.3156700  70.6119728 107.8387565  25.5023186
  82.3305893 106.4463204  21.2206825  81.8152516 107.2167808  21.4595213
  82.0583201 105.7728340  21.8439887  79.9153004 101.2912904  26.2792064
  79.0594600 100.9019755  26.0997702  80.3279956 101.3704865  25.4191849
  81.4452151  98.8259248  30.6783623  80.9416946  98.7889383  29.8651429
  81.7382757  99.7351990  30.7380280  77.6895036  98.9097977  29.6849805
  78.5548033  98.7140786  29.3255695  77.7572545  98.6808329  30.6119162
  87.3040167 109.1995558  23.1559999  86.5269610 108.8606718  22.7115161
  87.9831648 109.2048181  22.4814964  82.1192196 104.3190296  23.0466606
  81.8142332 104.6336445  23.8976750  83.0722638 104.3971716  23.0893939
  80.5638628 110.4780519  24.6959560  80.0359989 109.7433279  24.3832798
  80.0626131 111.2555195  24.4499529  85.5431474 108.6729540  29.8126607
  84.8855148 109.3628801  29.9006735  86.3471873 109.0625971  30.1560593
  75.2957355 101.1400185  27.0566172  75.8701107 100.9175367  26.3239365
  75.8828338 101.2088880  27.8094773  84.3536933 107.0273912  27.8630548
  84.8668814 107.6603904  28.3652258  85.0038157 106.4275108  27.4973908
  75.6226943 103.1704646  21.0762057  74.7864255 103.5079333  21.3971332
  75.4831712 103.0353626  20.1389194  77.5980023  98.0141434  25.7841241
  76.9444436  97.6990451  25.1597856  77.5560497  97.3917175  26.5101064
  78.7091228 108.2960729  17.6994533  77.8018290 108.0649983  17.8985682
  79.2062260 107.4998349  17.8868515  81.6159307 117.0058236  20.6191220
  80.9421006 117.3089933  21.2276177  82.0025129 117.8087317  20.2696677
  80.8317764 104.5023368  30.1088889  79.9140325 104.7238315  29.9510577
  81.2477907 104.5769678  29.2500596  81.6152811 105.9014783  25.2391569
  82.3624630 106.4136181  24.9298691  81.8844401 105.5798836  26.0995963
  79.8879461 108.3973324  22.2218523  78.9790681 108.1132357  22.3190993
  79.9174545 108.8172403  21.3621830  85.1198729 112.0079914  25.9909691
  84.6661056 111.1670824  26.0474881  84.4892696 112.6441312  26.3284471
  84.0631648 102.9371900  27.2210358  83.3254405 102.4249286  27.5520601
  84.3158422 102.4972281  26.4093635  83.5631668 113.8456410  26.9259509
  83.8554643 114.4061467  26.2071875  84.0730289 114.1384971  27.6812668
  84.1643276  95.7148152  27.8152128  84.4702153  94.8545515  27.5278043
  84.8895881  96.3065772  27.6151122  70.4567632 106.1178838  26.2033726
  70.2592032 105.5248199  25.4784792  69.9014296 105.8131048  26.9209664
  78.4364356 106.0101945  28.3228319  78.4912965 105.0575781  28.2470795
  77.6255558 106.1661384  28.8069617  79.5855549 109.9382068  19.5606602
  79.1474979 109.2217927  19.1012239  80.3265990 110.1658183  18.9991693
  76.3756715 104.6279004  26.0818698  75.5624581 104.9273175  26.4883890
  76.8715710 104.2334693  26.7993180  78.5265293 114.6236761  28.0152962
  78.4841472 114.8497608  27.0861494  79.4427992 114.3900136  28.1638764
  81.9730927 105.0920829  34.9133592  82.3280315 105.3192302  35.7728057
  82.6203058 105.4239206  34.2910847  87.7028664 108.2139265  25.6182921
  87.5646563 108.4040861  24.6904110  87.3464883 108.9758648  26.0750972
  75.8670790 102.1997360  31.6979933  76.5070170 102.0586119  31.0002896
  75.0348321 101.9131873  31.3218535  87.7298044 110.2815792  30.6294192
  88.1634550 110.1891081  31.4777246  88.4429624 110.2573292  29.9914208
  76.6431094 111.4999790  27.8114925  77.4371693 111.0050111  27.6097500
  75.9322786 110.9717654  27.4482631  81.4625939 113.8817886  32.1627293
  81.5162961 114.4508822  32.9305009  80.5940720 114.0519771  31.7981330
  72.9513858 105.6442872  23.8874678  72.0211446 105.5827328  24.1044640
  73.0471330 105.1218825  23.0911319  72.8699407 102.1697685  26.4752919
  73.1306224 103.0843018  26.3662080  73.6916579 101.7022128  26.6249532
  74.3424332 103.5835442  33.6451744  75.0147385 103.3752804  32.9964393
  73.5154118 103.3857528  33.2056976  88.5913593 110.3239493  33.1627078
  88.7849483 111.2285303  33.4086352  88.4914211 109.8646912  33.9965663
  83.6528702 110.4746235  38.7367958  83.5014208 110.2456787  37.8198042
  83.6433381 111.4316837  38.7499303  80.4214038 108.0478148  33.7214225
  81.3506098 108.1989308  33.5483192  80.0005068 108.1362169  32.8662871
  79.2202370 112.0728812  31.4912762  79.0813456 111.7047597  32.3638700
  78.4316966 112.5876452  31.3196720  79.8150522 117.1737909  22.8338299
  79.9902278 116.7025952  23.6483921  79.1283310 117.8003675  23.0619559
  80.7707585 111.4510415  28.8801600  80.4357418 111.4111185  29.7759250
  80.2711531 110.7855131  28.4072010  74.7451829 106.8578045  34.4054181
  74.6071627 106.1258284  35.0065720  75.6556753 106.7686945  34.1238369
  83.7066777 108.7966449  19.1538660  83.0895948 108.0713278  19.0571712
  83.2383265 109.5575810  18.8105734  77.3734130 106.5698004  33.8937861
  78.0833748 105.9291197  33.8524479  77.3303438 106.8210899  34.8164042
  85.3620909 113.5065358  36.8144440  85.3033455 112.8224578  36.1475023
  85.7640427 114.2484348  36.3625066  76.0863064 103.5563222  35.7133500
  75.5500421 103.1053961  36.3655097  75.4979772 103.6909131  34.9703965
  74.3811607 120.3227272  29.6078159  74.6208206 120.9545796  30.2857177
  73.5380804 119.9715312  29.8943518  75.4965323 103.0151874  18.2759964
  74.6194789 102.8940675  17.9122211  75.9723076 102.2237952  18.0238853
  85.3638316 111.4704942  35.0458420  84.4765095 111.1330864  35.1684819
  85.9336867 110.7387973  35.2827185  67.0167463 107.8029033  28.3701471
  67.7038503 107.4890764  27.7822486  66.8615592 108.7070398  28.0968722
  71.8202185 102.6919230  32.7986495  71.7360374 102.0844900  32.0636905
  70.9984891 103.1828248  32.7995991  78.8939469 116.1306394  32.0119663
  78.8209641 116.9361366  32.5238967  78.4516862 116.3298360  31.1867684
  78.6829249 115.3678164  25.5222484  77.8996771 115.9099844  25.6160709
  79.3821994 115.8852144  25.9216726  81.9925899 101.1772794  28.1656690
  82.4894598 100.4242756  27.8457760  81.2212880 101.2137110  27.5999899
  89.8455656 106.8813159  29.8074981  89.8345533 107.7637875  29.4368914
  88.9773036 106.5284710  29.6129518  81.3538153 116.0293228  34.1677822
  82.0666125 116.6640693  34.0953723  80.8628181 116.1257094  33.3517823
  83.0755680 109.9344481  25.7395113  82.1411958 110.0545943  25.5699818
  83.2532348 109.0316948  25.4755123  78.5760868 103.3190177  27.8928374
  78.2058655 102.7661217  28.5809280  79.0719960 102.7148310  27.3403374
  86.4628231 105.7761800  26.2745147  86.9288683 106.6089792  26.2005450
  86.9135731 105.3106782  26.9790406  76.4050066 113.7787672  34.9883392
  77.1059526 114.4124155  35.1412787  75.9345181 114.1202403  34.2279032
  84.5304462 112.1205621  23.2731299  84.8064306 112.0062216  24.1825173
  83.6608961 111.7223106  23.2343472  84.4344894  98.1442387  30.3136049
  83.5207974  98.3746614  30.4818256  84.8637995  98.2280831  31.1650081
  84.2051352 106.3332279  32.8135943  83.5522802 106.5808186  32.1588395
  84.5831732 105.5196417  32.4798420  81.1658526 116.3691972  26.9164113
  81.3480921 115.5513628  27.3791865  81.9891512 116.5859664  26.4789003
  81.5000692 115.2960157  24.1779161  82.0288458 114.7852612  23.5649324
  81.7628911 114.9802688  25.0424695  80.2538925 107.0752090  39.3001980
  79.5779562 106.9746219  39.9704355  81.0766559 106.9191304  39.7637977
  72.0017784 113.3124027  31.9214495  72.5871221 112.5667715  32.0542399
  71.8042623 113.6227983  32.8051159  74.8556440 116.3475274  26.9376937
  74.1866815 116.8321402  26.4540977  74.7169309 116.5944494  27.8520316
  66.5935439 105.8829627  30.6418938  66.6319539 105.3493218  31.4356056
  66.0875732 105.3564832  30.0229915  78.9961708 118.3819018  33.5359596
  79.5480016 118.5450639  34.3008681  79.3367902 118.9723455  32.8639621
  73.9726201 100.7294167  34.1381480  74.0367528 101.5908998  33.7258878
  73.9093322 100.1168169  33.4053839  73.4478474 102.8017300  37.7854515
  74.0750513 102.4194377  38.3992039  72.5906393 102.5831502  38.1510207
  83.8472582 113.2080275  39.3908250  84.3912486 113.8210233  38.8963205
  83.2659427 113.7659853  39.9075263  70.2244017 104.6093729  23.7172870
  70.5197458 103.7004407  23.6639923  69.3232052 104.5881468  23.3953872
  82.1330095 116.3300993  30.5223278  82.0081235 115.5290733  30.0134223
  82.7909187 116.8247186  30.0337248  73.7538264 102.6849726  29.7000418
  73.0324849 103.2985693  29.5607891  74.5431519 103.2207490  29.6217064
  84.1965004 114.1310013  32.1502828  83.2495339 114.0115364  32.0781155
  84.5447777 113.2432511  32.2329089  71.9531858 102.2907827  23.8412195
  71.6244564 101.4105206  23.6587301  72.3071229 102.2355495  24.7288584
  81.2011437 113.9262729  28.3507180  81.0536400 112.9979437  28.5314750
  82.0264931 113.9482820  27.8664255  75.0673681 102.5780796  24.2087672
  75.4069754 103.1066718  23.4866281  75.5145802 102.9161203  24.9846239
  84.8045559 114.7491288  29.4372053  85.7292106 114.5434149  29.2996504
  84.6360862 114.5007689  30.3461394  77.7617122 100.9617847  33.6590740
  77.4213943 100.1625660  34.0611420  77.0556128 101.2619558  33.0867574
  78.4133594  98.0467160  32.1118063  79.2359663  97.5727638  31.9896954
  78.6571658  98.8257643  32.6116750  77.0541829 101.0755418  22.4080965
  77.7750191 101.4536671  21.9044682  76.4307133 101.7944295  22.5115943
  81.1972951 101.7800567  23.3439297  81.4136566 102.6625205  23.0428126
  80.7167019 101.3886780  22.6144939  75.9372173 104.7386280  29.9210042
  75.7916754 105.0526583  30.8134324  75.4597376 105.3571181  29.3680941
  77.7968556 101.7288828  29.9690932  77.7830124 100.8329922  29.6323230
  78.5140984 101.7359492  30.6029218  79.6494686 102.1626168  32.0144059
  79.3912464 103.0843239  32.0128389  79.1179727 101.7656603  32.7044523
  84.5940875 115.2676956  24.7934144  84.7677753 114.7023378  24.0407997
  85.0869766 116.0677850  24.6113634  70.4117835 107.2791625  32.8597703
  69.8671303 108.0551433  32.9917978  71.2897185 107.6262429  32.7016825
  77.2005452 100.6103209  25.2378502  77.3221363  99.6819855  25.4369389
  76.9107494 100.6241894  24.3256817  80.0696642  98.2958119  28.3745222
  80.0918339  98.3597452  27.4197201  80.4864701  97.4562628  28.5685728
  90.4480266 108.0313379  26.4124444  90.8911412 107.2820704  26.0143567
  89.5706777 108.0223515  26.0298176  85.5816048 114.5843720  21.8931043
  86.2766952 115.2050413  22.1118357  85.9239198 113.7339071  22.1683421
  71.1983857 106.4061521  35.7527860  70.4565593 106.5544156  36.3392491
  70.8776601 106.6669787  34.8894610  87.4807471 112.0343426  23.4218374
  88.0058795 112.3730698  22.6967694  87.3929823 111.0990441  23.2381508
  79.1427519 115.9477499  35.5508250  79.4514646 115.7026646  36.4230950
  79.9403001 116.1524138  35.0627120  79.1648132 118.1015409  27.7813627
  78.7253122 117.6091787  28.4746483  79.9156248 117.5588376  27.5405702
  71.6440470 114.2926950  27.7838255  72.4698490 113.9930722  27.4036898
  71.2934522 113.5234572  28.2328043  76.6122004 113.6453418  29.8535928
  75.9902013 112.9824123  29.5538156  77.2826871 113.6714550  29.1709576
  69.8449076 112.2113276  28.7427188  69.0080984 111.7835450  28.5611190
  69.8172721 112.4045719  29.6797980  87.1701377 112.6676329  38.7269571
  86.3796921 112.6500468  38.1874071  86.9334731 113.2064623  39.4818608
  87.2899252 109.5168796  36.0402300  87.3397257 109.3518803  36.9817823
  87.1813175 108.6496055  35.6500181  76.1735511 112.1957341  23.3294389
  76.3223631 112.8792806  22.6761062  76.9801954 112.1762431  23.8443845
  84.5803014 105.4999724  37.3561607  85.4812877 105.3606188  37.0645605
  84.6550989 105.6654178  38.2959784  78.9145820 102.8766578  36.2014793
  78.0449129 103.1700144  35.9297382  79.1505300 103.4607023  36.9222057
  88.7917449 111.9365737  36.2844322  88.5002257 112.2995718  37.1207783
  88.1789580 111.2232745  36.1057654  89.9913131 109.5018617  28.8046892
  90.8260022 109.9408421  28.9684452  90.1272260 109.0257270  27.9855138
  87.0404637 107.0598352  34.7524380  87.5158759 107.2525998  33.9443231
  86.1170202 107.1157537  34.5067763  73.9288144 108.2222519  24.3355458
  73.6834185 107.3184849  24.5335668  74.0984058 108.2239669  23.3934936
  73.1983791 103.9550876  21.8341619  72.5053036 104.0295231  21.1781655
  72.9535543 103.1911220  22.3563136  81.8697448  95.5146478  29.2381110
  82.1499201  94.8469667  29.8641537  82.6548055  95.7075573  28.7255774
  79.6730916 114.6905472  20.8006136  79.1004883 115.3095659  20.3476608
  80.2463710 115.2404833  21.3346058  85.7406306 103.9364112  32.9852685
  86.6923729 104.0362209  33.0064909  85.5709756 103.1442380  33.4950769
  83.7620685 101.0219695  33.1712086  83.1670618 101.3024708  32.4758575
  83.4770382 101.5113596  33.9428827  82.8928176 114.9742622  21.9314719
  83.8258849 114.9088183  22.1347594  82.8051389 115.8098889  21.4729251
  85.5216193 114.2908492  18.8918666  85.4429824 113.9568356  19.7854424
  86.3425859 114.7830260  18.8910139  88.2194384 107.1570231  32.0994985
  88.1870704 106.2186232  32.2854669  88.8295007 107.2354268  31.3660810
  80.0577715 106.0266284  18.1422189  81.0036819 105.8972493  18.2110607
  79.6791960 105.2880946  18.6191617  88.3688872 103.9481275  32.1453268
  87.8527921 103.1639732  31.9583197  89.2528821 103.6199991  32.3099787
  86.0299599  97.6922290  28.1049081  85.8324420  97.3837379  28.9892413
  86.6399305  98.4183929  28.2347010  94.0370934 108.2186238  31.2401022
  94.7674322 107.9571526  31.8008725  93.4277879 107.4814960  31.2803090
  92.1186231 106.3594101  31.8375473  91.3919394 106.2250066  31.2291964
  91.7033518 106.6670929  32.6432191  79.9416407 110.0784031  39.6022846
  80.8619417 110.2562630  39.7962892  79.9065990 109.1340076  39.4502545
  78.2420632 103.9516261  18.0777074  77.3352087 103.6549374  18.1539788
  78.5196613 103.6546079  17.2111360  69.1598572 105.2722624  28.5276120
  68.8401356 104.4187932  28.2350494  68.6132000 105.4871202  29.2834088
  72.9378480 107.9885065  32.2445627  73.1564489 108.9202173  32.2633661
  73.3504254 107.6293040  33.0300431  79.8582697  98.4953151  24.2321315
  79.0483426  98.1500235  24.6076561  80.5467114  98.1860694  24.8208927
  81.7873246  97.5731197  25.8545612  82.3404284  97.9926651  26.5135635
  82.0243332  96.6466945  25.8968568  77.0119416 100.8103196  18.2189053
  77.8738580 101.1358094  18.4784871  77.1969761 100.0234692  17.7062119
  69.0286832 108.8925536  30.4969242  68.3350304 108.4779488  29.9839196
  69.7759823 108.9346072  29.9002661  85.1652053  99.6831722  25.3624276
  84.5850722 100.3416527  24.9802329  84.8987986  98.8609067  24.9511694
  83.6155619  99.0836780  27.5645597  84.1155398  99.1953315  26.7559915
  84.2591227  98.7797833  28.2046405  77.6737615 106.9915410  40.4513438
  77.1904697 107.7915770  40.6577327  77.7598554 107.0023355  39.4980882
  70.9423575 108.8243789  28.3735257  70.9194263 108.9231477  27.4217140
  71.2524211 109.6708940  28.6952423  73.6010953 110.8819945  32.4881871
  74.5554206 110.8503887  32.4211803  73.4023476 110.4210568  33.3032097
  74.1910335 109.4521061  35.0552669  75.0103224 109.9465139  35.0787506
  74.4647142 108.5353029  35.0270236  83.9476931 101.8431813  24.4180625
  83.0602786 102.1281463  24.2000819  84.3630920 101.6825576  23.5707901
  87.2991467 101.8678334  28.1334964  88.0751857 102.3574786  28.4059581
  86.5739601 102.2936388  28.5906833  89.7364026 102.5805953  29.1908904
  90.3308516 102.3401689  28.4802213  89.8090609 101.8613084  29.8182441
  71.9561181 116.4239564  29.5052069  71.8215649 115.6639965  28.9390067
  71.5393244 117.1480464  29.0380858  83.0920144 111.6076488  18.5128644
  83.7955994 111.8126490  19.1286300  82.3682793 112.1753249  18.7777728
  83.9217955 107.3586349  24.6330915  83.8653156 107.8154900  23.7938547
  84.4746297 106.5977033  24.4553757  87.7322761 103.1476081  25.4581034
  87.4759695 102.7472716  26.2889242  87.1075629 103.8619875  25.3331173
  92.0435098 105.8872154  27.9652326  91.4834656 105.9565343  28.7383888
  91.4378602 105.7113139  27.2451822  75.1130307 117.3208881  29.7170512
  74.9962691 118.2654314  29.6149202  74.2922753 117.0182443  30.1056311
  85.0006842 112.0459017  20.5627105  85.8352446 111.6140215  20.3804579
  84.8391185 111.8741030  21.4903999  84.6552734 108.5491130  21.9283444
  84.6001538 108.3835401  20.9871888  84.0298789 109.2567163  22.0845634
  69.4445249 103.7859194  35.7544866  70.0904113 103.2758148  36.2432091
  69.2362400 104.5227876  36.3288291  81.9698641 110.8540042  41.2537007
  82.8389801 111.0280694  40.8923642  81.4905393 111.6734459  41.1312736
  77.9648859  98.0499239  21.5068762  77.9527529  98.9941079  21.6637033
  78.8572281  97.8669384  21.2128223  76.1384821 117.9737143  32.9326440
  77.0412068 118.0060753  33.2492935  75.9122191 117.0437594  32.9472776
  77.8938423 116.7268129  29.5936519  76.9434054 116.7269991  29.4800891
  78.1970909 115.9800864  29.0772554  81.7800979  94.6442016  25.7614699
  81.0133375  94.0900502  25.9071381  82.1911684  94.7163884  26.6228851
  93.6291117 122.5628668  30.6582281  94.2669527 122.4435415  29.9545621
  93.5111960 123.5109512  30.7170233  90.4380823 122.5156096  30.5943806
  90.0999335 122.3997161  29.7064341  91.3070591 122.1147261  30.5744812
  86.2967639 124.3691572  26.5840697  85.7332504 124.2781509  25.8156985
  86.1820034 123.5491477  27.0643189  90.9200606 123.6690948  36.5530012
  90.9089247 123.2743746  35.6810515  91.0821246 122.9357020  37.1463783
  83.8432071 125.8642764  29.4224917  84.6353363 125.5233589  29.0071217
  84.0828721 125.9737739  30.3427071  87.6407867 126.4528059  35.5009195
  87.3497733 127.3573690  35.3855862  88.2764852 126.4944587  36.2153265
  88.5664074 123.8304908  32.0910555  89.1627646 123.6060930  31.3767518
  88.6239046 123.0889653  32.6936003  93.1832385 120.2880122  27.7335489
  93.9695475 119.8699545  27.3825906  93.4471090 121.1926214  27.9017138
  98.5840812 120.2255355  28.6368468  99.3165984 119.6554572  28.8706297
  97.8280168 119.8376955  29.0774973  90.2016932 122.6482596  25.8331810
  89.8375139 122.1213217  26.5444732  91.0584048 122.2581065  25.6598296
  96.1066233 113.9376929  33.0963076  95.7749558 114.8072340  32.8724291
  95.5111846 113.6213213  33.7757107  92.5997752 126.1389475  32.4958989
  92.2998475 127.0414514  32.3874796  92.2548812 125.8721658  33.3480142
  86.0510234 122.5903272  28.5295694  85.1260730 122.4579486  28.7373385
  86.2994647 123.3697491  29.0265636  95.9994896 118.6572015  30.1756426
  95.0911773 118.5887424  29.8815187  95.9482492 119.1343960  31.0038252
  83.4119045 122.2336545  29.3639483  83.5411426 122.4871024  30.2778894
  82.7316496 122.8264253  29.0444138  90.0735762 120.0761661  38.1191324
  89.2969096 120.6355581  38.1094188  90.7126325 120.5618444  38.6406194
  97.8656543 116.8588454  31.9534300  97.2230923 117.1520987  31.3074095
  97.3611471 116.7441374  32.7587497  88.3282134 122.8847114  37.6809291
  89.0696819 123.4232158  37.4044114  87.6219120 123.5113403  37.8380843
  93.8037474 125.0276255  36.2781452  94.2120830 124.5858665  35.5336085
  93.0814735 124.4528882  36.5315645  90.1568544 119.9648861  33.6515009
  91.0029739 120.3888275  33.7949658  90.0967182 119.3082486  34.3453572
  94.1266288 125.5877445  30.0333741  93.4975151 125.7523159  29.3309809
  93.7391951 126.0019055  30.8044705  93.3067989 117.6253230  35.3096183
  93.0628921 118.3795290  34.7730459  93.5827920 118.0038577  36.1443430
  95.2606452 124.1691842  33.9873448  95.4723347 124.8123602  33.3107830
  95.2136200 123.3354159  33.5195379  92.8632681 116.7809663  30.8910021
  92.0017160 117.0790916  31.1826758  92.8895116 116.9980062  29.9591053
  89.6794250 125.3251853  27.2983826  90.1432596 125.6039556  26.5088449
  89.4151048 124.4235298  27.1156917  86.5718331 124.8723335  30.2363589
  87.1419688 125.3010603  29.5981074  87.1626443 124.5905920  30.9347775
  88.6163136 121.4475006  24.1073391  89.3187180 121.8996049  24.5747318
  88.2843765 120.8058825  24.7353285  87.0643498 120.0386762  38.4824601
  86.4342159 120.7203043  38.7159998  86.9579586 119.9269844  37.5377739
  82.3588470 119.7058558  29.4090525  81.5687524 119.9616087  28.9330636
  82.8499718 120.5206896  29.5142565  96.3752280 127.0463798  32.1595806
  97.1969724 126.6443985  31.8778487  96.3714683 126.9432032  33.1111922
  84.3103216 120.0703138  26.3674002  83.5134379 120.1821832  26.8857497
  84.0828808 120.4089790  25.5014892  90.1408883 126.5947841  34.3156516
  90.2053316 127.0568248  35.1514688  89.4319807 125.9645206  34.4438826
  80.6426173 119.9589049  31.8405516  80.8934212 120.8436059  32.1063092
  81.1785722 119.7793650  31.0680608  86.3424241 114.3407528  40.8449852
  85.9491186 113.7873727  41.5197496  87.1590381 114.6518107  41.2356369
  83.3086298 125.7791386  24.7563422  83.8210819 126.5734637  24.9068986
  83.9609011 125.0817677  24.6897023  89.2592202 115.7565407  38.4370108
  90.0001915 116.3572560  38.3574571  89.4910124 115.0143045  37.8788151
  84.4033540 120.9421775  36.7148338  84.2887055 120.0407032  37.0155437
  83.5478057 121.1885471  36.3633155  91.4825377 128.8839515  38.3135839
  91.0389232 128.0975893  37.9956743  92.1442591 129.0718665  37.6479729
  86.2412499 130.4135316  32.8396517  86.7919924 130.2852380  32.0673511
  85.4023975 130.7130205  32.4891410  93.5806615 129.1642315  36.3417240
  93.5625091 129.9851196  35.8497509  94.5026536 129.0396390  36.5667381
  90.0379670 126.6786444  37.1840748  90.5708006 125.9174732  36.9540056
  89.5093751 126.3860096  37.9264903  93.2049365 111.7846510  32.7134390
  92.8613634 112.6748152  32.6373501  93.5728327 111.5948168  31.8503975
  81.2735215 124.1080041  25.5322992  82.1110437 124.5177049  25.3156700
  81.4513483 123.1679483  25.5023186  90.7546758 116.6204822  26.2792064
  89.8988355 116.2311672  26.0997702  91.1673710 116.6996783  25.4191849
  92.2845905 114.1551165  30.6783623  91.7810701 114.1181300  29.8651429
  92.5776512 115.0643908  30.7380280  88.5288791 114.2389895  29.6849805
  89.3941788 114.0432704  29.3255695  88.5966300 114.0100247  30.6119162
  96.3825228 124.0021457  29.8126607  95.7248903 124.6920719  29.9006735
  97.1865628 124.3917889  30.1560593  86.1351110 116.4692103  27.0566172
  86.7094862 116.2467284  26.3239365  86.7222092 116.5380797  27.8094773
  95.1930687 122.3565830  27.8630548  95.7062569 122.9895822  28.3652258
  95.8431911 121.7567025  27.4973908  88.4373778 113.3433352  25.7841241
  87.7838190 113.0282369  25.1597856  88.3954252 112.7209092  26.5101064
  91.6711518 119.8315285  30.1088889  90.7534079 120.0530232  29.9510577
  92.0871662 119.9061596  29.2500596  94.9025403 118.2663817  27.2210358
  94.1648160 117.7541204  27.5520601  95.1552176 117.8264199  26.4093635
  95.0037030 111.0440069  27.8152128  95.3095907 110.1837433  27.5278043
  95.7289635 111.6357690  27.6151122  81.2961386 121.4470756  26.2033726
  81.0985786 120.8540117  25.4784792  80.7408050 121.1422966  26.9209664
  89.2758110 121.3393862  28.3228319  89.3306720 120.3867699  28.2470795
  88.4649312 121.4953302  28.8069617  87.2150470 119.9570922  26.0818698
  86.4018335 120.2565093  26.4883890  87.7109464 119.5626611  26.7993180
  92.8124682 120.4212747  34.9133592  93.1674069 120.6484220  35.7728057
  93.4596813 120.7531123  34.2910847  86.7064545 117.5289278  31.6979933
  87.3463924 117.3878037  31.0002896  85.8742075 117.2423791  31.3218535
  87.4824849 126.8291708  27.8114925  88.2765447 126.3342028  27.6097500
  86.7716541 126.3009571  27.4482631  92.3019693 129.2109804  32.1627293
  92.3556715 129.7800740  32.9305009  91.4334474 129.3811689  31.7981330
  83.7907612 120.9734790  23.8874678  82.8605200 120.9119245  24.1044640
  83.8865084 120.4510743  23.0911319  83.7093161 117.4989603  26.4752919
  83.9699978 118.4134936  26.3662080  84.5310333 117.0314045  26.6249532
  85.1818086 118.9127360  33.6451744  85.8541140 118.7044722  32.9964393
  84.3547873 118.7149446  33.2056976  99.4307348 125.6531410  33.1627078
  99.6243238 126.5577221  33.4086352  99.3307966 125.1938829  33.9965663
  91.0843658 115.5389301  35.6617405  90.4371573 116.2379250  35.5681881
  91.8544674 115.9725445  36.0293653  94.4922456 125.8038153  38.7367958
  94.3407963 125.5748705  37.8198042  94.4827136 126.7608754  38.7499303
  91.2607793 123.3770066  33.7214225  92.1899853 123.5281225  33.5483192
  90.8398823 123.4654086  32.8662871  90.0596125 127.4020730  31.4912762
  89.9207210 127.0339515  32.3638700  89.2710721 127.9168370  31.3196720
  91.6101340 126.7802333  28.8801600  91.2751172 126.7403103  29.7759250
  91.1105285 126.1147049  28.4072010  85.5845584 122.1869963  34.4054181
  85.4465382 121.4550202  35.0065720  86.4950507 122.0978863  34.1238369
  88.2127884 121.8989922  33.8937861  88.9227503 121.2583114  33.8524479
  88.1697193 122.1502817  34.8164042  96.2014663 128.8357275  36.8144440
  96.1427209 128.1516496  36.1475023  96.6034181 129.5776266  36.3625066
  86.9256818 118.8855140  35.7133500  86.3894175 118.4345878  36.3655097
  86.3373527 119.0201049  34.9703965  96.2032070 126.7996859  35.0458420
  95.3158849 126.4622781  35.1684819  96.7730621 126.0679891  35.2827185
  77.8561217 123.1320951  28.3701471  78.5432257 122.8182681  27.7822486
  77.7009346 124.0362316  28.0968722  82.6595940 118.0211148  32.7986495
  82.5754128 117.4136817  32.0636905  81.8378646 118.5120166  32.7995991
  89.7333224 131.4598312  32.0119663  89.6603395 132.2653283  32.5238967
  89.2910617 131.6590278  31.1867684  92.8319653 116.5064711  28.1656690
  93.3288353 115.7534674  27.8457760  92.0606635 116.5429028  27.5999899
 100.6849411 122.2105077  29.8074981 100.6739287 123.0929792  29.4368914
  99.8166790 121.8576628  29.6129518  92.1931907 131.3585146  34.1677822
  92.9059879 131.9932611  34.0953723  91.7021936 131.4549012  33.3517823
  89.4154622 118.6482094  27.8928374  89.0452410 118.0953135  28.5809280
  89.9113715 118.0440228  27.3403374  87.2443821 129.1079589  34.9883392
  87.9453280 129.7416072  35.1412787  86.7738936 129.4494321  34.2279032
  95.2738648 113.4734305  30.3136049  94.3601728 113.7038532  30.4818256
  95.7031750 113.5572749  31.1650081  95.0445107 121.6624197  32.8135943
  94.3916557 121.9100104  32.1588395  95.4225487 120.8488335  32.4798420
  91.0932680 122.4044008  39.3001980  90.4173317 122.3038137  39.9704355
  91.9160314 122.2483222  39.7637977  82.8411539 128.6415944  31.9214495
  83.4264976 127.8959632  32.0542399  82.6436377 128.9519901  32.8051159
  77.4329194 121.2121545  30.6418938  77.4713293 120.6785135  31.4356056
  76.9269486 120.6856750  30.0229915  89.8355463 133.7110935  33.5359596
  90.3873771 133.8742557  34.3008681  90.1761656 134.3015373  32.8639621
  84.8119956 116.0586085  34.1381480  84.8761282 116.9200916  33.7258878
  84.7487076 115.4460087  33.4053839  84.2872228 118.1309218  37.7854515
  84.9144267 117.7486295  38.3992039  83.4300147 117.9123420  38.1510207
  94.6866337 128.5372193  39.3908250  95.2306241 129.1502151  38.8963205
  94.1053182 129.0951771  39.9075263  81.0637771 119.9385647  23.7172870
  81.3591212 119.0296325  23.6639923  80.1625807 119.9173386  23.3953872
  84.5932018 118.0141643  29.7000418  83.8718604 118.6277611  29.5607891
  85.3825274 118.5499408  29.6217064  95.0358758 129.4601931  32.1502828
  94.0889094 129.3407282  32.0781155  95.3841531 128.5724429  32.2329089
  87.3958332 115.3496070  35.9741070  87.9192733 115.5958366  36.7367379
  87.1770665 116.1816105  35.5544207  82.7925613 117.6199744  23.8412195
  82.4638319 116.7397123  23.6587301  83.1464983 117.5647413  24.7288584
  85.9067436 117.9072714  24.2087672  86.2463508 118.4358635  23.4866281
  86.3539556 118.2453120  24.9846239  88.6010877 116.2909765  33.6590740
  88.2607697 115.4917578  34.0611420  87.8949883 116.5911476  33.0867574
  89.2527349 113.3759077  32.1118063  90.0753418 112.9019555  31.9896954
  89.4965412 114.1549561  32.6116750  87.8935583 116.4047336  22.4080965
  88.6143946 116.7828589  21.9044682  87.2700887 117.1236213  22.5115943
  92.0366706 117.1092485  23.3439297  92.2530320 117.9917123  23.0428126
  91.5560773 116.7178698  22.6144939  86.7765927 120.0678198  29.9210042
  86.6310508 120.3818501  30.8134324  86.2991131 120.6863098  29.3680941
  88.6362310 117.0580746  29.9690932  88.6223879 116.1621839  29.6323230
  89.3534738 117.0651410  30.6029218  90.4888441 117.4918086  32.0144059
  90.2306219 118.4135157  32.0128389  89.9573481 117.0948521  32.7044523
  81.2511589 122.6083542  32.8597703  80.7065058 123.3843350  32.9917978
  82.1290939 122.9554347  32.7016825  88.0399206 115.9395126  25.2378502
  88.1615117 115.0111772  25.4369389  87.7501248 115.9533812  24.3256817
  90.9090396 113.6250037  28.3745222  90.9312093 113.6889370  27.4197201
  91.3258455 112.7854545  28.5685728  82.0377611 121.7353439  35.7527860
  81.2959347 121.8836074  36.3392491  81.7170356 121.9961704  34.8894610
  89.9821274 131.2769417  35.5508250  90.2908400 131.0318564  36.4230950
  90.7796756 131.4816055  35.0627120  82.4834225 129.6218867  27.7838255
  83.3092245 129.3222639  27.4036898  82.1328277 128.8526490  28.2328043
  87.4515758 128.9745336  29.8535928  86.8295767 128.3116041  29.5538156
  88.1220625 129.0006467  29.1709576  80.6842830 127.5405194  28.7427188
  79.8474738 127.1127368  28.5611190  80.6566475 127.7337637  29.6797980
  87.5240286 117.4527124  39.4468434  87.5728441 118.3289246  39.0646204
  88.0662800 116.9104517  38.8740078  98.0095131 127.9968247  38.7269571
  97.2190675 127.9792386  38.1874071  97.7728486 128.5356541  39.4818608
  98.1293006 124.8460713  36.0402300  98.1791011 124.6810721  36.9817823
  98.0206930 123.9787972  35.6500181  95.4196769 120.8291641  37.3561607
  96.3206632 120.6898106  37.0645605  95.4944743 120.9946096  38.2959784
  89.7539574 118.2058496  36.2014793  88.8842883 118.4992062  35.9297382
  89.9899054 118.7898941  36.9222057  99.6311203 127.2657655  36.2844322
  99.3396012 127.6287635  37.1207783  99.0183334 126.5524663  36.1057654
  97.8798391 122.3890269  34.7524380  98.3552513 122.5817916  33.9443231
  96.9563957 122.4449455  34.5067763  84.7681898 123.5514437  24.3355458
  84.5227940 122.6476767  24.5335668  84.9377813 123.5531587  23.3934936
  92.4578608 114.4238113  33.7180213  92.9760552 115.1599140  33.3926702
  92.1033741 114.7302106  34.5526973  84.0377546 119.2842794  21.8341619
  83.3446791 119.3587149  21.1781655  83.7929297 118.5203138  22.3563136
  92.7091202 110.8438395  29.2381110  92.9892956 110.1761584  29.8641537
  93.4941809 111.0367491  28.7255774  96.5800060 119.2656029  32.9852685
  97.5317483 119.3654127  33.0064909  96.4103511 118.4734298  33.4950769
  94.6014440 116.3511613  33.1712086  94.0064372 116.6316625  32.4758575
  94.3164137 116.8405514  33.9428827  99.0588138 122.4862149  32.0994985
  99.0264458 121.5478150  32.2854669  99.6688762 122.5646186  31.3660810
  99.2082627 119.2773193  32.1453268  98.6921675 118.4931649  31.9583197
 100.0922575 118.9491909  32.3099787  96.8693354 113.0214208  28.1049081
  96.6718175 112.7129296  28.9892413  97.4793059 113.7475847  28.2347010
 104.8764688 123.5478156  31.2401022 105.6068077 123.2863444  31.8008725
 104.2671634 122.8106878  31.2803090 102.9579985 121.6886019  31.8375473
 102.2313149 121.5541983  31.2291964 102.5427272 121.9962847  32.6432191
  90.7810162 125.4075948  39.6022846  91.7013171 125.5854547  39.7962892
  90.7459745 124.4631994  39.4502545  79.9992327 120.6014542  28.5276120
  79.6795111 119.7479850  28.2350494  79.4525755 120.8163120  29.2834088
  83.7772234 123.3176983  32.2445627  83.9958244 124.2494091  32.2633661
  84.1898008 122.9584957  33.0300431  90.6976452 113.8245068  24.2321315
  89.8877180 113.4792153  24.6076561  91.3860869 113.5152612  24.8208927
  92.6267000 112.9023115  25.8545612  93.1798039 113.3218568  26.5135635
  92.8637087 111.9758863  25.8968568  88.6500099 118.8910189  41.6348376
  88.5496826 119.8404546  41.5660467  88.4321642 118.5628428  40.7624446
  79.8680587 124.2217453  30.4969242  79.1744058 123.8071406  29.9839196
  80.6153578 124.2637990  29.9002661  96.0045807 115.0123640  25.3624276
  95.4244476 115.6708444  24.9802329  95.7381740 114.1900985  24.9511694
  94.4549374 114.4128698  27.5645597  94.9549152 114.5245232  26.7559915
  95.0984982 114.1089751  28.2046405  88.5131370 122.3207327  40.4513438
  88.0298451 123.1207688  40.6577327  88.5992309 122.3315272  39.4980882
  81.7817329 124.1535707  28.3735257  81.7588017 124.2523394  27.4217140
  82.0917966 125.0000858  28.6952423  84.4404707 126.2111862  32.4881871
  85.3947961 126.1795805  32.4211803  84.2417231 125.7502486  33.3032097
  85.0304089 124.7812978  35.0552669  85.8496978 125.2757057  35.0787506
  85.3040897 123.8644946  35.0270236  94.7870685 117.1723731  24.4180625
  93.8996540 117.4573381  24.2000819  95.2024674 117.0117494  23.5707901
  98.1385222 117.1970252  28.1334964  98.9145612 117.6866704  28.4059581
  97.4133356 117.6228306  28.5906833 100.5757780 117.9097871  29.1908904
 101.1702271 117.6693607  28.4802213 100.6484364 117.1905001  29.8182441
  82.7954936 131.7531482  29.5052069  82.6609404 130.9931883  28.9390067
  82.3786998 132.4772382  29.0380858  85.9524062 132.6500799  29.7170512
  85.8356446 133.5946231  29.6149202  85.1316508 132.3474360  30.1056311
  80.2839003 119.1151112  35.7544866  80.9297867 118.6050066  36.2432091
  80.0756155 119.8519794  36.3288291  92.8092396 126.1831960  41.2537007
  93.6783555 126.3572612  40.8923642  92.3299147 127.0026376  41.1312736
  88.8042614 113.3791157  21.5068762  88.7921284 114.3232997  21.6637033
  89.6966036 113.1961302  21.2128223  86.9778576 133.3029061  32.9326440
  87.8805823 133.3352671  33.2492935  86.7515946 132.3729512  32.9472776
  92.6194733 109.9733933  25.7614699  91.8527129 109.4192420  25.9071381
  93.0305438 110.0455802  26.6228851  84.6236494 116.2618729  39.8519880
  85.4867956 115.9055534  40.0623205  84.0501905 115.9232624  40.5395285
 100.9129516 135.4053578  38.1191324 100.1362850 135.9647499  38.1094188
 101.5520079 135.8910361  38.6406194  97.9037252 135.3678680  38.4824601
  97.2735913 136.0494961  38.7159998  97.7973340 135.2561762  37.5377739
  97.1817995 129.6699446  40.8449852  96.7884941 129.1165644  41.5197496
  97.9984135 129.9810024  41.2356369 100.0985956 131.0857325  38.4370108
 100.8395670 131.6864478  38.3574571 100.3303879 130.3434963  37.8788151
  95.2427294 136.2713692  36.7148338  95.1280809 135.3698949  37.0155437
  94.3871812 136.5177389  36.3633155 101.9237413 130.8681218  35.6617405
 101.2765328 131.5671168  35.5681881 102.6938428 131.3017362  36.0293653
  97.7650573 134.2147058  35.7133500  97.2287930 133.7637796  36.3655097
  97.1767281 134.3492967  34.9703965  93.4989694 133.3503065  32.7986495
  93.4147883 132.7428735  32.0636905  92.6772400 133.8412084  32.7995991
 101.9326434 137.7335925  39.3001980 101.2567071 137.6330055  39.9704355
 102.7554068 137.5775139  39.7637977  95.6513710 131.3878003  34.1381480
  95.7155037 132.2492834  33.7258878  95.5880831 130.7752004  33.4053839
  95.1265983 133.4601135  37.7854515  95.7538022 133.0778213  38.3992039
  94.2693902 133.2415337  38.1510207  98.2352086 130.6787987  35.9741070
  98.7586488 130.9250284  36.7367379  98.0164419 131.5108022  35.5544207
  92.8771366 137.0645356  35.7527860  92.1353102 137.2127992  36.3392491
  92.5564110 137.3253622  34.8894610  98.3634040 132.7819041  39.4468434
  98.4122196 133.6581164  39.0646204  98.9056554 132.2396434  38.8740078
 100.5933329 133.5350414  36.2014793  99.7236638 133.8283980  35.9297382
 100.8292809 134.1190859  36.9222057  99.4893854 134.2202106  41.6348376
  99.3890581 135.1696463  41.5660467  99.2715396 133.8920345  40.7624446
  99.3525124 137.6499245  40.4513438  98.8692206 138.4499605  40.6577327
  99.4386063 137.6607190  39.4980882  91.1232758 134.4443030  35.7544866
  91.7691621 133.9341984  36.2432091  90.9149909 135.1811711  36.3288291
  95.4630249 131.5910647  39.8519880  96.3261710 131.2347452  40.0623205
  94.8895660 131.2524542  40.5395285  37.2856606  29.2442049  25.0381145
  36.8420460  28.4578428  24.7202050  37.9473820  29.4321200  24.3725036
  39.3837844  29.5244849  23.0662547  39.3656320  30.3453730  22.5742816
  40.3057764  29.3998924  23.2912688  35.8410898  27.0388978  23.9086055
  36.3739235  26.2777267  23.6785363  35.3124980  26.7462630  24.6510209
  45.2338577  26.0133944  19.8872384  45.4274467  26.9179755  20.1331659
  45.1339195  25.5541363  20.7210969  40.2953685  26.1640687  25.4613265
  40.1439192  25.9351239  24.5443348  40.2858365  27.1211289  25.4744610
  42.0045892  29.1959810  23.5389747  41.9458438  28.5119030  22.8720330
  42.4065410  29.9378800  23.0870373  42.0063299  27.1599394  21.7703726
  41.1190078  26.8225315  21.8930125  42.5761850  26.4282425  22.0072492
  37.9963136  31.7187680  20.8923128  38.7091108  32.3535145  20.8199030
  37.5053165  31.8151546  20.0763130  36.8963909  22.7646542  26.0247286
  36.2204546  22.6640671  26.6949662  37.7191542  22.6085756  26.4883284
  35.6386691  34.0713469  20.2604902  36.1904999  34.2345091  21.0253988
  35.9792885  34.6617907  19.5884927  40.4897566  28.8974727  26.1153557
  41.0337470  29.5104685  25.6208512  39.9084411  29.4554305  26.6320570
  35.7852503  31.6371951  22.2753557  36.0939629  31.3921098  23.1476256
  36.5827985  31.8418590  21.7872427  43.8126360  28.3570781  25.4514878
  43.0221904  28.3394920  24.9119378  43.5759715  28.8959075  26.2063915
  43.9324235  25.2063247  22.7647607  43.9822240  25.0413255  23.7063129
  43.8238159  24.3390506  22.3745487  41.2227998  21.1894175  24.0806913
  42.1237860  21.0500640  23.7890911  41.2975972  21.3548630  25.0205091
  45.4342432  27.6260189  23.0089628  45.1427240  27.9890169  23.8453089
  44.8214563  26.9127197  22.8302960  36.5841390  25.7678482  26.3268152
  37.5044400  25.9457081  26.5208199  36.5490973  24.8234528  26.1747852
  34.3162598  22.6809862  27.1758744  33.8329680  23.4810222  27.3822633
  34.4023537  22.6917807  26.2226188  38.6123624  26.5434494  27.9782313
  39.4814784  26.7175146  27.6168948  38.1330376  27.3628911  27.8558043
  50.2716100  38.2523120  17.3827588  50.9094510  38.1329867  16.6790928
  50.1536943  39.2003964  17.4415540  47.0805806  38.2050548  17.3189113
  46.7424318  38.0891613  16.4309647  47.9495575  37.8041713  17.2990119
  47.5625589  39.3585400  23.2775318  47.5514230  38.9638198  22.4055822
  47.7246229  38.6251472  23.8709090  40.4857054  41.5537216  16.1470224
  41.2778346  41.2128040  15.7316523  40.7253704  41.6632191  17.0672377
  48.5192181  43.7256992   8.6200468  47.8680161  44.3111072   8.2334482
  49.3136544  44.2563187   8.6795506  44.2832851  42.1422511  22.2254502
  43.9922717  43.0468142  22.1101168  44.9189835  42.1839039  22.9398572
  45.2089057  39.5199360  18.8155862  45.8052630  39.2955382  18.1012825
  45.2664029  38.7784105  19.4181310  49.8257369  35.9774574  14.4580796
  50.6120458  35.5593997  14.1071213  50.0896073  36.8820666  14.6262444
  55.2265796  35.9149807  15.3613774  55.9590968  35.3449024  15.5951604
  54.4705151  35.5271407  15.8020280  46.8441915  38.3377048  12.5577117
  46.4800123  37.8107669  13.2690038  47.7009031  37.9475517  12.3843602
  52.7491216  29.6271381  19.8208383  52.4174541  30.4966792  19.5969598
  52.1536829  29.3107665  20.5002413  49.2422736  41.8283927  19.2204296
  48.9423459  42.7308966  19.1120103  48.8973795  41.5616110  20.0725449
  42.6935217  38.2797724  15.2541000  41.7685714  38.1473938  15.4618692
  42.9419630  39.0591943  15.7510943  52.6419879  34.3466467  16.9001733
  51.7336757  34.2781875  16.6060494  52.5907475  34.8238412  17.7283559
  40.0544028  37.9230997  16.0884789  40.1836409  38.1765476  17.0024201
  39.3741479  38.5158705  15.7689444  44.2243515  48.5928247  12.1875264
  44.1467545  49.5436072  12.2663744  43.6205159  48.2474120  12.8450190
  46.7160745  35.7656113  24.8436630  45.9394079  36.3250033  24.8339495
  47.3551308  36.2512896  25.3651501  54.5081526  32.5482905  18.6779607
  53.8655906  32.8415439  18.0319402  54.0036454  32.4335826  19.4832804
  44.9707118  38.5741566  24.4054597  45.7121802  39.1126610  24.1289421
  44.2644103  39.2007855  24.5626149  50.4462457  40.7170706  23.0026759
  50.8545813  40.2753117  22.2581391  49.7239719  40.1423334  23.2560952
  46.7993527  35.6543313  20.3760316  47.6454722  36.0782727  20.5194965
  46.7392165  34.9976938  21.0698879  50.7691272  41.2771897  16.7579048
  50.1400134  41.4417611  16.0555116  50.3816934  41.6913507  17.5290012
  54.6480504  42.2126335  14.1123412  53.9631542  42.5925236  13.5620445
  54.7324353  42.8221662  14.8455359  49.9492973  33.3147682  22.0341489
  49.7053904  34.0689742  21.4975765  50.2252903  33.6933029  22.8688737
  51.9031435  39.8586294  20.7118755  52.1148331  40.5018054  20.0353136
  51.8561184  39.0248611  20.2440685  49.5057664  32.4704115  17.6155327
  48.6442143  32.7685368  17.9072065  49.5320099  32.6874514  16.6836360
  46.3219234  41.0146305  14.0229133  46.7857579  41.2934008  13.2333755
  46.0576032  40.1129750  13.8402224  43.2143315  40.5617787  16.9608896
  43.7844672  40.9905055  16.3226381  43.8051427  40.2800371  17.6593082
  43.7068481  35.7281214  25.2069907  43.0767142  36.4097495  25.4405304
  43.6004569  35.6164296  24.2623046  53.0177263  42.7358249  18.8841112
  53.8394707  42.3338437  18.6023794  53.0139666  42.6326484  19.8357228
  46.7833867  42.2842293  21.0401823  46.8478299  42.7462700  21.8759995
  46.0744791  41.6539658  21.1684133  37.2851157  35.6483501  18.5650822
  37.5359195  36.5330511  18.8308398  37.8210705  35.4688102  17.7925914
  61.1083256  39.0796998  15.2326084  60.3546965  38.5104396  15.0770088
  61.2430798  39.0459662  16.1796719  46.4981884  43.9510400  10.9080803
  46.3627559  44.7961936  11.3365651  47.0391697  44.1529678  10.1446737
  42.9849224  30.0301980  27.5695158  42.5916170  29.4768179  28.2442803
  43.8015364  30.3412559  27.9601676  41.7606166  44.5851595  13.5631482
  41.9372795  45.5069559  13.3752465  42.5563000  44.2710014  13.9925861
  45.9017185  31.4459859  25.1615415  46.6426898  32.0467012  25.0819877
  46.1335108  30.7037497  24.6033458  41.0458523  36.6316226  23.4393645
  40.9312038  35.7301484  23.7400744  40.1903041  36.8779923  23.0878461
  48.1250361  44.5733967  25.0381145  47.6814215  43.7870345  24.7202050
  48.7867574  44.7613117  24.3725036  42.8837482  46.1029768  19.5641824
  43.4344907  45.9746832  18.7918818  42.0448958  46.4024657  19.2136717
  50.2231599  44.8536767  23.0662547  50.2050074  45.6745648  22.5742816
  51.1451519  44.7290842  23.2912688  46.6804653  42.3680896  23.9086055
  47.2132990  41.6069184  23.6785363  46.1518734  42.0754548  24.6510209
  49.8474348  27.4740962  19.4379697  49.5038617  28.3642604  19.3618807
  50.2153311  27.2842620  18.5749282  48.9270888  29.8445617  17.4028930
  48.4235684  29.8075752  16.5896735  49.2201495  30.7538360  17.4625587
  54.7858905  40.2181928   9.8805305  54.0088348  39.8793087   9.4360467
  55.4650386  40.2234551   9.2060270  48.0457366  41.4966889  11.4204867
  47.5178727  40.7619648  11.1078104  47.5444868  42.2741565  11.1744835
  53.0250212  39.6915909  16.5371913  52.3673886  40.3815170  16.6252042
  53.8290611  40.0812341  16.8805900  51.8355670  38.0460282  14.5875855
  52.3487552  38.6790274  15.0897565  52.4856894  37.4461477  14.2219215
  49.0978045  48.0244606   7.3436526  48.4239743  48.3276303   7.9521484
  49.4843867  48.8273686   6.9941983  48.3136501  35.5209737  16.8334196
  47.3959063  35.7424684  16.6755884  48.7296645  35.5956048  15.9745903
  49.0971549  36.9201153  11.9636876  49.8443368  37.4322550  11.6543998
  49.3663139  36.5985206  12.8241269  52.6017467  43.0266283  12.7154998
  52.1479794  42.1857193  12.7720188  51.9711433  43.6627682  13.0529778
  51.5450386  33.9558269  13.9455665  50.8073143  33.4435655  14.2765908
  51.7977160  33.5158651  13.1338942  51.0450406  44.8642780  13.6504816
  51.3373380  45.4247837  12.9317181  51.5549026  45.1571341  14.4057975
  45.9183093  37.0288314  15.0473625  45.9731703  36.0762151  14.9716102
  45.1074295  37.1847753  15.5314924  46.0084031  45.6423131  14.7398269
  45.9660210  45.8683977  13.8106801  46.9246730  45.4086506  14.8884070
  49.4549665  36.1107199  21.6378898  49.8099053  36.3378672  22.4973364
  50.1021796  36.4425575  21.0156154  55.1847402  39.2325634  12.3428227
  55.0465300  39.4227230  11.4149416  54.8283621  39.9945017  12.7996278
  43.3489528  33.2183730  18.4225239  43.9888907  33.0772489  17.7248203
  42.5167059  32.9318243  18.0463841  55.2116781  41.3002161  17.3539499
  55.6453288  41.2077451  18.2022553  55.9248362  41.2759662  16.7159515
  44.1249832  42.5186160  14.5360232  44.9190430  42.0236480  14.3342807
  43.4141524  41.9904023  14.1727937  48.9444676  44.9004256  18.8872599
  48.9981699  45.4695192  19.6550315  48.0759458  45.0706141  18.5226636
  41.8243070  34.6021812  20.3697051  42.4966123  34.3939174  19.7209700
  40.9972856  34.4043898  19.9302283  56.0732331  41.3425862  19.8872384
  56.2668221  42.2471673  20.1331659  55.9732949  40.8833281  20.7210969
  47.7268642  31.2283753  22.3862711  47.0796557  31.9273702  22.2927188
  48.4969657  31.6619897  22.7538960  51.1347440  41.4932605  25.4613265
  50.9832946  41.2643157  24.5443348  51.1252119  42.4503206  25.4744610
  47.9032776  39.0664518  20.4459531  48.8324836  39.2175677  20.2728499
  47.4823806  39.1548538  19.5908178  46.7021108  43.0915182  18.2158069
  46.5632194  42.7233966  19.0884007  45.9135704  43.6062821  18.0442027
  47.2969260  48.1924278   9.5583605  47.4721016  47.7212322  10.3729228
  46.6102048  48.8190045   9.7864866  48.2526323  42.4696785  15.6046907
  47.9176156  42.4297555  16.5004557  47.7530269  41.8041501  15.1317317
  42.2270567  37.8764415  21.1299488  42.0890365  37.1444654  21.7311027
  43.1375490  37.7873315  20.8483676  44.8552868  37.5884374  20.6183167
  45.5652486  36.9477566  20.5769786  44.8122176  37.8397269  21.5409348
  52.8439646  44.5251727  23.5389747  52.7852193  43.8410948  22.8720330
  53.2459165  45.2670717  23.0870373  43.5681802  34.5749592  22.4378807
  43.0319159  34.1240330  23.0900403  42.9798510  34.7095501  21.6949271
  41.8630345  51.3413641  16.3323466  42.1026943  51.9732165  17.0102484
  41.0199542  50.9901681  16.6188825  52.8457054  42.4891311  21.7703726
  51.9583832  42.1517233  21.8930125  53.4155605  41.7574343  22.0072492
  39.3020923  33.7105600  19.5231801  39.2179112  33.1031269  18.7882211
  38.4803629  34.2014618  19.5241298  46.3758207  47.1492764  18.7364970
  46.3028378  47.9547735  19.2484274  45.9335600  47.3484729  17.9112991
  46.1647987  46.3864534  12.2467791  45.3815509  46.9286214  12.3406016
  46.8640732  46.9038513  12.6462032  57.3274394  37.8999529  16.5320288
  57.3164270  38.7824244  16.1614221  56.4591774  37.5471080  16.3374825
  48.8356891  47.0479598  20.8923128  49.5484863  47.6827063  20.8199030
  48.3446919  47.1443464  20.0763130  50.5574417  40.9530850  12.4640420
  49.6230696  41.0732313  12.2945124  50.7351086  40.0503317  12.2000430
  53.9446969  36.7948170  12.9990454  54.4107421  37.6276161  12.9250757
  54.3954469  36.3293151  13.7035712  43.8868804  44.7974041  21.7128699
  44.5878264  45.4310524  21.8658093  43.4163919  45.1388773  20.9524338
  52.0123200  43.1391991   9.9976606  52.2883044  43.0248586  10.9070480
  51.1427699  42.7409476   9.9588779  51.9163632  29.1628757  17.0381355
  51.0026711  29.3932983  17.2063562  52.3456733  29.2467201  17.8895388
  51.6870090  37.3518649  19.5381249  51.0341540  37.5994556  18.8833702
  52.0650470  36.5382787  19.2043727  48.6477264  47.3878342  13.6409420
  48.8299658  46.5699998  14.1037172  49.4710250  47.6046034  13.2034310
  48.9819429  46.3146527  10.9024468  49.5107196  45.8038982  10.2894630
  49.2447649  45.9989057  11.7670001  47.7357663  38.0938460  26.0247286
  47.0598300  37.9932589  26.6949662  48.5585297  37.9377673  26.4883284
  39.4836522  44.3310396  18.6459802  40.0689959  43.5854084  18.7787706
  39.2861361  44.6414353  19.5296466  42.3375177  47.3661644  13.6622244
  41.6685553  47.8507771  13.1786284  42.1988047  47.6130864  14.5765623
  46.4780446  49.4005387  20.2604902  47.0298754  49.5637009  21.0253988
  46.8186639  49.9909825  19.5884927  41.4544939  31.7480537  20.8626787
  41.5186266  32.6095368  20.4504185  41.3912059  31.1354539  20.1299146
  40.9297212  33.8203669  24.5099821  41.5569251  33.4380747  25.1237346
  40.0725131  33.6017871  24.8755514  51.3291320  44.2266645  26.1153557
  51.8731224  44.8396603  25.6208512  50.7478165  44.7846223  26.6320570
  49.6148833  47.3487363  17.2468585  49.4899973  46.5477102  16.7379530
  50.2727924  47.8433556  16.7582555  51.6783742  45.1496383  18.8748135
  50.7314077  45.0301734  18.8026461  52.0266515  44.2618881  18.9574396
  44.0383315  31.0390522  22.6986377  44.5617717  31.2852818  23.4612686
  43.8195648  31.8710556  22.2789514  48.6830175  44.9449099  15.0752487
  48.5355137  44.0165806  15.2560057  49.5083668  44.9669190  14.5909562
  52.2864297  45.7677658  16.1617360  53.2110844  45.5620519  16.0241811
  52.1179600  45.5194059  17.0706701  45.2435860  31.9804217  20.3836047
  44.9032680  31.1812030  20.7856727  44.5374866  32.2805928  19.8112880
  45.8952332  29.0653529  18.8363370  46.7178401  28.5914007  18.7142260
  46.1390395  29.8444013  19.3362056  43.4190911  35.7572650  16.6455349
  43.2735491  36.0712953  17.5379630  42.9416114  36.3757550  16.0926247
  45.2787293  32.7475198  16.6936238  45.2648862  31.8516291  16.3568536
  45.9959722  32.7545862  17.3274524  47.1313424  33.1812538  18.7389366
  46.8731202  34.1029609  18.7373696  46.5998465  32.7842973  19.4289830
  52.0759613  46.2863325  11.5179451  52.2496490  45.7209748  10.7653304
  52.5688504  47.0864220  11.3358941  37.8936573  38.2977994  19.5843010
  37.3490041  39.0737802  19.7163284  38.7715923  38.6448799  19.4262131
  57.9299004  39.0499748  13.1369751  58.3730150  38.3007073  12.7388874
  57.0525514  39.0409884  12.7543483  53.0634785  45.6030090   8.6176349
  53.7585690  46.2236782   8.8363664  53.4057936  44.7525441   8.8928727
  38.6802595  37.4247890  22.4773167  37.9384331  37.5730526  23.0637797
  38.3595339  37.6856156  21.6139916  54.9626209  43.0529795  10.1463680
  55.4877533  43.3917068   9.4213000  54.8748561  42.1176810   9.9626815
  46.6246257  46.9663869  22.2753557  46.9333384  46.7213015  23.1476256
  47.4221739  47.1710507  21.7872427  46.6466869  49.1201778  14.5058933
  46.2071860  48.6278157  15.1991790  47.3974986  48.5774746  14.2651009
  39.1259208  45.3113319  14.5083561  39.9517228  45.0117091  14.1282205
  38.7753260  44.5420942  14.9573350  44.0940741  44.6639787  16.5781235
  43.4720751  44.0010492  16.2783463  44.7645608  44.6900919  15.8954883
  37.3267813  43.2299646  15.4672495  36.4899722  42.8021820  15.2856496
  37.2991459  43.4232089  16.4043286  44.1665269  33.1421575  26.1713741
  44.2153424  34.0183698  25.7891511  44.7087783  32.5998969  25.5985384
  54.6520115  43.6862699  25.4514878  53.8615658  43.6686838  24.9119378
  54.4153469  44.2250992  26.2063915  54.7717990  40.5355165  22.7647607
  54.8215995  40.3705173  23.7063129  54.6631913  39.6682424  22.3745487
  52.0621752  36.5186093  24.0806913  52.9631615  36.3792558  23.7890911
  52.1369727  36.6840548  25.0205091  46.3964557  33.8952948  22.9260100
  45.5267867  34.1886514  22.6542688  46.6324038  34.4793393  23.6467363
  56.2736187  42.9552107  23.0089628  55.9820995  43.3182087  23.8453089
  55.6608318  42.2419115  22.8302960  57.4731869  40.5204986  15.5292198
  58.3078760  40.9594790  15.6929759  57.6090998  40.0443640  14.7100444
  54.5223375  38.0784721  21.4769686  54.9977496  38.2712368  20.6688538
  53.5988940  38.1343907  21.2313070  49.1003591  30.1132565  20.4425520
  49.6185535  30.8493592  20.1172009  48.7458724  30.4196558  21.2772279
  53.2225044  34.9550481  19.7097992  54.1742467  35.0548579  19.7310216
  53.0528494  34.1628750  20.2196076  51.2439423  32.0406065  19.8957393
  50.6489355  32.3211077  19.2003881  50.9589120  32.5299965  20.6674134
  50.3746914  45.9928991   8.6560025  51.3077587  45.9274553   8.8592901
  50.2870127  46.8285258   8.1974558  53.0034930  45.3094862   5.6163973
  52.9248562  44.9754725   6.5099731  53.8244597  45.8016630   5.6155445
  55.7013122  38.1756601  18.8240291  55.6689442  37.2372602  19.0099975
  56.3113745  38.2540638  18.0906116  55.8507610  34.9667644  18.8698575
  55.3346659  34.1826101  18.6828503  56.7347559  34.6386361  19.0345094
  53.5118337  28.7108660  14.8294387  53.3143158  28.4023748  15.7137719
  54.1218043  29.4370299  14.9592317  61.5189671  39.2372608  17.9646328
  62.2493060  38.9757896  18.5254032  60.9096617  38.5001330  18.0048396
  59.6004969  37.3780470  18.5620779  58.8738132  37.2436435  17.9537271
  59.1852255  37.6857299  19.3677497  47.4235145  41.0970400  26.3268152
  48.3438154  41.2748999  26.5208199  47.3884728  40.1526445  26.1747852
  40.4197217  39.0071435  18.9690934  40.6383227  39.9388543  18.9878967
  40.8322991  38.6479409  19.7545737  45.2925083  34.5804641  28.3593683
  45.1921810  35.5298997  28.2905774  45.0746625  34.2522879  27.4869753
  36.5105570  39.9111905  17.2214549  35.8169041  39.4965858  16.7084503
  37.2578561  39.9532442  16.6247968  45.1556353  38.0101779  27.1758744
  44.6723435  38.8102139  27.3822633  45.2417292  38.0209724  26.2226188
  41.0829690  41.9006314  19.2127178  42.0372944  41.8690256  19.1457110
  40.8842214  41.4396938  20.0277404  41.6729072  40.4707430  21.7797976
  42.4921961  40.9651509  21.8032813  41.9465880  39.5539398  21.7515543
  54.7810205  32.8864703  14.8580270  55.5570595  33.3761156  15.1304887
  54.0558339  33.3122758  15.3152140  57.2182763  33.5992323  15.9154211
  57.8127254  33.3588059  15.2047519  57.2909347  32.8799453  16.5427747
  39.4379919  47.4425934  16.2297376  39.3034387  46.6826334  15.6635374
  39.0211981  48.1666833  15.7626165  51.4036692  38.3772718  11.3576221
  51.3471894  38.8341270  10.5183854  51.9565035  37.6163403  11.1799064
  55.2141498  34.1662450  12.1826341  54.9578433  33.7659086  13.0134548
  54.5894366  34.8806244  12.0576480  59.5253836  36.9058523  14.6897632
  58.9653394  36.9751713  15.4629194  58.9197340  36.7299508  13.9697128
  42.5949045  48.3395251  16.4415818  42.4781429  49.2840683  16.3394509
  41.7741491  48.0368812  16.8301618  52.4825580  43.0645386   7.2872411
  53.3171183  42.6326585   7.1049886  52.3209922  42.8927400   8.2149306
  36.9263987  34.8045564  22.4790173  37.5722850  34.2944518  22.9677398
  36.7181138  35.5414246  23.0533598  49.4517379  41.8726411  27.9782313
  50.3208539  42.0467064  27.6168948  48.9724130  42.6920828  27.8558043
  43.6203559  48.9923512  19.6571747  44.5230806  49.0247123  19.9738242
  43.3940929  48.0623963  19.6718083  45.3757161  47.7454499  16.3181826
  44.4252792  47.7456361  16.2046198  45.6789647  46.9987234  15.8017860
  41.2661478  31.9513181  26.5765187  42.1292939  31.5949986  26.7868512
  40.6926888  31.6127076  27.2640591  61.1109855  53.5815037  17.3827588
  61.7488265  53.4621785  16.6790928  60.9930698  54.5295881  17.4415540
  57.9199561  53.5342466  17.3189113  57.5818072  53.4183530  16.4309647
  58.7889329  53.1333631  17.2990119  53.7786377  55.3877942  13.3086004
  53.2151242  55.2967879  12.5402291  53.6638772  54.5677846  13.7888496
  58.4019344  54.6877317  23.2775318  58.3907985  54.2930116  22.4055822
  58.5639983  53.9543390  23.8709090  51.3250809  56.8829134  16.1470224
  52.1172100  56.5419958  15.7316523  51.5647459  56.9924109  17.0672377
  59.3585935  59.0548910   8.6200468  58.7073915  59.6402990   8.2334482
  60.1530298  59.5855105   8.6795506  53.2841562  56.1438047   9.0187603
  54.0572438  55.5967034   8.8800479  53.6366961  57.0082296   9.2302064
  55.1226605  57.4714429  22.2254502  54.8316471  58.3760060  22.1101168
  55.7583589  57.5130957  22.9398572  56.0482812  54.8491278  18.8155862
  56.6446384  54.6247300  18.1012825  56.1057783  54.1076023  19.4181310
  55.6207840  52.3030713   6.6506053  55.8733361  51.7812234   5.8889516
  54.6832399  52.1396858   6.7532736  60.6651123  51.3066491  14.4580796
  61.4514212  50.8885914  14.1071213  60.9289827  52.2112583  14.6262444
  60.8361200  56.7439342   9.1569453  60.2007033  56.8173968   9.8690357
  60.5058607  57.3332940   8.4788532  66.0659550  51.2441724  15.3613774
  66.7984722  50.6740941  15.5951604  65.3098906  50.8563325  15.8020280
  55.3404129  54.2058819   8.8530428  55.2240387  53.5303722   9.5211512
  55.4506389  53.7191193   8.0362581  57.6835670  53.6668966  12.5577117
  57.3193877  53.1399587  13.2690038  58.5402786  53.2767435  12.3843602
  63.5884971  44.9563299  19.8208383  63.2568295  45.8258710  19.5969598
  62.9930584  44.6399583  20.5002413  57.3241157  48.6958866   7.5538465
  57.4915559  49.5639102   7.9208937  57.1338326  48.8586147   6.6299755
  60.0816490  57.1575845  19.2204296  59.7817213  58.0600883  19.1120103
  59.7367550  56.8908028  20.0725449  53.5328972  53.6089641  15.2541000
  52.6079468  53.4765856  15.4618692  53.7813385  54.3883861  15.7510943
  63.4813634  49.6758385  16.9001733  62.5730511  49.6073793  16.6060494
  63.4301230  50.1530330  17.7283559  57.3030378  51.1516523   8.5385132
  57.1830003  51.5973574   9.3770613  56.6082966  51.5001841   7.9798670
  50.8937783  53.2522915  16.0884789  51.0230164  53.5057394  17.0024201
  50.2135234  53.8450623  15.7689444  55.0637270  63.9220165  12.1875264
  54.9861300  64.8727990  12.2663744  54.4598914  63.5766037  12.8450190
  57.5554500  51.0948030  24.8436630  56.7787834  51.6541950  24.8339495
  58.1945063  51.5804813  25.3651501  65.3475280  47.8774823  18.6779607
  64.7049661  48.1707356  18.0319402  64.8430209  47.7627743  19.4832804
  63.0015444  51.6237996   9.3665466  63.9133300  51.8565383   9.1913164
  62.4925091  52.2075041   8.8040545  55.8100872  53.9033484  24.4054597
  56.5515556  54.4418528  24.1289421  55.1037857  54.5299772  24.5626149
  61.2856212  56.0462624  23.0026759  61.6939568  55.6045035  22.2581391
  60.5633473  55.4715252  23.2560952  57.6387282  50.9835231  20.3760316
  58.4848477  51.4074644  20.5194965  57.5785919  50.3268855  21.0698879
  61.6085026  56.6063815  16.7579048  60.9793889  56.7709529  16.0555116
  61.2210688  57.0205424  17.5290012  65.4874258  57.5418253  14.1123412
  64.8025296  57.9217154  13.5620445  65.5718107  58.1513579  14.8455359
  60.7886727  48.6439599  22.0341489  60.5447659  49.3981660  21.4975765
  61.0646658  49.0224947  22.8688737  62.7425190  55.1878212  20.7118755
  62.9542085  55.8309972  20.0353136  62.6954938  54.3540528  20.2440685
  60.3451419  47.7996032  17.6155327  59.4835898  48.0977286  17.9072065
  60.3713853  48.0166431  16.6836360  57.1612988  56.3438223  14.0229133
  57.6251334  56.6225926  13.2333755  56.8969786  55.4421667  13.8402224
  54.0537069  55.8909704  16.9608896  54.6238426  56.3196973  16.3226381
  54.6445181  55.6092289  17.6593082  56.0981874  52.4661375  10.8318698
  56.8005918  52.9182419  11.2992624  55.7662503  51.8245194  11.4598591
  54.5462236  51.0573132  25.2069907  53.9160896  51.7389413  25.4405304
  54.4398324  50.9456213  24.2623046  49.8407208  50.7244928  16.1335832
  49.0506262  50.9802456  15.6575942  50.3318456  51.5393266  16.2387872
  63.8571018  58.0650167  18.8841112  64.6788461  57.6630354  18.6023794
  63.8533421  57.9618401  19.8357228  51.7921954  51.0889507  13.0919308
  50.9953117  51.2008201  13.6102804  51.5647546  51.4276159  12.2260199
  57.6227621  57.6134210  21.0401823  57.6872054  58.0754618  21.8759995
  56.9138545  56.9831575  21.1684133  48.1244911  50.9775418  18.5650822
  48.3752950  51.8622428  18.8308398  48.6604460  50.7980020  17.7925914
  71.9477011  54.4088916  15.2326084  71.1940719  53.8396314  15.0770088
  72.0824552  54.3751580  16.1796719  57.3375639  59.2802318  10.9080803
  57.2021314  60.1253854  11.3365651  57.8785451  59.4821596  10.1446737
  53.8242978  45.3593898  27.5695158  53.4309924  44.8060096  28.2442803
  54.6409119  45.6704476  27.9601676  50.7905036  56.7977756  11.4808728
  51.3029557  57.5921006  11.6314293  51.4427749  56.1004046  11.4142330
  52.5999921  59.9143512  13.5631482  52.7766549  60.8361477  13.3752465
  53.3956754  59.6001931  13.9925861  56.7410939  46.7751777  25.1615415
  57.4820653  47.3758930  25.0819877  56.9728862  46.0329415  24.6033458
  51.8852277  51.9608144  23.4393645  51.7705793  51.0593401  23.7400744
  51.0296795  52.2071841  23.0878461  58.9644115  59.9025884  25.0381145
  58.5207969  59.1162263  24.7202050  59.6261329  60.0905035  24.3725036
  53.7231236  61.4321686  19.5641824  54.2738662  61.3038749  18.7918818
  52.8842712  61.7316575  19.2136717  61.0625353  60.1828684  23.0662547
  61.0443829  61.0037565  22.5742816  61.9845273  60.0582760  23.2912688
  57.5198407  57.6972814  23.9086055  58.0526744  56.9361102  23.6785363
  56.9912489  57.4046466  24.6510209  60.6868102  42.8032880  19.4379697
  60.3432372  43.6934521  19.3618807  61.0547065  42.6134537  18.5749282
  48.7553953  55.1266410  12.2568299  49.5929175  55.5363419  12.0402007
  48.9332221  54.1865852  12.2268493  60.6518385  52.7941491   7.9452132
  60.1365009  53.5646095   8.1840519  60.3795694  52.1206627   8.5685193
  58.2365496  47.6391192  13.0037370  57.3807092  47.2498042  12.8243009
  58.6492448  47.7183152  12.1437156  59.7664643  45.1737535  17.4028930
  59.2629438  45.1367670  16.5896735  60.0595250  46.0830278  17.4625587
  56.0107529  45.2576265  16.4095112  56.8760525  45.0619073  16.0501001
  56.0785038  45.0286616  17.3364468  65.6252659  55.5473846   9.8805305
  64.8482102  55.2085005   9.4360467  66.3044140  55.5526469   9.2060270
  60.4404688  50.6668583   9.7711913  60.1354824  50.9814732  10.6222056
  61.3935130  50.7450003   9.8139246  58.8851120  56.8258806  11.4204867
  58.3572482  56.0911566  11.1078104  58.3838623  57.6033483  11.1744835
  63.8643966  55.0207827  16.5371913  63.2067641  55.7107088  16.6252042
  64.6684365  55.4104259  16.8805900  53.6169848  47.4878473  13.7811478
  54.1913600  47.2653654  13.0484671  54.2040830  47.5567167  14.5340080
  62.6749425  53.3752199  14.5875855  63.1881307  54.0082191  15.0897565
  63.3250649  52.7753395  14.2219215  53.9439435  49.5182934   7.8007364
  53.1076747  49.8557620   8.1216638  53.8044205  49.3831913   6.8634501
  55.9192515  44.3619721  12.5086548  55.2656928  44.0468739  11.8843163
  55.8772990  43.7395462  13.2346371  57.0303720  54.6439017   4.4239840
  56.1230782  54.4128270   4.6230989  57.5274752  53.8476636   4.6113822
  59.9371799  63.3536524   7.3436526  59.2633498  63.6568220   7.9521484
  60.3237621  64.1565604   6.9941983  59.1530256  50.8501655  16.8334196
  58.2352817  51.0716602  16.6755884  59.5690399  50.9247965  15.9745903
  59.9365304  52.2493071  11.9636876  60.6837123  52.7614468  11.6543998
  60.2056893  51.9277123  12.8241269  58.2091954  54.7451611   8.9463830
  57.3003173  54.4610644   9.0436300  58.2387038  55.1650690   8.0867137
  63.4411221  58.3558201  12.7154998  62.9873548  57.5149111  12.7720188
  62.8105188  58.9919599  13.0529778  62.3844141  49.2850187  13.9455665
  61.6466898  48.7727573  14.2765908  62.6370914  48.8450569  13.1338942
  61.8844160  60.1934698  13.6504816  62.1767135  60.7539755  12.9317181
  62.3942781  60.4863259  14.4057975  62.4855768  42.0626439  14.5397434
  62.7914645  41.2023802  14.2523349  63.2108373  42.6544059  14.3396428
  48.7780124  52.4657126  12.9279032  48.5804524  51.8726486  12.2030099
  48.2226788  52.1609336  13.6454971  56.7576848  52.3580232  15.0473625
  56.8125458  51.4054068  14.9716102  55.9468050  52.5139671  15.5314924
  57.9068042  56.2860355   6.2851909  57.4687471  55.5696214   5.8257546
  58.6478482  56.5136470   5.7237000  54.6969208  50.9757292  12.8064004
  53.8837073  51.2751462  13.2129196  55.1928202  50.5812981  13.5238487
  56.8477786  60.9715049  14.7398269  56.8053964  61.1975895  13.8106801
  57.7640484  60.7378423  14.8884070  60.2943419  51.4399116  21.6378898
  60.6492807  51.6670589  22.4973364  60.9415551  51.7717493  21.0156154
  66.0241156  54.5617552  12.3428227  65.8859055  54.7519148  11.4149416
  65.6677375  55.3236935  12.7996278  54.1883282  48.5475647  18.4225239
  54.8282662  48.4064406  17.7248203  53.3560813  48.2610161  18.0463841
  66.0510536  56.6294079  17.3539499  66.4847043  56.5369368  18.2022553
  66.7642117  56.6051580  16.7159515  54.9643586  57.8478078  14.5360232
  55.7584185  57.3528398  14.3342807  54.2535279  57.3195941  14.1727937
  59.7838431  60.2296173  18.8872599  59.8375453  60.7987110  19.6550315
  58.9153212  60.3998058  18.5226636  51.2726350  51.9921159  10.6119984
  50.3423938  51.9305615  10.8289947  51.3683822  51.4697112   9.8156626
  51.1911899  48.5175972  13.1998226  51.4518716  49.4321306  13.0907387
  52.0129071  48.0500415  13.3494839  52.6636824  49.9313729  20.3697051
  53.3359878  49.7231092  19.7209700  51.8366611  49.7335815  19.9302283
  66.9126086  56.6717780  19.8872384  67.1061976  57.5763590  20.1331659
  66.8126704  56.2125199  20.7210969  58.5662396  46.5575670  22.3862711
  57.9190311  47.2565620  22.2927188  59.3363412  46.9911814  22.7538960
  61.9741194  56.8224523  25.4613265  61.8226701  56.5935074  24.5443348
  61.9645874  57.7795124  25.4744610  58.7426531  54.3956435  20.4459531
  59.6718591  54.5467595  20.2728499  58.3217561  54.4840456  19.5908178
  57.5414862  58.4207100  18.2158069  57.4025948  58.0525884  19.0884007
  56.7529459  58.9354739  18.0442027  58.1363014  63.5216196   9.5583605
  58.3114770  63.0504239  10.3729228  57.4495802  64.1481962   9.7864866
  59.0920078  57.7988702  15.6046907  58.7569910  57.7589472  16.5004557
  58.5924023  57.1333418  15.1317317  53.0664321  53.2056332  21.1299488
  52.9284119  52.4736571  21.7311027  53.9769245  53.1165233  20.8483676
  62.0279269  55.1444737   5.8783966  61.4108440  54.4191565   5.7817019
  61.5595758  55.9054097   5.5351041  55.6946622  52.9176292  20.6183167
  56.4046241  52.2769484  20.5769786  55.6515930  53.1689187  21.5409348
  63.6833401  59.8543645  23.5389747  63.6245947  59.1702865  22.8720330
  64.0852919  60.5962635  23.0870373  54.4075556  49.9041510  22.4378807
  53.8712913  49.4532248  23.0900403  53.8192265  50.0387418  21.6949271
  52.7024100  66.6705559  16.3323466  52.9420698  67.3024083  17.0102484
  51.8593296  66.3193599  16.6188825  53.8177815  49.3630161   5.0005271
  52.9407281  49.2418962   4.6367517  54.2935568  48.5716239   4.7484159
  63.6850808  57.8183229  21.7703726  62.7977587  57.4809151  21.8930125
  64.2549359  57.0866260  22.0072492  45.3379955  54.1507321  15.0946778
  46.0250995  53.8369051  14.5067793  45.1828084  55.0548685  14.8214029
  50.1414677  49.0397517  19.5231801  50.0572866  48.4323187  18.7882211
  49.3197384  49.5306536  19.5241298  57.2151962  62.4784681  18.7364970
  57.1422133  63.2839653  19.2484274  56.7729355  62.6776647  17.9112991
  57.0041741  61.7156451  12.2467791  56.2209263  62.2578132  12.3406016
  57.7034486  62.2330431  12.6462032  60.3138391  47.5251081  14.8901996
  60.8107091  46.7721043  14.5703067  59.5425373  47.5615397  14.3245206
  68.1668149  53.2291446  16.5320288  68.1558025  54.1116162  16.1614221
  67.2985528  52.8762997  16.3374825  59.6750645  62.3771515  20.8923128
  60.3878617  63.0118980  20.8199030  59.1840674  62.4735381  20.0763130
  61.3968172  56.2822768  12.4640420  60.4624451  56.4024231  12.2945124
  61.5744840  55.3795235  12.2000430  56.8973360  49.6668464  14.6173681
  56.5271148  49.1139504  15.3054587  57.3932452  49.0626597  14.0648681
  64.7840723  52.1240087  12.9990454  65.2501175  52.9568079  12.9250757
  65.2348224  51.6585069  13.7035712  54.7262559  60.1265959  21.7128699
  55.4272018  60.7602442  21.8658093  54.2557674  60.4680690  20.9524338
  62.8516954  58.4683909   9.9976606  63.1276798  58.3540503  10.9070480
  61.9821453  58.0701393   9.9588779  62.7557386  44.4920674  17.0381355
  61.8420466  44.7224901  17.2063562  63.1850487  44.5759118  17.8895388
  62.5263845  52.6810566  19.5381249  61.8735295  52.9286474  18.8833702
  62.9044224  51.8674704  19.2043727  59.4871018  62.7170259  13.6409420
  59.6693413  61.8991915  14.1037172  60.3104004  62.9337952  13.2034310
  59.8213184  61.6438445  10.9024468  60.3500950  61.1330899  10.2894630
  60.0841403  61.3280975  11.7670001  58.5751418  53.4230377  26.0247286
  57.8992055  53.3224507  26.6949662  59.3979051  53.2669591  26.4883284
  50.3230277  59.6602314  18.6459802  50.9083713  58.9146002  18.7787706
  50.1255115  59.9706271  19.5296466  53.1768932  62.6953561  13.6622244
  52.5079307  63.1799689  13.1786284  53.0381802  62.9422782  14.5765623
  44.9147931  52.2307914  17.3664245  44.9532031  51.6971505  18.1601363
  44.4088224  51.7043120  16.7475222  57.3174200  64.7297305  20.2604902
  57.8692508  64.8928926  21.0253988  57.6580394  65.3201743  19.5884927
  52.2938694  47.0772455  20.8626787  52.3580020  47.9387286  20.4504185
  52.2305814  46.4646456  20.1299146  51.7690966  49.1495587  24.5099821
  52.3963005  48.7672664  25.1237346  50.9118885  48.9309789  24.8755514
  62.1685075  59.5558562  26.1153557  62.7124979  60.1688521  25.6208512
  61.5871920  60.1138141  26.6320570  48.5456509  50.9572016  10.4418176
  48.8409950  50.0482695  10.3885230  47.6444545  50.9359756  10.1199179
  60.4542588  62.6779280  17.2468585  60.3293727  61.8769020  16.7379530
  61.1121679  63.1725474  16.7582555  52.0750756  49.0328013  16.4245725
  51.3537342  49.6463981  16.2853198  52.8644012  49.5685778  16.3462371
  62.5177496  60.4788300  18.8748135  61.5707832  60.3593652  18.8026461
  62.8660269  59.5910798  18.9574396  54.8777069  46.3682439  22.6986377
  55.4011471  46.6144736  23.4612686  54.6589403  47.2002474  22.2789514
  50.2744351  48.6386114  10.5657501  49.9457057  47.7583493  10.3832607
  50.6283721  48.5833783  11.4533891  59.5223929  60.2741017  15.0752487
  59.3748892  59.3457724  15.2560057  60.3477423  60.2961107  14.5909562
  53.3886174  48.9259084  10.9332979  53.7282246  49.4545005  10.2111587
  53.8358294  49.2639490  11.7091546  63.1258051  61.0969575  16.1617360
  64.0504599  60.8912437  16.0241811  62.9573355  60.8485977  17.0706701
  56.0829615  47.3096134  20.3836047  55.7426435  46.5103948  20.7856727
  55.3768621  47.6097845  19.8112880  56.7346086  44.3945447  18.8363370
  57.5572156  43.9205925  18.7142260  56.9784150  45.1735931  19.3362056
  55.3754321  47.4233705   9.1326272  56.0962683  47.8014958   8.6289989
  54.7519625  48.1422582   9.2361250  59.5185444  48.1278854  10.0684604
  59.7349058  49.0103492   9.7673432  59.0379511  47.7365068   9.3390246
  54.2584665  51.0864568  16.6455349  54.1129246  51.4004871  17.5379630
  53.7809869  51.7049468  16.0926247  56.1181048  48.0767115  16.6936238
  56.1042617  47.1808209  16.3568536  56.8353476  48.0837779  17.3274524
  57.9707179  48.5104456  18.7389366  57.7124957  49.4321526  18.7373696
  57.4392219  48.1134890  19.4289830  62.9153367  61.6155243  11.5179451
  63.0890245  61.0501665  10.7653304  63.4082259  62.4156138  11.3358941
  48.7330327  53.6269912  19.5843010  48.1883795  54.4029720  19.7163284
  49.6109677  53.9740716  19.4262131  55.5217944  46.9581496  11.9623808
  55.6433855  46.0298142  12.1614696  55.2319986  46.9720182  11.0502124
  58.3909134  44.6436406  15.0990528  58.4130831  44.7075739  14.1442508
  58.8077193  43.8040915  15.2931034  68.7692759  54.3791666  13.1369751
  69.2123905  53.6298991  12.7388874  67.8919269  54.3701802  12.7543483
  63.9028540  60.9322007   8.6176349  64.5979445  61.5528700   8.8363664
  64.2451690  60.0817358   8.8928727  49.5196349  52.7539808  22.4773167
  48.7778085  52.9022444  23.0637797  49.1989093  53.0148074  21.6139916
  65.8019963  58.3821713  10.1463680  66.3271287  58.7208986   9.4213000
  65.7142316  57.4468728   9.9626815  57.4640012  62.2955786  22.2753557
  57.7727138  62.0504933  23.1476256  58.2615494  62.5002425  21.7872427
  57.4860624  64.4493696  14.5058933  57.0465614  63.9570075  15.1991790
  58.2368741  63.9066664  14.2651009  49.9652963  60.6405237  14.5083561
  50.7910983  60.3409009  14.1282205  49.6147015  59.8712859  14.9573350
  54.9334496  59.9931705  16.5781235  54.3114505  59.3302410  16.2783463
  55.6039363  60.0192837  15.8954883  48.1661568  58.5591563  15.4672495
  47.3293476  58.1313738  15.2856496  48.1385213  58.7524007  16.4043286
  55.0059023  48.4713493  26.1713741  55.0547179  49.3475616  25.7891511
  55.5481538  47.9290886  25.5985384  65.4913869  59.0154616  25.4514878
  64.7009413  58.9978755  24.9119378  65.2547224  59.5542910  26.2063915
  65.6111744  55.8647083  22.7647607  65.6609749  55.6997090  23.7063129
  65.5025668  54.9974342  22.3745487  54.4948003  58.5435628  10.0539696
  54.6436123  59.2271093   9.4006368  55.3014446  58.5240719  10.5689151
  62.9015507  51.8478011  24.0806913  63.8025369  51.7084476  23.7890911
  62.9763481  52.0132466  25.0205091  57.2358312  49.2244866  22.9260100
  56.3661621  49.5178432  22.6542688  57.4717792  49.8085311  23.6467363
  67.1129941  58.2844024  23.0089628  66.8214749  58.6474005  23.8453089
  66.5002072  57.5711033  22.8302960  68.3125623  55.8496904  15.5292198
  69.1472515  56.2886708  15.6929759  68.4484752  55.3735557  14.7100444
  65.3617129  53.4076639  21.4769686  65.8371251  53.6004285  20.6688538
  64.4382695  53.4635825  21.2313070  52.2500636  54.5700806  11.0600764
  52.0046678  53.6663136  11.2580975  52.4196550  54.5717957  10.1180242
  59.9397346  45.4424482  20.4425520  60.4579290  46.1785509  20.1172009
  59.5852478  45.7488476  21.2772279  51.5196283  50.3029164   8.5586926
  50.8265528  50.3773519   7.9026962  51.2748035  49.5389507   9.0808443
  60.1909940  41.8624765  15.9626417  60.4711694  41.1947954  16.5886843
  60.9760547  42.0553861  15.4501080  57.9943408  61.0383759   7.5251443
  57.4217375  61.6573946   7.0721915  58.5676202  61.5883121   8.0591365
  64.0618798  50.2842399  19.7097992  65.0136221  50.3840497  19.7310216
  63.8922249  49.4920668  20.2196076  62.0833178  47.3697982  19.8957393
  61.4883110  47.6502995  19.2003881  61.7982874  47.8591883  20.6674134
  61.2140668  61.3220909   8.6560025  62.1471341  61.2566471   8.8592901
  61.1263881  62.1577176   8.1974558  63.8428685  60.6386779   5.6163973
  63.7642316  60.3046643   6.5099731  64.6638352  61.1308547   5.6155445
  66.5406876  53.5048519  18.8240291  66.5083196  52.5664519  19.0099975
  67.1507500  53.5832555  18.0906116  58.3790207  52.3744572   4.8667495
  59.3249312  52.2450780   4.9355914  58.0004452  51.6359234   5.3436924
  66.6901365  50.2959562  18.8698575  66.1740413  49.5118019  18.6828503
  67.5741313  49.9678279  19.0345094  64.3512091  44.0400578  14.8294387
  64.1536913  43.7315666  15.7137719  64.9611797  44.7662217  14.9592317
  72.3583426  54.5664526  17.9646328  73.0886814  54.3049814  18.5254032
  71.7490371  53.8293247  18.0048396  70.4398723  52.7072388  18.5620779
  69.7131887  52.5728353  17.9537271  70.0246010  53.0149217  19.3677497
  58.2628899  56.4262318  26.3268152  59.1831909  56.6040917  26.5208199
  58.2278482  55.4818363  26.1747852  56.5633124  50.2994548   4.8022381
  55.6564579  50.0027661   4.8785094  56.8409105  50.0024366   3.9356667
  47.4811064  51.6200911  15.2521427  47.1613849  50.7666220  14.9595801
  46.9344493  51.8349490  16.0079394  51.2590972  54.3363352  18.9690934
  51.4776982  55.2680460  18.9878967  51.6716746  53.9771327  19.7545737
  58.1795190  44.8431438  10.9566622  57.3695918  44.4978523  11.3321868
  58.8679607  44.5338981  11.5454234  60.1085738  43.9209485  12.5790919
  60.6616777  44.3404938  13.2380942  60.3455824  42.9945233  12.6213875
  56.1318837  49.9096558  28.3593683  56.0315564  50.8590915  28.2905774
  55.9140379  49.5814797  27.4869753  55.3331909  47.1581483   4.9434360
  56.1951073  47.4836382   5.2030177  55.5182253  46.3712979   4.4307426
  47.3499324  55.2403823  17.2214549  46.6562796  54.8257776  16.7084503
  48.0972315  55.2824359  16.6247968  63.4864545  46.0310010  12.0869583
  62.9063214  46.6894814  11.7047635  63.2200478  45.2087354  11.6757000
  61.9368112  45.4315067  14.2890903  62.4367890  45.5431602  13.4805222
  62.5803719  45.1276120  14.9291712  55.9950107  53.3393697  27.1758744
  55.5117189  54.1394057  27.3822633  56.0811046  53.3501642  26.2226188
  49.2636067  55.1722077  15.0980564  49.2406755  55.2709764  14.1462447
  49.5736703  56.0187228  15.4197730  51.9223445  57.2298232  19.2127178
  52.8766698  57.1982174  19.1457110  51.7235968  56.7688855  20.0277404
  52.5122827  55.7999348  21.7797976  53.3315716  56.2943426  21.8032813
  52.7859635  54.8831316  21.7515543  62.2689423  48.1910100  11.1425931
  61.3815278  48.4759751  10.9246126  62.6843412  48.0303863  10.2953208
  65.6203959  48.2156621  14.8580270  66.3964349  48.7053074  15.1304887
  64.8952093  48.6414675  15.3152140  68.0576518  48.9284240  15.9154211
  68.6521009  48.6879976  15.2047519  68.1303102  48.2091371  16.5427747
  50.2773674  62.7717851  16.2297376  50.1428142  62.0118252  15.6635374
  49.8605736  63.4958751  15.7626165  61.4132637  57.9554775   5.2373951
  62.1168487  58.1604777   5.8531607  60.6895285  58.5231537   5.5023035
  62.2430447  53.7064636  11.3576221  62.1865648  54.1633187  10.5183854
  62.7958789  52.9455321  11.1799064  66.0535253  49.4954368  12.1826341
  65.7972187  49.0951004  13.0134548  65.4288121  50.2098162  12.0576480
  70.3647591  52.2350441  14.6897632  69.8047149  52.3043630  15.4629194
  69.7591094  52.0591426  13.9697128  53.4342799  63.6687168  16.4415818
  53.3175184  64.6132601  16.3394509  52.6135246  63.3660730  16.8301618
  63.3219334  58.3937304   7.2872411  64.1564938  57.9618502   7.1049886
  63.1603677  58.2219318   8.2149306  62.9765226  54.8969417   8.6528751
  62.9214030  54.7313689   7.7117195  62.3511281  55.6045450   8.8090940
  47.7657741  50.1337482  22.4790173  48.4116605  49.6236436  22.9677398
  47.5574892  50.8706163  23.0533598  60.2911133  57.2018329  27.9782313
  61.1602293  57.3758981  27.6168948  59.8117885  58.0212746  27.8558043
  56.2861352  44.3977526   8.2314069  56.2740021  45.3419366   8.3882340
  57.1784774  44.2147672   7.9373530  54.4597314  64.3215430  19.6571747
  55.3624560  64.3539040  19.9738242  54.2334684  63.3915881  19.6718083
  56.2150916  63.0746417  16.3181826  55.2646547  63.0748278  16.2046198
  56.5183402  62.3279151  15.8017860  60.1013471  40.9920303  12.4860006
  59.3345867  40.4378790  12.6316688  60.5124176  41.0642172  13.3474157
  52.1055232  47.2805099  26.5765187  52.9686694  46.9241904  26.7868512
  51.5320643  46.9418994  27.2640591  71.9503609  68.9106955  17.3827588
  72.5882019  68.7913702  16.6790928  71.8324452  69.8587799  17.4415540
  68.7593315  68.8634383  17.3189113  68.4211827  68.7475448  16.4309647
  69.6283084  68.4625548  17.2990119  64.6180131  70.7169860  13.3086004
  64.0544996  70.6259797  12.5402291  64.5032526  69.8969764  13.7888496
  69.2413098  70.0169235  23.2775318  69.2301739  69.6222033  22.4055822
  69.4033738  69.2835308  23.8709090  62.1644563  72.2121051  16.1470224
  62.9565855  71.8711876  15.7316523  62.4041213  72.3216026  17.0672377
  70.1979690  74.3840827   8.6200468  69.5467670  74.9694908   8.2334482
  70.9924053  74.9147022   8.6795506  64.1235317  71.4729964   9.0187603
  64.8966193  70.9258952   8.8800479  64.4760716  72.3374214   9.2302064
  65.9620360  72.8006347  22.2254502  65.6710226  73.7051978  22.1101168
  66.5977344  72.8422874  22.9398572  66.8876566  70.1783195  18.8155862
  67.4840139  69.9539218  18.1012825  66.9451538  69.4367941  19.4181310
  66.4601595  67.6322631   6.6506053  66.7127115  67.1104152   5.8889516
  65.5226154  67.4688776   6.7532736  71.5044878  66.6358409  14.4580796
  72.2907967  66.2177832  14.1071213  71.7683582  67.5404501  14.6262444
  71.6754955  72.0731259   9.1569453  71.0400788  72.1465886   9.8690357
  71.3452361  72.6624858   8.4788532  76.9053305  66.5733642  15.3613774
  77.6378477  66.0032859  15.5951604  76.1492660  66.1855243  15.8020280
  66.1797884  69.5350737   8.8530428  66.0634142  68.8595640   9.5211512
  66.2900143  69.0483110   8.0362581  68.5229424  68.9960884  12.5577117
  68.1587632  68.4691505  13.2690038  69.3796540  68.6059353  12.3843602
  74.4278725  60.2855216  19.8208383  74.0962050  61.1550627  19.5969598
  73.8324338  59.9691500  20.5002413  68.1634911  64.0250783   7.5538465
  68.3309314  64.8931020   7.9208937  67.9732081  64.1878065   6.6299755
  70.9210245  72.4867762  19.2204296  70.6210968  73.3892801  19.1120103
  70.5761304  72.2199945  20.0725449  64.3722726  68.9381559  15.2541000
  63.4473223  68.8057773  15.4618692  64.6207139  69.7175778  15.7510943
  74.3207388  65.0050302  16.9001733  73.4124266  64.9365711  16.6060494
  74.2694984  65.4822247  17.7283559  68.1424132  66.4808441   8.5385132
  68.0223758  66.9265492   9.3770613  67.4476721  66.8293759   7.9798670
  61.7331537  68.5814833  16.0884789  61.8623918  68.8349312  17.0024201
  61.0528988  69.1742541  15.7689444  65.9031024  79.2512083  12.1875264
  65.8255054  80.2019908  12.2663744  65.2992668  78.9057955  12.8450190
  68.3948254  66.4239948  24.8436630  67.6181588  66.9833868  24.8339495
  69.0338817  66.9096731  25.3651501  76.1869035  63.2066741  18.6779607
  75.5443415  63.4999274  18.0319402  75.6823963  63.0919661  19.4832804
  73.8409198  66.9529914   9.3665466  74.7527055  67.1857301   9.1913164
  73.3318846  67.5366958   8.8040545  66.6494626  69.2325401  24.4054597
  67.3909311  69.7710445  24.1289421  65.9431612  69.8591690  24.5626149
  72.1249966  71.3754542  23.0026759  72.5333322  70.9336952  22.2581391
  71.4027228  70.8007169  23.2560952  68.4781036  66.3127149  20.3760316
  69.3242231  66.7366562  20.5194965  68.4179674  65.6560773  21.0698879
  72.4478781  71.9355732  16.7579048  71.8187643  72.1001447  16.0555116
  72.0604443  72.3497342  17.5290012  76.3268013  72.8710170  14.1123412
  75.6419051  73.2509072  13.5620445  76.4111862  73.4805497  14.8455359
  71.6280482  63.9731517  22.0341489  71.3841413  64.7273577  21.4975765
  71.9040412  64.3516865  22.8688737  73.5818944  70.5170129  20.7118755
  73.7935840  71.1601889  20.0353136  73.5348693  69.6832446  20.2440685
  71.1845173  63.1287950  17.6155327  70.3229652  63.4269204  17.9072065
  71.2107608  63.3458349  16.6836360  68.0006743  71.6730141  14.0229133
  68.4645088  71.9517844  13.2333755  67.7363541  70.7713585  13.8402224
  64.8930824  71.2201622  16.9608896  65.4632181  71.6488890  16.3226381
  65.4838936  70.9384207  17.6593082  66.9375629  67.7953293  10.8318698
  67.6399672  68.2474337  11.2992624  66.6056257  67.1537112  11.4598591
  65.3855990  66.3865050  25.2069907  64.7554651  67.0681330  25.4405304
  65.2792078  66.2748131  24.2623046  60.6800963  66.0536846  16.1335832
  59.8900017  66.3094374  15.6575942  61.1712210  66.8685183  16.2387872
  74.6964772  73.3942085  18.8841112  75.5182216  72.9922272  18.6023794
  74.6927175  73.2910319  19.8357228  62.6315708  66.4181425  13.0919308
  61.8346871  66.5300119  13.6102804  62.4041300  66.7568077  12.2260199
  68.4621376  72.9426128  21.0401823  68.5265808  73.4046535  21.8759995
  67.7532300  72.3123493  21.1684133  58.9638666  66.3067336  18.5650822
  59.2146704  67.1914346  18.8308398  59.4998214  66.1271938  17.7925914
  82.7870765  69.7380833  15.2326084  82.0334474  69.1688231  15.0770088
  82.9218306  69.7043498  16.1796719  68.1769393  74.6094236  10.9080803
  68.0415068  75.4545771  11.3365651  68.7179206  74.8113513  10.1446737
  64.6636733  60.6885815  27.5695158  64.2703679  60.1352014  28.2442803
  65.4802873  60.9996394  27.9601676  61.6298791  72.1269674  11.4808728
  62.1423311  72.9212924  11.6314293  62.2821504  71.4295964  11.4142330
  63.4393675  75.2435430  13.5631482  63.6160304  76.1653395  13.3752465
  64.2350509  74.9293849  13.9925861  67.5804694  62.1043694  25.1615415
  68.3214407  62.7050848  25.0819877  67.8122617  61.3621332  24.6033458
  62.7246032  67.2900062  23.4393645  62.6099547  66.3885319  23.7400744
  61.8690550  67.5363759  23.0878461  69.8037870  75.2317802  25.0381145
  69.3601724  74.4454181  24.7202050  70.4655083  75.4196953  24.3725036
  64.5624991  76.7613604  19.5641824  65.1132416  76.6330667  18.7918818
  63.7236467  77.0608493  19.2136717  71.9019108  75.5120602  23.0662547
  71.8837583  76.3329483  22.5742816  72.8239028  75.3874677  23.2912688
  68.3592162  73.0264731  23.9086055  68.8920499  72.2653020  23.6785363
  67.8306243  72.7338383  24.6510209  71.5261857  58.1324797  19.4379697
  71.1826126  59.0226439  19.3618807  71.8940819  57.9426455  18.5749282
  59.5947707  70.4558328  12.2568299  60.4322930  70.8655336  12.0402007
  59.7725975  69.5157770  12.2268493  71.4912140  68.1233409   7.9452132
  70.9758763  68.8938013   8.1840519  71.2189448  67.4498545   8.5685193
  69.0759251  62.9683109  13.0037370  68.2200847  62.5789960  12.8243009
  69.4886202  63.0475070  12.1437156  70.6058397  60.5029453  17.4028930
  70.1023193  60.4659588  16.5896735  70.8989004  61.4122195  17.4625587
  66.8501283  60.5868182  16.4095112  67.7154280  60.3910991  16.0501001
  66.9178792  60.3578534  17.3364468  76.4646414  70.8765763   9.8805305
  75.6875857  70.5376923   9.4360467  77.1437895  70.8818386   9.2060270
  71.2798443  65.9960501   9.7711913  70.9748578  66.3106650  10.6222056
  72.2328885  66.0741921   9.8139246  69.7244875  72.1550724  11.4204867
  69.1966236  71.4203484  11.1078104  69.2232377  72.9325400  11.1744835
  74.7037721  70.3499744  16.5371913  74.0461395  71.0399006  16.6252042
  75.5078120  70.7396176  16.8805900  64.4563602  62.8170390  13.7811478
  65.0307354  62.5945572  13.0484671  65.0434585  62.8859085  14.5340080
  73.5143179  68.7044117  14.5875855  74.0275061  69.3374109  15.0897565
  74.1644403  68.1045313  14.2219215  64.7833189  64.8474851   7.8007364
  63.9470502  65.1849538   8.1216638  64.6437959  64.7123831   6.8634501
  66.7586270  59.6911639  12.5086548  66.1050682  59.3760656  11.8843163
  66.7166744  59.0687380  13.2346371  67.8697475  69.9730934   4.4239840
  66.9624537  69.7420188   4.6230989  68.3668507  69.1768553   4.6113822
  70.7765554  78.6828441   7.3436526  70.1027252  78.9860138   7.9521484
  71.1631376  79.4857522   6.9941983  69.9924010  66.1793573  16.8334196
  69.0746572  66.4008520  16.6755884  70.4084154  66.2539883  15.9745903
  70.7759058  67.5784988  11.9636876  71.5230877  68.0906386  11.6543998
  71.0450648  67.2569041  12.8241269  69.0485708  70.0743529   8.9463830
  68.1396928  69.7902562   9.0436300  69.0780792  70.4942608   8.0867137
  74.2804976  73.6850119  12.7154998  73.8267303  72.8441028  12.7720188
  73.6498942  74.3211517  13.0529778  73.2237895  64.6142105  13.9455665
  72.4860652  64.1019491  14.2765908  73.4764669  64.1742486  13.1338942
  72.7237915  75.5226615  13.6504816  73.0160889  76.0831672  12.9317181
  73.2336535  75.8155176  14.4057975  73.3249523  57.3918357  14.5397434
  73.6308399  56.5315720  14.2523349  74.0502127  57.9835977  14.3396428
  59.6173879  67.7949043  12.9279032  59.4198278  67.2018404  12.2030099
  59.0620543  67.4901253  13.6454971  67.5970602  67.6872150  15.0473625
  67.6519212  66.7345986  14.9716102  66.7861804  67.8431589  15.5314924
  68.7461796  71.6152273   6.2851909  68.3081226  70.8988132   5.8257546
  69.4872237  71.8428388   5.7237000  65.5362962  66.3049209  12.8064004
  64.7230828  66.6043380  13.2129196  66.0321956  65.9104898  13.5238487
  67.6871540  76.3006966  14.7398269  67.6447719  76.5267813  13.8106801
  68.6034239  76.0670341  14.8884070  71.1337174  66.7691034  21.6378898
  71.4886562  66.9962507  22.4973364  71.7809305  67.1009411  21.0156154
  76.8634911  69.8909470  12.3428227  76.7252809  70.0811066  11.4149416
  76.5071130  70.6528853  12.7996278  65.0277037  63.8767565  18.4225239
  65.6676416  63.7356324  17.7248203  64.1954568  63.5902078  18.0463841
  76.8904290  71.9585997  17.3539499  77.3240797  71.8661286  18.2022553
  77.6035871  71.9343497  16.7159515  65.8037341  73.1769995  14.5360232
  66.5977939  72.6820316  14.3342807  65.0929033  72.6487858  14.1727937
  70.6232185  75.5588091  18.8872599  70.6769208  76.1279027  19.6550315
  69.7546967  75.7289976  18.5226636  62.1120104  67.3213077  10.6119984
  61.1817692  67.2597533  10.8289947  62.2077576  66.7989030   9.8156626
  62.0305653  63.8467890  13.1998226  62.2912471  64.7613223  13.0907387
  62.8522826  63.3792332  13.3494839  63.5030579  65.2605647  20.3697051
  64.1753632  65.0523009  19.7209700  62.6760365  65.0627733  19.9302283
  77.7519840  72.0009697  19.8872384  77.9455730  72.9055508  20.1331659
  77.6520458  71.5417117  20.7210969  69.4056151  61.8867588  22.3862711
  68.7584066  62.5857538  22.2927188  70.1757166  62.3203732  22.7538960
  72.8134949  72.1516440  25.4613265  72.6620455  71.9226992  24.5443348
  72.8039628  73.1087042  25.4744610  69.5820285  69.7248353  20.4459531
  70.5112345  69.8759513  20.2728499  69.1611315  69.8132374  19.5908178
  68.3808617  73.7499017  18.2158069  68.2419703  73.3817802  19.0884007
  67.5923213  74.2646657  18.0442027  68.9756769  78.8508114   9.5583605
  69.1508525  78.3796157  10.3729228  68.2889557  79.4773880   9.7864866
  69.9313832  73.1280620  15.6046907  69.5963665  73.0881390  16.5004557
  69.4317778  72.4625336  15.1317317  63.9058076  68.5348250  21.1299488
  63.7677874  67.8028489  21.7311027  64.8162999  68.4457150  20.8483676
  72.8673024  70.4736654   5.8783966  72.2502194  69.7483483   5.7817019
  72.3989512  71.2346015   5.5351041  66.5340377  68.2468209  20.6183167
  67.2439995  67.6061402  20.5769786  66.4909685  68.4981104  21.5409348
  74.5227155  75.1835563  23.5389747  74.4639701  74.4994783  22.8720330
  74.9246674  75.9254553  23.0870373  65.2469311  65.2333427  22.4378807
  64.7106668  64.7824166  23.0900403  64.6586019  65.3679336  21.6949271
  63.5417854  81.9997477  16.3323466  63.7814452  82.6316001  17.0102484
  62.6987051  81.6485517  16.6188825  64.6571570  64.6922079   5.0005271
  63.7801036  64.5710879   4.6367517  65.1329323  63.9008157   4.7484159
  74.5244563  73.1475147  21.7703726  73.6371341  72.8101068  21.8930125
  75.0943114  72.4158178  22.0072492  56.1773710  69.4799238  15.0946778
  56.8644750  69.1660968  14.5067793  56.0221838  70.3840603  14.8214029
  60.9808432  64.3689435  19.5231801  60.8966621  63.7615105  18.7882211
  60.1591138  64.8598453  19.5241298  68.0545716  77.8076599  18.7364970
  67.9815887  78.6131571  19.2484274  67.6123109  78.0068565  17.9112991
  67.8435496  77.0448369  12.2467791  67.0603018  77.5870049  12.3406016
  68.5428241  77.5622349  12.6462032  71.1532146  62.8542999  14.8901996
  71.6500845  62.1012961  14.5703067  70.3819127  62.8907315  14.3245206
  79.0061903  68.5583364  16.5320288  78.9951779  69.4408079  16.1614221
  78.1379283  68.2054915  16.3374825  70.5144400  77.7063433  20.8923128
  71.2272372  78.3410898  20.8199030  70.0234428  77.8027299  20.0763130
  72.2361926  71.6114686  12.4640420  71.3018205  71.7316148  12.2945124
  72.4138595  70.7087153  12.2000430  67.7367114  64.9960382  14.6173681
  67.3664902  64.4431422  15.3054587  68.2326207  64.3918515  14.0648681
  75.6234478  67.4532005  12.9990454  76.0894930  68.2859997  12.9250757
  76.0741978  66.9876987  13.7035712  65.5656313  75.4557877  21.7128699
  66.2665773  76.0894359  21.8658093  65.0951428  75.7972608  20.9524338
  73.6910709  73.7975826   9.9976606  73.9670553  73.6832421  10.9070480
  72.8215208  73.3993311   9.9588779  73.5951141  59.8212592  17.0381355
  72.6814220  60.0516819  17.2063562  74.0244242  59.9051036  17.8895388
  73.3657599  68.0102484  19.5381249  72.7129049  68.2578391  18.8833702
  73.7437979  67.1966622  19.2043727  70.3264773  78.0462177  13.6409420
  70.5087167  77.2283833  14.1037172  71.1497759  78.2629869  13.2034310
  70.6606938  76.9730362  10.9024468  71.1894705  76.4622817  10.2894630
  70.9235158  76.6572892  11.7670001  69.4145172  68.7522295  26.0247286
  68.7385809  68.6516424  26.6949662  70.2372806  68.5961509  26.4883284
  61.1624031  74.9894232  18.6459802  61.7477468  74.2437919  18.7787706
  60.9648870  75.2998188  19.5296466  64.0162686  78.0245479  13.6622244
  63.3473062  78.5091607  13.1786284  63.8775556  78.2714699  14.5765623
  55.7541686  67.5599832  17.3664245  55.7925785  67.0263422  18.1601363
  55.2481979  67.0335037  16.7475222  68.1567955  80.0589222  20.2604902
  68.7086263  80.2220844  21.0253988  68.4974148  80.6493660  19.5884927
  63.1332448  62.4064372  20.8626787  63.1973775  63.2679203  20.4504185
  63.0699568  61.7938374  20.1299146  62.6084721  64.4787505  24.5099821
  63.2356759  64.0964582  25.1237346  61.7512640  64.2601707  24.8755514
  73.0078829  74.8850480  26.1153557  73.5518733  75.4980438  25.6208512
  72.4265674  75.4430058  26.6320570  59.3850263  66.2863934  10.4418176
  59.6803705  65.3774612  10.3885230  58.4838299  66.2651673  10.1199179
  71.2936342  78.0071198  17.2468585  71.1687482  77.2060938  16.7379530
  71.9515433  78.5017391  16.7582555  62.9144510  64.3619931  16.4245725
  62.1931096  64.9755898  16.2853198  63.7037766  64.8977695  16.3462371
  73.3571251  75.8080218  18.8748135  72.4101586  75.6885569  18.8026461
  73.7054024  74.9202716  18.9574396  65.7170824  61.6974357  22.6986377
  66.2405226  61.9436654  23.4612686  65.4983157  62.5294392  22.2789514
  61.1138105  63.9678032  10.5657501  60.7850811  63.0875411  10.3832607
  61.4677476  63.9125700  11.4533891  70.3617684  75.6032934  15.0752487
  70.2142646  74.6749642  15.2560057  71.1871177  75.6253025  14.5909562
  64.2279928  64.2551001  10.9332979  64.5676001  64.7836923  10.2111587
  64.6752049  64.5931408  11.7091546  73.9651806  76.4261493  16.1617360
  74.8898353  76.2204354  16.0241811  73.7967109  76.1777894  17.0706701
  66.9223369  62.6388052  20.3836047  66.5820189  61.8395865  20.7856727
  66.2162375  62.9389763  19.8112880  67.5739841  59.7237365  18.8363370
  68.3965910  59.2497843  18.7142260  67.8177904  60.5027848  19.3362056
  66.2148075  62.7525623   9.1326272  66.9356438  63.1306876   8.6289989
  65.5913379  63.4714500   9.2361250  70.3579198  63.4570772  10.0684604
  70.5742813  64.3395410   9.7673432  69.8773265  63.0656985   9.3390246
  65.0978420  66.4156485  16.6455349  64.9523000  66.7296788  17.5379630
  64.6203623  67.0341386  16.0926247  66.9574802  63.4059033  16.6936238
  66.9436371  62.5100126  16.3568536  67.6747231  63.4129697  17.3274524
  68.8100933  63.8396373  18.7389366  68.5518711  64.7613444  18.7373696
  68.2785974  63.4426808  19.4289830  73.7547122  76.9447160  11.5179451
  73.9283999  76.3793583  10.7653304  74.2476013  77.7448055  11.3358941
  59.5724082  68.9561830  19.5843010  59.0277550  69.7321638  19.7163284
  60.4503432  69.3032634  19.4262131  66.3611698  62.2873413  11.9623808
  66.4827610  61.3590060  12.1614696  66.0713741  62.3012099  11.0502124
  69.2302889  59.9728324  15.0990528  69.2524586  60.0367657  14.1442508
  69.6470948  59.1332833  15.2931034  79.6086513  69.7083583  13.1369751
  80.0517659  68.9590909  12.7388874  78.7313023  69.6993720  12.7543483
  74.7422294  76.2613925   8.6176349  75.4373199  76.8820618   8.8363664
  75.0845445  75.4109276   8.8928727  60.3590104  68.0831726  22.4773167
  59.6171840  68.2314361  23.0637797  60.0382848  68.3439991  21.6139916
  76.6413718  73.7113630  10.1463680  77.1665042  74.0500903   9.4213000
  76.5536070  72.7760646   9.9626815  68.3033766  77.6247704  22.2753557
  68.6120893  77.3796851  23.1476256  69.1009248  77.8294343  21.7872427
  68.3254378  79.7785614  14.5058933  67.8859369  79.2861992  15.1991790
  69.0762495  79.2358581  14.2651009  60.8046717  75.9697155  14.5083561
  61.6304737  75.6700926  14.1282205  60.4540769  75.2004777  14.9573350
  65.7728250  75.3223623  16.5781235  65.1508260  74.6594328  16.2783463
  66.4433117  75.3484755  15.8954883  59.0055322  73.8883481  15.4672495
  58.1687231  73.4605655  15.2856496  58.9778968  74.0815924  16.4043286
  65.8452778  63.8005411  26.1713741  65.8940933  64.6767534  25.7891511
  66.3875292  63.2582804  25.5985384  76.3307624  74.3446534  25.4514878
  75.5403167  74.3270673  24.9119378  76.0940978  74.8834828  26.2063915
  76.4505499  71.1939000  22.7647607  76.5003504  71.0289008  23.7063129
  76.3419422  70.3266259  22.3745487  65.3341757  73.8727546  10.0539696
  65.4829878  74.5563011   9.4006368  66.1408201  73.8532636  10.5689151
  73.7409261  67.1769928  24.0806913  74.6419124  67.0376393  23.7890911
  73.8157236  67.3424383  25.0205091  68.0752066  64.5536783  22.9260100
  67.2055376  64.8470349  22.6542688  68.3111547  65.1377228  23.6467363
  77.9523695  73.6135942  23.0089628  77.6608504  73.9765923  23.8453089
  77.3395827  72.9002950  22.8302960  79.1519378  71.1788822  15.5292198
  79.9866269  71.6178626  15.6929759  79.2878507  70.7027475  14.7100444
  76.2010884  68.7368557  21.4769686  76.6765005  68.9296203  20.6688538
  75.2776449  68.7927742  21.2313070  63.0894390  69.8992724  11.0600764
  62.8440432  68.9955054  11.2580975  63.2590305  69.9009874  10.1180242
  70.7791100  60.7716400  20.4425520  71.2973044  61.5077427  20.1172009
  70.4246233  61.0780393  21.2772279  62.3590038  65.6321081   8.5586926
  61.6659283  65.7065436   7.9026962  62.1141790  64.8681425   9.0808443
  71.0303694  57.1916683  15.9626417  71.3105448  56.5239872  16.5886843
  71.8154301  57.3845778  15.4501080  68.8337163  76.3675677   7.5251443
  68.2611130  76.9865864   7.0721915  69.4069957  76.9175038   8.0591365
  74.9012553  65.6134317  19.7097992  75.8529976  65.7132414  19.7310216
  74.7316003  64.8212585  20.2196076  72.9226932  62.6989900  19.8957393
  72.3276864  62.9794913  19.2003881  72.6376629  63.1883801  20.6674134
  72.0534423  76.6512827   8.6560025  72.9865096  76.5858388   8.8592901
  71.9657635  77.4869094   8.1974558  74.6822439  75.9678697   5.6163973
  74.6036071  75.6338561   6.5099731  75.5032106  76.4600465   5.6155445
  77.3800631  68.8340436  18.8240291  77.3476951  67.8956437  19.0099975
  77.9901254  68.9124473  18.0906116  69.2183961  67.7036489   4.8667495
  70.1643066  67.5742697   4.9355914  68.8398206  66.9651151   5.3436924
  77.5295119  65.6251480  18.8698575  77.0134168  64.8409936  18.6828503
  78.4135068  65.2970196  19.0345094  75.1905846  59.3692495  14.8294387
  74.9930667  59.0607584  15.7137719  75.8005551  60.0954134  14.9592317
  83.1977180  69.8956443  17.9646328  83.9280569  69.6341731  18.5254032
  82.5884126  69.1585165  18.0048396  81.2792477  68.0364306  18.5620779
  80.5525641  67.9020271  17.9537271  80.8639764  68.3441134  19.3677497
  69.1022654  71.7554235  26.3268152  70.0225663  71.9332834  26.5208199
  69.0672237  70.8110281  26.1747852  67.4026879  65.6286466   4.8022381
  66.4958334  65.3319578   4.8785094  67.6802860  65.3316284   3.9356667
  58.3204819  66.9492829  15.2521427  58.0007603  66.0958137  14.9595801
  57.7738247  67.1641407  16.0079394  62.0984726  69.6655270  18.9690934
  62.3170736  70.5972378  18.9878967  62.5110500  69.3063245  19.7545737
  69.0188944  60.1723355  10.9566622  68.2089673  59.8270440  11.3321868
  69.7073361  59.8630899  11.5454234  70.9479493  59.2501402  12.5790919
  71.5010531  59.6696856  13.2380942  71.1849579  58.3237150  12.6213875
  66.9712592  65.2388476  28.3593683  66.8709319  66.1882833  28.2905774
  66.7534134  64.9106715  27.4869753  66.1725663  62.4873401   4.9434360
  67.0344827  62.8128299   5.2030177  66.3576007  61.7004897   4.4307426
  58.1893079  70.5695741  17.2214549  57.4956550  70.1549693  16.7084503
  58.9366070  70.6116277  16.6247968  74.3258300  61.3601927  12.0869583
  73.7456969  62.0186731  11.7047635  74.0594232  60.5379272  11.6757000
  72.7761866  60.7606985  14.2890903  73.2761644  60.8723520  13.4805222
  73.4197474  60.4568038  14.9291712  66.8343862  68.6685615  27.1758744
  66.3510944  69.4685975  27.3822633  66.9204801  68.6793560  26.2226188
  60.1029821  70.5013994  15.0980564  60.0800510  70.6001682  14.1462447
  60.4130458  71.3479145  15.4197730  62.7617199  72.5590149  19.2127178
  63.7160453  72.5274092  19.1457110  62.5629723  72.0980773  20.0277404
  63.3516581  71.1291265  21.7797976  64.1709470  71.6235344  21.8032813
  63.6253389  70.2123234  21.7515543  73.1083178  63.5202018  11.1425931
  72.2209033  63.8051668  10.9246126  73.5237167  63.3595781  10.2953208
  76.4597714  63.5448539  14.8580270  77.2358104  64.0344991  15.1304887
  75.7345848  63.9706593  15.3152140  78.8970272  64.2576158  15.9154211
  79.4914763  64.0171894  15.2047519  78.9696856  63.5383289  16.5427747
  61.1167428  78.1009769  16.2297376  60.9821896  77.3410170  15.6635374
  60.6999490  78.8250669  15.7626165  72.2526391  73.2846692   5.2373951
  72.9562241  73.4896695   5.8531607  71.5289040  73.8523454   5.5023035
  73.0824201  69.0356554  11.3576221  73.0259403  69.4925105  10.5183854
  73.6352544  68.2747238  11.1799064  76.8929007  64.8246286  12.1826341
  76.6365942  64.4242921  13.0134548  76.2681875  65.5390080  12.0576480
  81.2041345  67.5642359  14.6897632  80.6440903  67.6335548  15.4629194
  80.5984849  67.3883343  13.9697128  64.2736554  78.9979086  16.4415818
  64.1568938  79.9424518  16.3394509  63.4529000  78.6952647  16.8301618
  74.1613089  73.7229222   7.2872411  74.9958692  73.2910420   7.1049886
  73.9997431  73.5511235   8.2149306  73.8158981  70.2261335   8.6528751
  73.7607784  70.0605606   7.7117195  73.1905036  70.9337368   8.8090940
  58.6051496  65.4629399  22.4790173  59.2510359  64.9528353  22.9677398
  58.3968647  66.1998081  23.0533598  71.1304888  72.5310247  27.9782313
  71.9996048  72.7050899  27.6168948  70.6511639  73.3504664  27.8558043
  67.1255106  59.7269444   8.2314069  67.1133776  60.6711284   8.3882340
  68.0178528  59.5439589   7.9373530  65.2991068  79.6507348  19.6571747
  66.2018315  79.6830958  19.9738242  65.0728438  78.7207799  19.6718083
  67.0544670  78.4038334  16.3181826  66.1040301  78.4040196  16.2046198
  67.3577156  77.6571069  15.8017860  70.9407226  56.3212221  12.4860006
  70.1739621  55.7670707  12.6316688  71.3517931  56.3934089  13.3474157
  62.9448987  62.6097016  26.5765187  63.8080448  62.2533821  26.7868512
  62.3714397  62.2710911  27.2640591  82.7897364  84.2398873  17.3827588
  83.4275774  84.1205620  16.6790928  82.6718206  85.1879717  17.4415540
  79.5987070  84.1926301  17.3189113  79.2605581  84.0767366  16.4309647
  80.4676838  83.7917466  17.2990119  75.4573886  86.0461777  13.3086004
  74.8938751  85.9551714  12.5402291  75.3426281  85.2261682  13.7888496
  80.0806853  85.3461153  23.2775318  80.0695494  84.9513951  22.4055822
  80.2427492  84.6127225  23.8709090  73.0038318  87.5412969  16.1470224
  73.7959609  87.2003794  15.7316523  73.2434968  87.6507944  17.0672377
  81.0373444  89.7132745   8.6200468  80.3861424  90.2986825   8.2334482
  81.8317807  90.2438940   8.6795506  74.9629071  86.8021882   9.0187603
  75.7359947  86.2550869   8.8800479  75.3154470  87.6666131   9.2302064
  76.8014114  88.1298264  22.2254502  76.5103980  89.0343895  22.1101168
  77.4371098  88.1714792  22.9398572  77.7270321  85.5075113  18.8155862
  78.3233893  85.2831135  18.1012825  77.7845292  84.7659858  19.4181310
  77.2995349  82.9614548   6.6506053  77.5520870  82.4396070   5.8889516
  76.3619908  82.7980694   6.7532736  82.3438632  81.9650327  14.4580796
  83.1301721  81.5469750  14.1071213  82.6077336  82.8696419  14.6262444
  82.5148709  87.4023177   9.1569453  81.8794542  87.4757803   9.8690357
  82.1846116  87.9916776   8.4788532  87.7447059  81.9025560  15.3613774
  88.4772231  81.3324777  15.5951604  86.9886415  81.5147160  15.8020280
  77.0191638  84.8642654   8.8530428  76.9027896  84.1887558   9.5211512
  77.1293898  84.3775028   8.0362581  79.3623179  84.3252801  12.5577117
  78.9981386  83.7983422  13.2690038  80.2190295  83.9351270  12.3843602
  85.2672480  75.6147134  19.8208383  84.9355804  76.4842545  19.5969598
  84.6718093  75.2983418  20.5002413  79.0028666  79.3542701   7.5538465
  79.1703068  80.2222937   7.9208937  78.8125835  79.5169983   6.6299755
  81.7603999  87.8159680  19.2204296  81.4604722  88.7184719  19.1120103
  81.4155059  87.5491863  20.0725449  75.2116481  84.2673477  15.2541000
  74.2866977  84.1349691  15.4618692  75.4600894  85.0467696  15.7510943
  85.1601143  80.3342220  16.9001733  84.2518020  80.2657629  16.6060494
  85.1088739  80.8114165  17.7283559  78.9817887  81.8100359   8.5385132
  78.8617512  82.2557409   9.3770613  78.2870475  82.1585676   7.9798670
  72.5725292  83.9106750  16.0884789  72.7017673  84.1641229  17.0024201
  71.8922743  84.5034458  15.7689444  76.7424779  94.5804000  12.1875264
  76.6648809  95.5311825  12.2663744  76.1386422  94.2349873  12.8450190
  79.2342009  81.7531866  24.8436630  78.4575343  82.3125786  24.8339495
  79.8732572  82.2388649  25.3651501  87.0262789  78.5358658  18.6779607
  86.3837170  78.8291192  18.0319402  86.5217718  78.4211579  19.4832804
  84.6802953  82.2821832   9.3665466  85.5920809  82.5149218   9.1913164
  84.1712600  82.8658876   8.8040545  77.4888381  84.5617319  24.4054597
  78.2303065  85.1002363  24.1289421  76.7825366  85.1883608  24.5626149
  82.9643721  86.7046460  23.0026759  83.3727077  86.2628870  22.2581391
  82.2420982  86.1299087  23.2560952  79.3174791  81.6419066  20.3760316
  80.1635986  82.0658480  20.5194965  79.2573428  80.9852691  21.0698879
  83.2872535  87.2647650  16.7579048  82.6581398  87.4293364  16.0555116
  82.8998197  87.6789260  17.5290012  87.1661767  88.2002088  14.1123412
  86.4812805  88.5800989  13.5620445  87.2505616  88.8097415  14.8455359
  82.4674236  79.3023435  22.0341489  82.2235168  80.0565495  21.4975765
  82.7434167  79.6808782  22.8688737  84.4212699  85.8462047  20.7118755
  84.6329594  86.4893807  20.0353136  84.3742447  85.0124364  20.2440685
  82.0238928  78.4579868  17.6155327  81.1623407  78.7561121  17.9072065
  82.0501362  78.6750267  16.6836360  78.8400497  87.0022058  14.0229133
  79.3038843  87.2809761  13.2333755  78.5757295  86.1005503  13.8402224
  75.7324578  86.5493540  16.9608896  76.3025935  86.9780808  16.3226381
  76.3232690  86.2676124  17.6593082  77.7769383  83.1245211  10.8318698
  78.4793427  83.5766254  11.2992624  77.4450012  82.4829029  11.4598591
  76.2249745  81.7156967  25.2069907  75.5948405  82.3973248  25.4405304
  76.1185833  81.6040049  24.2623046  71.5194717  81.3828763  16.1335832
  70.7293771  81.6386292  15.6575942  72.0105965  82.1977101  16.2387872
  85.5358527  88.7234002  18.8841112  86.3575970  88.3214190  18.6023794
  85.5320930  88.6202237  19.8357228  73.4709463  81.7473343  13.0919308
  72.6740626  81.8592037  13.6102804  73.2435055  82.0859995  12.2260199
  79.3015130  88.2718046  21.0401823  79.3659563  88.7338453  21.8759995
  78.5926054  87.6415411  21.1684133  69.8032420  81.6359254  18.5650822
  70.0540459  82.5206264  18.8308398  70.3391969  81.4563855  17.7925914
  93.6264520  85.0672751  15.2326084  92.8728228  84.4980149  15.0770088
  93.7612061  85.0335415  16.1796719  79.0163148  89.9386153  10.9080803
  78.8808823  90.7837689  11.3365651  79.5572960  90.1405431  10.1446737
  75.5030487  76.0177733  27.5695158  75.1097433  75.4643932  28.2442803
  76.3196628  76.3288312  27.9601676  72.4692545  87.4561591  11.4808728
  72.9817066  88.2504842  11.6314293  73.1215258  86.7587882  11.4142330
  74.2787430  90.5727348  13.5631482  74.4554058  91.4945312  13.3752465
  75.0744263  90.2585767  13.9925861  78.4198448  77.4335612  25.1615415
  79.1608162  78.0342765  25.0819877  78.6516371  76.6913250  24.6033458
  73.5639786  82.6191979  23.4393645  73.4493302  81.7177237  23.7400744
  72.7084304  82.8655676  23.0878461  80.6431624  90.5609720  25.0381145
  80.1995478  89.7746098  24.7202050  81.3048838  90.7488870  24.3725036
  75.4018745  92.0905521  19.5641824  75.9526170  91.9622585  18.7918818
  74.5630221  92.3900410  19.2136717  82.7412862  90.8412520  23.0662547
  82.7231338  91.6621401  22.5742816  83.6632782  90.7166595  23.2912688
  79.1985916  88.3556649  23.9086055  79.7314253  87.5944937  23.6785363
  78.6699998  88.0630301  24.6510209  82.3655611  73.4616715  19.4379697
  82.0219881  74.3518357  19.3618807  82.7334574  73.2718373  18.5749282
  70.4341462  85.7850246  12.2568299  71.2716684  86.1947254  12.0402007
  70.6119730  84.8449688  12.2268493  82.3305894  83.4525326   7.9452132
  81.8152518  84.2229931   8.1840519  82.0583203  82.7790462   8.5685193
  79.9153005  78.2975027  13.0037370  79.0594601  77.9081877  12.8243009
  80.3279957  78.3766988  12.1437156  81.4452152  75.8321370  17.4028930
  80.9416947  75.7951505  16.5896735  81.7382759  76.7414113  17.4625587
  77.6895038  75.9160100  16.4095112  78.5548034  75.7202909  16.0501001
  77.7572547  75.6870452  17.3364468  87.3040168  86.2057681   9.8805305
  86.5269611  85.8668840   9.4360467  87.9831649  86.2110304   9.2060270
  82.1192197  81.3252418   9.7711913  81.8142333  81.6398567  10.6222056
  83.0722639  81.4033838   9.8139246  80.5638629  87.4842642  11.4204867
  80.0359991  86.7495401  11.1078104  80.0626132  88.2617318  11.1744835
  85.5431475  85.6791662  16.5371913  84.8855150  86.3690923  16.6252042
  86.3471874  86.0688094  16.8805900  75.2957357  78.1462308  13.7811478
  75.8701109  77.9237489  13.0484671  75.8828339  78.2151002  14.5340080
  84.3536934  84.0336035  14.5875855  84.8668816  84.6666027  15.0897565
  85.0038158  83.4337230  14.2219215  75.6226944  80.1766769   7.8007364
  74.7864256  80.5141455   8.1216638  75.4831713  80.0415749   6.8634501
  77.5980024  75.0203557  12.5086548  76.9444437  74.7052574  11.8843163
  77.5560499  74.3979297  13.2346371  78.7091229  85.3022852   4.4239840
  77.8018291  85.0712105   4.6230989  79.2062261  84.5060471   4.6113822
  81.6159308  94.0120359   7.3436526  80.9421007  94.3152056   7.9521484
  82.0025130  94.8149439   6.9941983  80.8317765  81.5085490  16.8334196
  79.9140326  81.7300437  16.6755884  81.2477908  81.5831801  15.9745903
  81.6152813  82.9076906  11.9636876  82.3624632  83.4198303  11.6543998
  81.8844402  82.5860959  12.8241269  79.8879463  85.4035447   8.9463830
  78.9790682  85.1194480   9.0436300  79.9174547  85.8234525   8.0867137
  85.1198730  89.0142036  12.7154998  84.6661057  88.1732946  12.7720188
  84.4892697  89.6503435  13.0529778  84.0631650  79.9434022  13.9455665
  83.3254407  79.4311408  14.2765908  84.3158423  79.5034404  13.1338942
  83.5631669  90.8518533  13.6504816  83.8554644  91.4123590  12.9317181
  84.0730290  91.1447094  14.4057975  84.1643277  72.7210274  14.5397434
  84.4702154  71.8607638  14.2523349  84.8895882  73.3127894  14.3396428
  70.4567633  83.1240961  12.9279032  70.2592033  82.5310322  12.2030099
  69.9014297  82.8193171  13.6454971  78.4364357  83.0164067  15.0473625
  78.4912967  82.0637904  14.9716102  77.6255559  83.1723506  15.5314924
  79.5855551  86.9444190   6.2851909  79.1474980  86.2280049   5.8257546
  80.3265991  87.1720305   5.7237000  76.3756717  81.6341127  12.8064004
  75.5624582  81.9335298  13.2129196  76.8715711  81.2396816  13.5238487
  78.5265295  91.6298884  14.7398269  78.4841473  91.8559730  13.8106801
  79.4427993  91.3962259  14.8884070  81.9730928  82.0982952  21.6378898
  82.3280316  82.3254425  22.4973364  82.6203060  82.4301328  21.0156154
  87.7028665  85.2201387  12.3428227  87.5646564  85.4102983  11.4149416
  87.3464884  85.9820770  12.7996278  75.8670791  79.2059483  18.4225239
  76.5070171  79.0648242  17.7248203  75.0348322  78.9193996  18.0463841
  87.7298045  87.2877914  17.3539499  88.1634552  87.1953204  18.2022553
  88.4429626  87.2635415  16.7159515  76.6431095  88.5061913  14.5360232
  77.4371694  88.0112233  14.3342807  75.9322788  87.9779776  14.1727937
  81.4625940  90.8880009  18.8872599  81.5162962  91.4570945  19.6550315
  80.5940721  91.0581894  18.5226636  72.9513859  82.6504995  10.6119984
  72.0211447  82.5889450  10.8289947  73.0471331  82.1280948   9.8156626
  72.8699408  79.1759808  13.1998226  73.1306225  80.0905141  13.0907387
  73.6916580  78.7084250  13.3494839  74.3424333  80.5897565  20.3697051
  75.0147387  80.3814927  19.7209700  73.5154120  80.3919651  19.9302283
  88.5913594  87.3301615  19.8872384  88.7849485  88.2347426  20.1331659
  88.4914213  86.8709034  20.7210969  80.2449905  77.2159506  22.3862711
  79.5977820  77.9149455  22.2927188  81.0150921  77.6495650  22.7538960
  83.6528703  87.4808358  25.4613265  83.5014210  87.2518910  24.5443348
  83.6433383  88.4378959  25.4744610  80.4214040  85.0540271  20.4459531
  81.3506100  85.2051430  20.2728499  80.0005070  85.1424291  19.5908178
  79.2202371  89.0790935  18.2158069  79.0813457  88.7109719  19.0884007
  78.4316968  89.5938574  18.0442027  79.8150523  94.1800031   9.5583605
  79.9902279  93.7088075  10.3729228  79.1283311  94.8065798   9.7864866
  80.7707587  88.4572538  15.6046907  80.4357419  88.4173308  16.5004557
  80.2711532  87.7917254  15.1317317  74.7451830  83.8640168  21.1299488
  74.6071628  83.1320407  21.7311027  75.6556754  83.7749068  20.8483676
  83.7066778  85.8028572   5.8783966  83.0895949  85.0775400   5.7817019
  83.2383267  86.5637932   5.5351041  77.3734131  83.5760127  20.6183167
  78.0833750  82.9353319  20.5769786  77.3303439  83.8273022  21.5409348
  85.3620910  90.5127480  23.5389747  85.3033456  89.8286701  22.8720330
  85.7640428  91.2546470  23.0870373  76.0863065  80.5625345  22.4378807
  75.5500422  80.1116083  23.0900403  75.4979774  80.6971254  21.6949271
  74.3811609  97.3289394  16.3323466  74.6208207  97.9607918  17.0102484
  73.5380805  96.9777434  16.6188825  75.4965324  80.0213996   5.0005271
  74.6194790  79.9002797   4.6367517  75.9723077  79.2300075   4.7484159
  85.3638317  88.4767064  21.7703726  84.4765096  88.1392986  21.8930125
  85.9336868  87.7450096  22.0072492  67.0167464  84.8091156  15.0946778
  67.7038504  84.4952886  14.5067793  66.8615593  85.7132521  14.8214029
  71.8202186  79.6981353  19.5231801  71.7360375  79.0907022  18.7882211
  70.9984893  80.1890371  19.5241298  78.8939470  93.1368517  18.7364970
  78.8209642  93.9423488  19.2484274  78.4516864  93.3360483  17.9112991
  78.6829250  92.3740287  12.2467791  77.8996772  92.9161967  12.3406016
  79.3821995  92.8914266  12.6462032  81.9925900  78.1834916  14.8901996
  82.4894600  77.4304879  14.5703067  81.2212882  78.2199233  14.3245206
  89.8455658  83.8875282  16.5320288  89.8345534  84.7699997  16.1614221
  88.9773037  83.5346833  16.3374825  81.3538154  93.0355351  20.8923128
  82.0666126  93.6702816  20.8199030  80.8628183  93.1319217  20.0763130
  83.0755681  86.9406603  12.4640420  82.1411960  87.0608066  12.2945124
  83.2532349  86.0379070  12.2000430  78.5760869  80.3252299  14.6173681
  78.2058656  79.7723340  15.3054587  79.0719961  79.7210433  14.0648681
  86.4628232  82.7823923  12.9990454  86.9288684  83.6151914  12.9250757
  86.9135733  82.3168904  13.7035712  76.4050068  90.7849794  21.7128699
  77.1059527  91.4186277  21.8658093  75.9345183  91.1264526  20.9524338
  84.5304463  89.1267744   9.9976606  84.8064307  89.0124339  10.9070480
  83.6608962  88.7285229   9.9588779  84.4344895  75.1504510  17.0381355
  83.5207975  75.3808737  17.2063562  84.8637996  75.2342954  17.8895388
  84.2051354  83.3394402  19.5381249  83.5522804  83.5870309  18.8833702
  84.5831733  82.5258540  19.2043727  81.1658527  93.3754095  13.6409420
  81.3480922  92.5575751  14.1037172  81.9891513  93.5921787  13.2034310
  81.5000693  92.3022280  10.9024468  82.0288459  91.7914735  10.2894630
  81.7628912  91.9864810  11.7670001  80.2538927  84.0814213  26.0247286
  79.5779564  83.9808342  26.6949662  81.0766560  83.9253426  26.4883284
  72.0017786  90.3186149  18.6459802  72.5871222  89.5729837  18.7787706
  71.8042624  90.6290106  19.5296466  74.8556441  93.3537397  13.6622244
  74.1866816  93.8383524  13.1786284  74.7169311  93.6006617  14.5765623
  66.5935440  82.8891749  17.3664245  66.6319540  82.3555340  18.1601363
  66.0875733  82.3626955  16.7475222  78.9961709  95.3881140  20.2604902
  79.5480017  95.5512762  21.0253988  79.3367903  95.9785578  19.5884927
  73.9726203  77.7356290  20.8626787  74.0367529  78.5971121  20.4504185
  73.9093323  77.1230292  20.1299146  73.4478475  79.8079423  24.5099821
  74.0750514  79.4256500  25.1237346  72.5906394  79.5893624  24.8755514
  83.8472584  90.2142398  26.1153557  84.3912488  90.8272356  25.6208512
  83.2659429  90.7721976  26.6320570  70.2244018  81.6155852  10.4418176
  70.5197459  80.7066530  10.3885230  69.3232054  81.5943591  10.1199179
  82.1330097  93.3363116  17.2468585  82.0081236  92.5352856  16.7379530
  82.7909188  93.8309309  16.7582555  73.7538265  79.6911848  16.4245725
  73.0324851  80.3047816  16.2853198  74.5431521  80.2269613  16.3462371
  84.1965005  91.1372136  18.8748135  83.2495341  91.0177487  18.8026461
  84.5447778  90.2494634  18.9574396  76.5564578  77.0266275  22.6986377
  77.0798980  77.2728571  23.4612686  76.3376912  77.8586309  22.2789514
  71.9531860  79.2969949  10.5657501  71.6244566  78.4167328  10.3832607
  72.3071230  79.2417618  11.4533891  81.2011438  90.9324852  15.0752487
  81.0536401  90.0041559  15.2560057  82.0264932  90.9544943  14.5909562
  75.0673683  79.5842919  10.9332979  75.4069755  80.1128840  10.2111587
  75.5145803  79.9223325  11.7091546  84.8045560  91.7553411  16.1617360
  85.7292108  91.5496272  16.0241811  84.6360864  91.5069812  17.0706701
  77.7617123  77.9679970  20.3836047  77.4213944  77.1687783  20.7856727
  77.0556130  78.2681681  19.8112880  78.4133595  75.0529282  18.8363370
  79.2359665  74.5789760  18.7142260  78.6571659  75.8319766  19.3362056
  77.0541830  78.0817541   9.1326272  77.7750192  78.4598793   8.6289989
  76.4307134  78.8006417   9.2361250  81.1972953  78.7862690  10.0684604
  81.4136567  79.6687328   9.7673432  80.7167020  78.3948903   9.3390246
  75.9372174  81.7448403  16.6455349  75.7916755  82.0588706  17.5379630
  75.4597378  82.3633303  16.0926247  77.7968557  78.7350951  16.6936238
  77.7830126  77.8392044  16.3568536  78.5140985  78.7421615  17.3274524
  79.6494688  79.1688291  18.7389366  79.3912465  80.0905362  18.7373696
  79.1179728  78.7718726  19.4289830  84.5940876  92.2739078  11.5179451
  84.7677754  91.7085501  10.7653304  85.0869768  93.0739973  11.3358941
  70.4117836  84.2853747  19.5843010  69.8671304  85.0613555  19.7163284
  71.2897186  84.6324552  19.4262131  77.2005453  77.6165331  11.9623808
  77.3221364  76.6881977  12.1614696  76.9107495  77.6304017  11.0502124
  80.0696643  75.3020242  15.0990528  80.0918340  75.3659575  14.1442508
  80.4864702  74.4624750  15.2931034  90.4480268  85.0375501  13.1369751
  90.8911414  84.2882826  12.7388874  89.5706778  85.0285637  12.7543483
  85.5816049  91.5905843   8.6176349  86.2766954  92.2112535   8.8363664
  85.9239199  90.7401194   8.8928727  71.1983858  83.4123644  22.4773167
  70.4565594  83.5606279  23.0637797  70.8776602  83.6731909  21.6139916
  87.4807472  89.0405548  10.1463680  88.0058796  89.3792821   9.4213000
  87.3929825  88.1052563   9.9626815  79.1427521  92.9539622  22.2753557
  79.4514647  92.7088769  23.1476256  79.9403003  93.1586260  21.7872427
  79.1648133  95.1077531  14.5058933  78.7253123  94.6153910  15.1991790
  79.9156250  94.5650499  14.2651009  71.6440472  91.2989072  14.5083561
  72.4698492  90.9992844  14.1282205  71.2934524  90.5296695  14.9573350
  76.6122005  90.6515540  16.5781235  75.9902014  89.9886245  16.2783463
  77.2826872  90.6776672  15.8954883  69.8449077  89.2175399  15.4672495
  69.0080985  88.7897573  15.2856496  69.8172722  89.4107842  16.4043286
  76.6846532  79.1297328  26.1713741  76.7334688  80.0059451  25.7891511
  77.2269047  78.5874722  25.5985384  87.1701378  89.6738452  25.4514878
  86.3796922  89.6562591  24.9119378  86.9334733  90.2126745  26.2063915
  87.2899253  86.5230918  22.7647607  87.3397258  86.3580926  23.7063129
  87.1813176  85.6558177  22.3745487  76.1735512  89.2019464  10.0539696
  76.3223632  89.8854928   9.4006368  76.9801955  89.1824554  10.5689151
  84.5803016  82.5061846  24.0806913  85.4812878  82.3668311  23.7890911
  84.6550990  82.6716301  25.0205091  78.9145821  79.8828701  22.9260100
  78.0449130  80.1762267  22.6542688  79.1505301  80.4669146  23.6467363
  88.7917450  88.9427860  23.0089628  88.5002258  89.3057840  23.8453089
  88.1789581  88.2294868  22.8302960  89.9913132  86.5080739  15.5292198
  90.8260024  86.9470543  15.6929759  90.1272261  86.0319393  14.7100444
  87.0404638  84.0660474  21.4769686  87.5158760  84.2588121  20.6688538
  86.1170204  84.1219660  21.2313070  73.9288145  85.2284641  11.0600764
  73.6834187  84.3246971  11.2580975  74.0984059  85.2301792  10.1180242
  81.6184855  76.1008318  20.4425520  82.1366799  76.8369345  20.1172009
  81.2639987  76.4072311  21.2772279  73.1983792  80.9612999   8.5586926
  72.5053037  81.0357354   7.9026962  72.9535544  80.1973343   9.0808443
  81.8697449  72.5208600  15.9626417  82.1499203  71.8531789  16.5886843
  82.6548056  72.7137696  15.4501080  79.6730917  91.6967594   7.5251443
  79.1004884  92.3157781   7.0721915  80.2463711  92.2466956   8.0591365
  85.7406307  80.9426234  19.7097992  86.6923730  81.0424332  19.7310216
  85.5709758  80.1504503  20.2196076  83.7620687  78.0281818  19.8957393
  83.1670619  78.3086830  19.2003881  83.4770383  78.5175718  20.6674134
  82.8928177  91.9804744   8.6560025  83.8258850  91.9150306   8.8592901
  82.8051390  92.8161011   8.1974558  85.5216194  91.2970615   5.6163973
  85.4429825  90.9630478   6.5099731  86.3425861  91.7892383   5.6155445
  88.2194385  84.1632354  18.8240291  88.1870705  83.2248355  19.0099975
  88.8295009  84.2416391  18.0906116  80.0577716  83.0328407   4.8667495
  81.0036821  82.9034615   4.9355914  79.6791961  82.2943069   5.3436924
  88.3688873  80.9543397  18.8698575  87.8527922  80.1701854  18.6828503
  89.2528822  80.6262114  19.0345094  86.0299600  74.6984413  14.8294387
  85.8324422  74.3899501  15.7137719  86.6399306  75.4246052  14.9592317
  94.0370935  85.2248361  17.9646328  94.7674323  84.9633649  18.5254032
  93.4277880  84.4877083  18.0048396  92.1186232  83.3656223  18.5620779
  91.3919396  83.2312188  17.9537271  91.7033519  83.6733052  19.3677497
  79.9416408  87.0846153  26.3268152  80.8619418  87.2624752  26.5208199
  79.9065991  86.1402198  26.1747852  78.2420633  80.9578383   4.8022381
  77.3352088  80.6611496   4.8785094  78.5196614  80.6608201   3.9356667
  69.1598573  82.2784747  15.2521427  68.8401358  81.4250055  14.9595801
  68.6132002  82.4933325  16.0079394  72.9378481  84.9947188  18.9690934
  73.1564491  85.9264296  18.9878967  73.3504255  84.6355162  19.7545737
  79.8582699  75.5015273  10.9566622  79.0483427  75.1562358  11.3321868
  80.5467116  75.1922817  11.5454234  81.7873247  74.5793320  12.5790919
  82.3404286  74.9988773  13.2380942  82.0243333  73.6529068  12.6213875
  77.8106346  80.5680394  28.3593683  77.7103073  81.5174751  28.2905774
  77.5927888  80.2398632  27.4869753  77.0119418  77.8165319   4.9434360
  77.8738582  78.1420217   5.2030177  77.1969762  77.0296815   4.4307426
  69.0286833  85.8987658  17.2214549  68.3350305  85.4841611  16.7084503
  69.7759824  85.9408195  16.6247968  85.1652054  76.6893845  12.0869583
  84.5850723  77.3478649  11.7047635  84.8987987  75.8671190  11.6757000
  83.6155620  76.0898903  14.2890903  84.1155399  76.2015437  13.4805222
  84.2591228  75.7859956  14.9291712  77.6737616  83.9977532  27.1758744
  77.1904698  84.7977893  27.3822633  77.7598555  84.0085477  26.2226188
  70.9423576  85.8305912  15.0980564  70.9194264  85.9293599  14.1462447
  71.2524212  86.6771063  15.4197730  73.6010954  87.8882067  19.2127178
  74.5554207  87.8566009  19.1457110  73.4023477  87.4272691  20.0277404
  74.1910336  86.4583183  21.7797976  75.0103225  86.9527262  21.8032813
  74.4647144  85.5415151  21.7515543  83.9476932  78.8493935  11.1425931
  83.0602787  79.1343586  10.9246126  84.3630921  78.6887699  10.2953208
  87.2991468  78.8740456  14.8580270  88.0751858  79.3636909  15.1304887
  86.5739602  79.2998511  15.3152140  89.7364027  79.5868076  15.9154211
  90.3308518  79.3463812  15.2047519  89.8090611  78.8675206  16.5427747
  71.9561183  93.4301687  16.2297376  71.8215651  92.6702087  15.6635374
  71.5393245  94.1542586  15.7626165  83.0920146  88.6138610   5.2373951
  83.7955996  88.8188613   5.8531607  82.3682794  89.1815372   5.5023035
  83.9217956  84.3648471  11.3576221  83.8653157  84.8217023  10.5183854
  84.4746298  83.6039156  11.1799064  87.7322762  80.1538203  12.1826341
  87.4759696  79.7534839  13.0134548  87.1075630  80.8681997  12.0576480
  92.0435100  82.8934277  14.6897632  91.4834658  82.9627466  15.4629194
  91.4378603  82.7175261  13.9697128  75.1130308  94.3271004  16.4415818
  74.9962693  95.2716436  16.3394509  74.2922755  94.0244565  16.8301618
  85.0006843  89.0521139   7.2872411  85.8352447  88.6202338   7.1049886
  84.8391186  88.8803153   8.2149306  84.6552735  85.5553253   8.6528751
  84.6001539  85.3897524   7.7117195  84.0298790  86.2629286   8.8090940
  69.4445250  80.7921317  22.4790173  70.0904114  80.2820271  22.9677398
  69.2362401  81.5289999  23.0533598  81.9698642  87.8602164  27.9782313
  82.8389802  88.0342817  27.6168948  81.4905394  88.6796581  27.8558043
  77.9648861  75.0561362   8.2314069  77.9527530  76.0003202   8.3882340
  78.8572283  74.8731507   7.9373530  76.1384823  94.9799265  19.6571747
  77.0412069  95.0122876  19.9738242  75.9122193  94.0499716  19.6718083
  77.8938425  93.7330252  16.3181826  76.9434056  93.7332114  16.2046198
  78.1970911  92.9862987  15.8017860  81.7800980  71.6504138  12.4860006
  81.0133376  71.0962625  12.6316688  82.1911685  71.7226007  13.3474157
  73.7842741  77.9388934  26.5765187  74.6474203  77.5825739  26.7868512
  73.2108152  77.6002829  27.2640591  93.6291118  99.5690790  17.3827588
  94.2669528  99.4497538  16.6790928  93.5111961 100.5171634  17.4415540
  90.4380824  99.5218219  17.3189113  90.0999336  99.4059283  16.4309647
  91.3070593  99.1209384  17.2990119  86.2967640 101.3753695  13.3086004
  85.7332505 101.2843632  12.5402291  86.1820035 100.5553599  13.7888496
  90.9200607 100.6753070  23.2775318  90.9089248 100.2805869  22.4055822
  91.0821247  99.9419143  23.8709090  83.8432072 102.8704887  16.1470224
  84.6353364 102.5295711  15.7316523  84.0828722 102.9799862  17.0672377
  87.6407869 103.4590182  22.2254502  87.3497734 104.3635813  22.1101168
  88.2764853 103.5006710  22.9398572  88.5664075 100.8367031  18.8155862
  89.1627648 100.6123053  18.1012825  88.6239047 100.0951776  19.4181310
  93.1832387  97.2942244  14.4580796  93.9695476  96.8761667  14.1071213
  93.4471091  98.1988336  14.6262444  98.5840814  97.2317477  15.3613774
  99.3165986  96.6616694  15.5951604  97.8280169  96.8439078  15.8020280
  90.2016933  99.6544719  12.5577117  89.8375141  99.1275340  13.2690038
  91.0584049  99.2643188  12.3843602  96.1066234  90.9439052  19.8208383
  95.7749559  91.8134463  19.5969598  95.5111847  90.6275336  20.5002413
  92.5997754 103.1451598  19.2204296  92.2998477 104.0476636  19.1120103
  92.2548813 102.8783781  20.0725449  86.0510235  99.5965394  15.2541000
  85.1260732  99.4641609  15.4618692  86.2994648 100.3759614  15.7510943
  95.9994897  95.6634138  16.9001733  95.0911775  95.5949546  16.6060494
  95.9482493  96.1406083  17.7283559  83.4119046  99.2398668  16.0884789
  83.5411427  99.4933147  17.0024201  82.7316497  99.8326376  15.7689444
  90.0735763  97.0823783  24.8436630  89.2969097  97.6417703  24.8339495
  90.7126326  97.5680566  25.3651501  97.8656544  93.8650576  18.6779607
  97.2230924  94.1583109  18.0319402  97.3611472  93.7503497  19.4832804
  88.3282135  99.8909237  24.4054597  89.0696820 100.4294281  24.1289421
  87.6219121 100.5175525  24.5626149  93.8037475 102.0338377  23.0026759
  94.2120831 101.5920788  22.2581391  93.0814737 101.4591005  23.2560952
  90.1568545  96.9710984  20.3760316  91.0029740  97.3950398  20.5194965
  90.0967183  96.3144608  21.0698879  94.1266290 102.5939568  16.7579048
  93.4975152 102.7585282  16.0555116  93.7391952 103.0081177  17.5290012
  93.3067990  94.6315352  22.0341489  93.0628922  95.3857413  21.4975765
  93.5827921  95.0100700  22.8688737  95.2606453 101.1753965  20.7118755
  95.4723348 101.8185725  20.0353136  95.2136202 100.3416281  20.2440685
  92.8632682  93.7871785  17.6155327  92.0017161  94.0853039  17.9072065
  92.8895117  94.0042184  16.6836360  89.6794252 102.3313976  14.0229133
  90.1432597 102.6101679  13.2333755  89.4151050 101.4297420  13.8402224
  86.5718333 101.8785457  16.9608896  87.1419690 102.3072726  16.3226381
  87.1626445 101.5968042  17.6593082  88.6163138  98.4537128  10.8318698
  89.3187181  98.9058172  11.2992624  88.2843766  97.8120947  11.4598591
  87.0643499  97.0448885  25.2069907  86.4342160  97.7265166  25.4405304
  86.9579587  96.9331967  24.2623046  82.3588472  96.7120681  16.1335832
  81.5687526  96.9678209  15.6575942  82.8499719  97.5269019  16.2387872
  96.3752281 104.0525920  18.8841112  97.1969725 103.6506107  18.6023794
  96.3714684 103.9494154  19.8357228  84.3103217  97.0765260  13.0919308
  83.5134380  97.1883954  13.6102804  84.0828809  97.4151912  12.2260199
  90.1408885 103.6009963  21.0401823  90.2053317 104.0630371  21.8759995
  89.4319809 102.9707328  21.1684133  80.6426175  96.9651171  18.5650822
  80.8934213  97.8498181  18.8308398  81.1785723  96.7855773  17.7925914
  86.3424242  91.3469651  27.5695158  85.9491188  90.7935849  28.2442803
  87.1590382  91.6580229  27.9601676  83.3086300 102.7853509  11.4808728
  83.8210820 103.5796759  11.6314293  83.9609013 102.0879799  11.4142330
  89.2592203  92.7627530  25.1615415  90.0001916  93.3634683  25.0819877
  89.4910126  92.0205168  24.6033458  84.4033541  97.9483897  23.4393645
  84.2887056  97.0469154  23.7400744  83.5478059  98.1947594  23.0878461
  91.4825379 105.8901637  25.0381145  91.0389233 105.1038016  24.7202050
  92.1442592 106.0780788  24.3725036  86.2412500 107.4197439  19.5641824
  86.7919925 107.2914502  18.7918818  85.4023976 107.7192328  19.2136717
  93.5806617 106.1704437  23.0662547  93.5625092 106.9913318  22.5742816
  94.5026537 106.0458513  23.2912688  90.0379671 103.6848567  23.9086055
  90.5708008 102.9236855  23.6785363  89.5093752 103.3922219  24.6510209
  93.2049366  88.7908633  19.4379697  92.8613635  89.6810274  19.3618807
  93.5728328  88.6010290  18.5749282  81.2735216 101.1142163  12.2568299
  82.1110438 101.5239172  12.0402007  81.4513484 100.1741605  12.2268493
  90.7546760  93.6266945  13.0037370  89.8988356  93.2373795  12.8243009
  91.1673711  93.7058905  12.1437156  92.2845906  91.1613288  17.4028930
  91.7810702  91.1243423  16.5896735  92.5776513  92.0706031  17.4625587
  88.5288792  91.2452018  16.4095112  89.3941789  91.0494826  16.0501001
  88.5966301  91.0162369  17.3364468  96.3825230 101.0083580  16.5371913
  95.7248904 101.6982841  16.6252042  97.1865629 101.3980012  16.8805900
  86.1351111  93.4754226  13.7811478  86.7094863  93.2529407  13.0484671
  86.7222094  93.5442920  14.5340080  95.1930688  99.3627952  14.5875855
  95.7062570  99.9957944  15.0897565  95.8431912  98.7629148  14.2219215
  88.4373779  90.3495474  12.5086548  87.7838191  90.0344492  11.8843163
  88.3954253  89.7271215  13.2346371  91.6711519  96.8377408  16.8334196
  90.7534081  97.0592355  16.6755884  92.0871663  96.9123718  15.9745903
  94.9025404  95.2725940  13.9455665  94.1648161  94.7603326  14.2765908
  95.1552178  94.8326322  13.1338942  95.0037032  88.0502192  14.5397434
  95.3095908  87.1899555  14.2523349  95.7289636  88.6419812  14.3396428
  81.2961388  98.4532879  12.9279032  81.0985787  97.8602239  12.2030099
  80.7408052  98.1485089  13.6454971  89.2758111  98.3455985  15.0473625
  89.3306721  97.3929821  14.9716102  88.4649313  98.5015424  15.5314924
  87.2150471  96.9633045  12.8064004  86.4018337  97.2627215  13.2129196
  87.7109465  96.5688734  13.5238487  92.8124683  97.4274869  21.6378898
  93.1674071  97.6546342  22.4973364  93.4596814  97.7593246  21.0156154
  86.7064546  94.5351400  18.4225239  87.3463925  94.3940159  17.7248203
  85.8742076  94.2485914  18.0463841  87.4824850 103.8353831  14.5360232
  88.2765448 103.3404151  14.3342807  86.7716542 103.3071694  14.1727937
  92.3019694 106.2171926  18.8872599  92.3556717 106.7862863  19.6550315
  91.4334476 106.3873811  18.5226636  83.7907613  97.9796912  10.6119984
  82.8605201  97.9181368  10.8289947  83.8865085  97.4572865   9.8156626
  83.7093162  94.5051725  13.1998226  83.9699980  95.4197059  13.0907387
  84.5310335  94.0376168  13.3494839  85.1818088  95.9189482  20.3697051
  85.8541141  95.7106845  19.7209700  84.3547874  95.7211568  19.9302283
  99.4307349 102.6593533  19.8872384  99.6243239 103.5639343  20.1331659
  99.3307967 102.2000952  20.7210969  91.0843660  92.5451423  22.3862711
  90.4371575  93.2441373  22.2927188  91.8544675  92.9787567  22.7538960
  94.4922458 102.8100276  25.4613265  94.3407964 102.5810827  24.5443348
  94.4827137 103.7670877  25.4744610  91.2607794 100.3832188  20.4459531
  92.1899854 100.5343348  20.2728499  90.8398824 100.4716209  19.5908178
  90.0596126 104.4082853  18.2158069  89.9207212 104.0401637  19.0884007
  89.2710722 104.9230492  18.0442027  91.6101341 103.7864455  15.6046907
  91.2751174 103.7465225  16.5004557  91.1105287 103.1209171  15.1317317
  85.5845585  99.1932085  21.1299488  85.4465383  98.4612324  21.7311027
  86.4950508  99.1040986  20.8483676  88.2127886  98.9052045  20.6183167
  88.9227504  98.2645237  20.5769786  88.1697194  99.1564940  21.5409348
  96.2014664 105.8419398  23.5389747  96.1427210 105.1578618  22.8720330
  96.6034183 106.5838388  23.0870373  86.9256820  95.8917263  22.4378807
  86.3894177  95.4408001  23.0900403  86.3373528  96.0263171  21.6949271
  96.2032072 103.8058982  21.7703726  95.3158850 103.4684904  21.8930125
  96.7730623 103.0742013  22.0072492  77.8561219 100.1383074  15.0946778
  78.5432259  99.8244804  14.5067793  77.7009347 101.0424438  14.8214029
  82.6595941  95.0273270  19.5231801  82.5754130  94.4198940  18.7882211
  81.8378647  95.5182289  19.5241298  89.7333225 108.4660434  18.7364970
  89.6603396 109.2715406  19.2484274  89.2910618 108.6652400  17.9112991
  92.8319655  93.5126834  14.8901996  93.3288354  92.7596796  14.5703067
  92.0606636  93.5491151  14.3245206 100.6849412  99.2167199  16.5320288
 100.6739288 100.0991915  16.1614221  99.8166792  98.8638750  16.3374825
  92.1931908 108.3647268  20.8923128  92.9059881 108.9994733  20.8199030
  91.7021937 108.4611134  20.0763130  89.4154623  95.6544217  14.6173681
  89.0452411  95.1015257  15.3054587  89.9113716  95.0502350  14.0648681
  87.2443822 106.1141712  21.7128699  87.9453282 106.7478195  21.8658093
  86.7738937 106.4556443  20.9524338  95.2738649  90.4796427  17.0381355
  94.3601729  90.7100654  17.2063562  95.7031751  90.5634871  17.8895388
  95.0445108  98.6686319  19.5381249  94.3916558  98.9162227  18.8833702
  95.4225488  97.8550458  19.2043727  91.0932681  99.4106130  26.0247286
  90.4173318  99.3100260  26.6949662  91.9160315  99.2545344  26.4883284
  82.8411540 105.6478067  18.6459802  83.4264977 104.9021755  18.7787706
  82.6436379 105.9582024  19.5296466  77.4329195  98.2183667  17.3664245
  77.4713294  97.6847258  18.1601363  76.9269488  97.6918873  16.7475222
  89.8355464 110.7173058  20.2604902  90.3873772 110.8804679  21.0253988
  90.1761657 111.3077496  19.5884927  84.8119957  93.0648208  20.8626787
  84.8761284  93.9263039  20.4504185  84.7487077  92.4522209  20.1299146
  84.2872230  95.1371340  24.5099821  84.9144268  94.7548417  25.1237346
  83.4300149  94.9185542  24.8755514  94.6866338 105.5434315  26.1153557
  95.2306242 106.1564274  25.6208512  94.1053183 106.1013894  26.6320570
  81.0637772  96.9447769  10.4418176  81.3591213  96.0358448  10.3885230
  80.1625808  96.9235509  10.1199179  84.5932019  95.0203766  16.4245725
  83.8718605  95.6339734  16.2853198  85.3825275  95.5561531  16.3462371
  95.0358760 106.4664053  18.8748135  94.0889095 106.3469405  18.8026461
  95.3841533 105.5786551  18.9574396  87.3958333  92.3558192  22.6986377
  87.9192735  92.6020489  23.4612686  87.1770666  93.1878227  22.2789514
  82.7925614  94.6261867  10.5657501  82.4638320  93.7459246  10.3832607
  83.1464985  94.5709536  11.4533891  85.9067437  94.9134837  10.9332979
  86.2463510  95.4420758  10.2111587  86.3539558  95.2515243  11.7091546
  88.6010878  93.2971887  20.3836047  88.2607698  92.4979701  20.7856727
  87.8949884  93.5973598  19.8112880  89.2527350  90.3821200  18.8363370
  90.0753419  89.9081678  18.7142260  89.4965413  91.1611684  19.3362056
  87.8935584  93.4109458   9.1326272  88.6143947  93.7890711   8.6289989
  87.2700888  94.1298335   9.2361250  92.0366707  94.1154607  10.0684604
  92.2530322  94.9979245   9.7673432  91.5560774  93.7240821   9.3390246
  86.7765929  97.0740321  16.6455349  86.6310509  97.3880624  17.5379630
  86.2991132  97.6925221  16.0926247  88.6362311  94.0642869  16.6936238
  88.6223880  93.1683962  16.3568536  89.3534740  94.0713532  17.3274524
  90.4888442  94.4980209  18.7389366  90.2306220  95.4197279  18.7373696
  89.9573483  94.1010643  19.4289830  81.2511591  99.6145665  19.5843010
  80.7065059 100.3905473  19.7163284  82.1290941  99.9616469  19.4262131
  88.0399207  92.9457249  11.9623808  88.1615119  92.0173895  12.1614696
  87.7501250  92.9595935  11.0502124  90.9090398  90.6312159  15.0990528
  90.9312095  90.6951492  14.1442508  91.3258457  89.7916668  15.2931034
  82.0377613  98.7415561  22.4773167  81.2959349  98.8898197  23.0637797
  81.7170357  99.0023827  21.6139916  89.9821275 108.2831539  22.2753557
  90.2908402 108.0380686  23.1476256  90.7796757 108.4878178  21.7872427
  82.4834226 106.6280990  14.5083561  83.3092246 106.3284762  14.1282205
  82.1328278 105.8588612  14.9573350  87.4515759 105.9807458  16.5781235
  86.8295769 105.3178163  16.2783463  88.1220626 106.0068590  15.8954883
  80.6842831 104.5467316  15.4672495  79.8474740 104.1189491  15.2856496
  80.6566477 104.7399760  16.4043286  87.5240287  94.4589246  26.1713741
  87.5728442  95.3351369  25.7891511  88.0662801  93.9166639  25.5985384
  98.0095133 105.0030369  25.4514878  97.2190676 104.9854508  24.9119378
  97.7728487 105.5418663  26.2063915  98.1293008 101.8522836  22.7647607
  98.1791013 101.6872843  23.7063129  98.0206931 100.9850095  22.3745487
  95.4196770  97.8353764  24.0806913  96.3206633  97.6960229  23.7890911
  95.4944745  98.0008219  25.0205091  89.7539575  95.2120619  22.9260100
  88.8842885  95.5054185  22.6542688  89.9899056  95.7961064  23.6467363
  99.6311204 104.2719777  23.0089628  99.3396013 104.6349758  23.8453089
  99.0183336 103.5586786  22.8302960  97.8798393  99.3952392  21.4769686
  98.3552514  99.5880038  20.6688538  96.9563958  99.4511578  21.2313070
  84.7681899 100.5576559  11.0600764  84.5227941  99.6538889  11.2580975
  84.9377814 100.5593710  10.1180242  92.4578609  91.4300235  20.4425520
  92.9760553  92.1661262  20.1172009  92.1033742  91.7364229  21.2772279
  84.0377547  96.2904917   8.5586926  83.3446792  96.3649272   7.9026962
  83.7929299  95.5265260   9.0808443  92.7091203  87.8500518  15.9626417
  92.9892957  87.1823707  16.5886843  93.4941810  88.0429614  15.4501080
  96.5800062  96.2718152  19.7097992  97.5317485  96.3716250  19.7310216
  96.4103512  95.4796421  20.2196076  94.6014441  93.3573735  19.8957393
  94.0064373  93.6378748  19.2003881  94.3164138  93.8467636  20.6674134
  99.0588139  99.4924272  18.8240291  99.0264460  98.5540272  19.0099975
  99.6688763  99.5708308  18.0906116  99.2082628  96.2835315  18.8698575
  98.6921677  95.4993772  18.6828503 100.0922576  95.9554032  19.0345094
  96.8693355  90.0276331  14.8294387  96.6718176  89.7191419  15.7137719
  97.4793060  90.7537970  14.9592317 104.8764689 100.5540279  17.9646328
 105.6068078 100.2925567  18.5254032 104.2671635  99.8169000  18.0048396
 102.9579986  98.6948141  18.5620779 102.2313150  98.5604106  17.9537271
 102.5427273  99.0024970  19.3677497  90.7810163 102.4138071  26.3268152
  91.7013172 102.5916670  26.5208199  90.7459746 101.4694116  26.1747852
  79.9992328  97.6076664  15.2521427  79.6795112  96.7541973  14.9595801
  79.4525756  97.8225243  16.0079394  83.7772235 100.3239105  18.9690934
  83.9958245 101.2556213  18.9878967  84.1898009  99.9647080  19.7545737
  90.6976453  90.8307191  10.9566622  89.8877182  90.4854276  11.3321868
  91.3860870  90.5214735  11.5454234  92.6267002  89.9085238  12.5790919
  93.1798040  90.3280691  13.2380942  92.8637088  88.9820986  12.6213875
  88.6500101  95.8972311  28.3593683  88.5496828  96.8466668  28.2905774
  88.4321643  95.5690550  27.4869753  79.8680588 101.2279576  17.2214549
  79.1744059 100.8133529  16.7084503  80.6153579 101.2700112  16.6247968
  96.0045809  92.0185763  12.0869583  95.4244478  92.6770567  11.7047635
  95.7381741  91.1963107  11.6757000  94.4549375  91.4190820  14.2890903
  94.9549153  91.5307355  13.4805222  95.0984983  91.1151873  14.9291712
  88.5131371  99.3269450  27.1758744  88.0298453 100.1269810  27.3822633
  88.5992310  99.3377395  26.2226188  81.7817330 101.1597830  15.0980564
  81.7588019 101.2585517  14.1462447  82.0917967 102.0062981  15.4197730
  84.4404708 103.2173985  19.2127178  85.3947962 103.1857927  19.1457110
  84.2417232 102.7564609  20.0277404  85.0304090 101.7875101  21.7797976
  85.8496979 102.2819179  21.8032813  85.3040898 100.8707069  21.7515543
  94.7870687  94.1785853  11.1425931  93.8996542  94.4635504  10.9246126
  95.2024676  94.0179617  10.2953208  98.1385223  94.2032374  14.8580270
  98.9145613  94.6928827  15.1304887  97.4133357  94.6290428  15.3152140
 100.5757781  94.9159993  15.9154211 101.1702272  94.6755729  15.2047519
 100.6484365  94.1967124  16.5427747  82.7954937 108.7593604  16.2297376
  82.6609405 107.9994005  15.6635374  82.3786999 109.4834504  15.7626165
  85.9524063 109.6562921  16.4415818  85.8356447 110.6008354  16.3394509
  85.1316509 109.3536483  16.8301618  80.2839005  96.1213235  22.4790173
  80.9297868  95.6112189  22.9677398  80.0756156  96.8581916  23.0533598
  92.8092397 103.1894082  27.9782313  93.6783556 103.3634734  27.6168948
  92.3299148 104.0088499  27.8558043  88.8042615  90.3853279   8.2314069
  88.7921285  91.3295119   8.3882340  89.6966037  90.2023425   7.9373530
  86.9778577 110.3091183  19.6571747  87.8805824 110.3414793  19.9738242
  86.7515947 109.3791634  19.6718083  92.6194735  86.9796056  12.4860006
  91.8527130  86.4254543  12.6316688  93.0305440  87.0517925  13.3474157
  84.6236496  93.2680852  26.5765187  85.4867957  92.9117657  26.7868512
  84.0501906  92.9294747  27.2640591 100.9129518 112.4115701  24.8436630
 100.1362852 112.9709621  24.8339495 101.5520081 112.8972484  25.3651501
  97.9037254 112.3740803  25.2069907  97.2735914 113.0557083  25.4405304
  97.7973342 112.2623884  24.2623046  97.1817996 106.6761568  27.5695158
  96.7884942 106.1227767  28.2442803  97.9984137 106.9872147  27.9601676
 100.0985957 108.0919448  25.1615415 100.8395671 108.6926601  25.0819877
 100.3303880 107.3497085  24.6033458  95.2427295 113.2775815  23.4393645
  95.1280811 112.3761072  23.7400744  94.3871813 113.5239512  23.0878461
 101.9237414 107.8743341  22.3862711 101.2765329 108.5733291  22.2927188
 102.6938430 108.3079485  22.7538960  97.7650574 111.2209180  22.4378807
  97.2287931 110.7699919  23.0900403  97.1767283 111.3555089  21.6949271
  93.4989695 110.3565188  19.5231801  93.4147884 109.7490858  18.7882211
  92.6772402 110.8474206  19.5241298 101.9326435 114.7398048  26.0247286
 101.2567073 114.6392177  26.6949662 102.7554069 114.5837262  26.4883284
  95.6513712 108.3940125  20.8626787  95.7155038 109.2554956  20.4504185
  95.5880832 107.7814127  20.1299146  95.1265984 110.4663258  24.5099821
  95.7538023 110.0840335  25.1237346  94.2693903 110.2477460  24.8755514
  98.2352087 107.6850110  22.6986377  98.7586489 107.9312407  23.4612686
  98.0164421 108.5170145  22.2789514  92.8771367 114.0707479  22.4773167
  92.1353103 114.2190114  23.0637797  92.5564111 114.3315744  21.6139916
  98.3634041 109.7881164  26.1713741  98.4122197 110.6643287  25.7891511
  98.9056556 109.2458557  25.5985384 100.5933330 110.5412536  22.9260100
  99.7236639 110.8346102  22.6542688 100.8292810 111.1252981  23.6467363
  99.4893855 111.2264229  28.3593683  99.3890582 112.1758586  28.2905774
  99.2715397 110.8982468  27.4869753  99.3525125 114.6561368  27.1758744
  98.8692207 115.4561728  27.3822633  99.4386064 114.6669313  26.2226188
  91.1232759 111.4505152  22.4790173  91.7691623 110.9404106  22.9677398
  90.9149910 112.1873834  23.0533598  95.4630250 108.5972769  26.5765187
  96.3261712 108.2409574  26.7868512  94.8895661 108.2586664  27.2640591
  58.9644116  36.9088007  11.7626452  58.5207971  36.1224386  11.4447356
  59.6261330  37.0967157  11.0970343  61.0625355  37.1890807   9.7907853
  61.0443830  38.0099688   9.2988122  61.9845275  37.0644882  10.0157994
  57.5198409  34.7034936  10.6331362  58.0526745  33.9423225  10.4030670
  56.9912490  34.4108588  11.3755516  66.9126087  33.6779902   6.6117691
  67.1061977  34.5825713   6.8576966  66.8126705  33.2187321   7.4456276
  61.9741195  33.8286645  12.1858571  61.8226702  33.5997197  11.2688655
  61.9645875  34.7857247  12.1989916  63.6833402  36.8605768  10.2635053
  63.6245948  36.1764988   9.5965636  64.0852920  37.6024758   9.8115679
  63.6850809  34.8245352   8.4949033  62.7977588  34.4871273   8.6175432
  64.2549360  34.0928383   8.7317798  59.6750646  39.3833638   7.6168435
  60.3878618  40.0181103   7.5444336  59.1840675  39.4797504   6.8008437
  58.5751419  30.4292500  12.7492593  57.8992056  30.3286629  13.4194968
  59.3979053  30.2731714  13.2128590  57.3174202  41.7359427   6.9850209
  57.8692510  41.8991049   7.7499294  57.6580395  42.3263865   6.3130234
  62.1685076  36.5620685  12.8398863  62.7124980  37.1750643  12.3453818
  61.5871921  37.1200263  13.3565876  57.4640013  39.3017909   8.9998863
  57.7727139  39.0567056   9.8721563  58.2615495  39.5064547   8.5117734
  65.4913870  36.0216739  12.1760185  64.7009414  36.0040878  11.6364684
  65.2547225  36.5605033  12.9309221  65.6111745  32.8709205   9.4892913
  65.6609750  32.7059213  10.4308436  65.5025669  32.0036464   9.0990794
  62.9015508  28.8540133  10.8052220  63.8025371  28.7146598  10.5136218
  62.9763482  29.0194588  11.7450397  67.1129942  35.2906147   9.7334935
  66.8214751  35.6536127  10.5698396  66.5002074  34.5773155   9.5548267
  58.2628901  33.4324440  13.0513459  59.1831910  33.6103039  13.2453506
  58.2278484  32.4880486  12.8993158  55.9950109  30.3455820  13.9004051
  55.5117190  31.1456180  14.1067940  56.0811048  30.3563765  12.9471495
  60.2911135  34.2080452  14.7027620  61.1602294  34.3821104  14.3414255
  59.8117886  35.0274869  14.5803349  71.9503610  45.9169078   4.1072895
  72.5882020  45.7975825   3.4036235  71.8324453  46.8649922   4.1660847
  68.7593317  45.8696506   4.0434419  68.4211828  45.7537570   3.1554954
  69.6283085  45.4687671   4.0235425  69.2413100  47.0231358  10.0020625
  69.2301740  46.6284156   9.1301128  69.4033739  46.2897430  10.5954396
  62.1644564  49.2183174   2.8715531  62.9565856  48.8773998   2.4561830
  62.4041214  49.3278149   3.7917684  70.1979691  51.3902950  -4.6554225
  69.5467671  51.9757030  -5.0420211  70.9924054  51.9209145  -4.5959187
  65.9620361  49.8068469   8.9499809  65.6710227  50.7114100   8.8346475
  66.5977345  49.8484997   9.6643878  66.8876568  47.1845318   5.5401168
  67.4840140  46.9601340   4.8258131  66.9451539  46.4430063   6.1426616
  71.5044879  43.6420532   1.1826103  72.2907968  43.2239955   0.8316520
  71.7683583  44.5466624   1.3507751  76.9053306  43.5795765   2.0859081
  77.6378478  43.0094982   2.3196911  76.1492662  43.1917365   2.5265587
  68.5229426  46.0023006  -0.7177576  68.1587633  45.4753627  -0.0064655
  69.3796542  45.6121475  -0.8911091  74.4278726  37.2917339   6.5453690
  74.0962051  38.1612750   6.3214905  73.8324340  36.9753623   7.2247720
  70.9210246  49.4929885   5.9449602  70.6210969  50.3954924   5.8365410
  70.5761305  49.2262068   6.7970755  64.3722727  45.9443682   1.9786307
  63.4473224  45.8119896   2.1863999  64.6207141  46.7237901   2.4756249
  74.3207390  42.0112425   3.6247040  73.4124267  41.9427833   3.3305801
  74.2694985  42.4884370   4.4528865  61.7331538  45.5876955   2.8130096
  61.8623920  45.8411434   3.7269508  61.0528990  46.1804663   2.4934751
  65.9031026  56.2574205  -1.0879430  65.8255055  57.2082030  -1.0090949
  65.2992669  55.9120078  -0.4304504  68.3948255  43.4302071  11.5681937
  67.6181589  43.9895991  11.5584802  69.0338818  43.9158854  12.0896807
  76.1869036  40.2128863   5.4024914  75.5443416  40.5061397   4.7564708
  75.6823965  40.0981784   6.2078110  66.6494628  46.2387524  11.1299904
  67.3909312  46.7772568  10.8534728  65.9431613  46.8653813  11.2871456
  72.1249967  48.3816664   9.7272066  72.5333323  47.9399075   8.9826698
  71.4027229  47.8069292   9.9806258  68.4781037  43.3189271   7.1005622
  69.3242233  43.7428685   7.2440271  68.4179675  42.6622896   7.7944186
  72.4478782  48.9417855   3.4824354  71.8187644  49.1063569   2.7800422
  72.0604444  49.3559465   4.2535318  76.3268014  49.8772293   0.8368718
  75.6419052  50.2571194   0.2865751  76.4111863  50.4867620   1.5700666
  71.6280483  40.9793640   8.7586796  71.3841415  41.7335700   8.2221072
  71.9040413  41.3578987   9.5934043  73.5818946  47.5232252   7.4364062
  73.7935841  48.1664012   6.7598443  73.5348694  46.6894568   6.9685992
  71.1845174  40.1350073   4.3400634  70.3229654  40.4331326   4.6317371
  71.2107609  40.3520471   3.4081666  68.0006744  48.6792263   0.7474440
  68.4645089  48.9579966  -0.0420938  67.7363542  47.7775708   0.5647530
  64.8930825  48.2263745   3.6854203  65.4632182  48.6551013   3.0471687
  65.4838937  47.9446329   4.3838388  65.3855991  43.3927172  11.9315214
  64.7554652  44.0743453  12.1650611  65.2792079  43.2810254  10.9868352
  74.6964773  50.4004207   5.6086419  75.5182217  49.9984395   5.3269101
  74.6927176  50.2972442   6.5602535  68.4621377  49.9488251   7.7647130
  68.5265809  50.4108658   8.6005301  67.7532301  49.3185616   7.8929439
  58.9638667  43.3129459   5.2896129  59.2146705  44.1976469   5.5553705
  59.4998215  43.1334060   4.5171221  82.7870767  46.7442956   1.9571391
  82.0334475  46.1750354   1.8015395  82.9218308  46.7105620   2.9042025
  68.1769395  51.6156358  -2.3673890  68.0415069  52.4607894  -1.9389042
  68.7179207  51.8175636  -3.1307956  64.6636734  37.6947938  14.2940465
  64.2703680  37.1414137  14.9688109  65.4802875  38.0058516  14.6846983
  63.4393677  52.2497552   0.2876788  63.6160305  53.1715517   0.0997772
  64.2350510  51.9355972   0.7171168  67.5804695  39.1105817  11.8860722
  68.3214409  39.7112970  11.8065184  67.8122618  38.3683455  11.3278764
  62.7246033  44.2962184  10.1638951  62.6099548  43.3947442  10.4646050
  61.8690551  44.5425881   9.8123768  69.8037871  52.2379925  11.7626452
  69.3601725  51.4516303  11.4447356  70.4655085  52.4259075  11.0970343
  64.5624992  53.7675726   6.2887130  65.1132417  53.6392790   5.5164124
  63.7236468  54.0670615   5.9382023  71.9019109  52.5182725   9.7907853
  71.8837584  53.3391606   9.2988122  72.8239029  52.3936800  10.0157994
  68.3592163  50.0326854  10.6331362  68.8920500  49.2715142  10.4030670
  67.8306244  49.7400506  11.3755516  71.5261858  35.1386920   6.1625003
  71.1826128  36.0288562   6.0864114  71.8940821  34.9488578   5.2994588
  70.6058399  37.5091575   4.1274237  70.1023194  37.4721710   3.3142042
  70.8989005  38.4184318   4.1870893  76.4646415  47.8827886  -3.3949388
  75.6875858  47.5439045  -3.8394226  77.1437896  47.8880509  -4.0694423
  69.7244876  49.1612847  -1.8549826  69.1966237  48.4265606  -2.1676589
  69.2232379  49.9387523  -2.1009858  74.7037722  47.3561867   3.2617220
  74.0461396  48.0461128   3.3497349  75.5078121  47.7458299   3.6051206
  73.5143181  45.7106240   1.3121162  74.0275062  46.3436232   1.8142871
  74.1644405  45.1107435   0.9464522  70.7765555  55.6890564  -5.9318167
  70.1027254  55.9922261  -5.3233209  71.1631377  56.4919644  -6.2812710
  69.9924012  43.1855695   3.5579502  69.0746573  43.4070642   3.4001190
  70.4084155  43.2602006   2.6991210  70.7759059  44.5847111  -1.3117818
  71.5230878  45.0968508  -1.6210696  71.0450649  44.2631164  -0.4513424
  74.2804977  50.6912241  -0.5599696  73.8267304  49.8503151  -0.5034505
  73.6498944  51.3273640  -0.2224916  73.2237896  41.6204227   0.6700972
  72.4860653  41.1081613   1.0011214  73.4764670  41.1804609  -0.1415751
  72.7237916  52.5288738   0.3750122  73.0160891  53.0893795  -0.3437512
  73.2336537  52.8217299   1.1303282  67.5970604  44.6934272   1.7718932
  67.6519213  43.7408109   1.6961409  66.7861806  44.8493711   2.2560231
  67.6871541  53.3069089   1.4643576  67.6447720  53.5329935   0.5352108
  68.6034240  53.0732464   1.6129377  71.1337175  43.7753156   8.3624205
  71.4886563  44.0024630   9.2218671  71.7809306  44.1071533   7.7401460
  76.8634912  46.8971592  -0.9326466  76.7252811  47.0873188  -1.8605277
  76.5071131  47.6590975  -0.4758415  65.0277038  40.8829688   5.1470546
  65.6676418  40.7418447   4.4493509  64.1954569  40.5964201   4.7709148
  76.8904292  48.9648119   4.0784805  77.3240798  48.8723408   4.9267859
  77.6035872  48.9405620   3.4404821  65.8037342  50.1832118   1.2605538
  66.5977941  49.6882438   1.0588113  65.0929035  49.6549981   0.8973244
  70.6232187  52.5650213   5.6117906  70.6769209  53.1341150   6.3795622
  69.7546968  52.7352099   5.2471943  63.5030580  42.2667770   7.0942357
  64.1753633  42.0585132   6.4455006  62.6760367  42.0689856   6.6547590
  77.7519841  49.0071820   6.6117691  77.9455731  49.9117631   6.8576966
  77.6520459  48.5479239   7.4456276  69.4056152  38.8929711   9.1108018
  68.7584067  39.5919660   9.0172495  70.1757167  39.3265855   9.4784266
  72.8134950  49.1578563  12.1858571  72.6620456  48.9289114  11.2688655
  72.8039629  50.1149164  12.1989916  69.5820286  46.7310476   7.1704838
  70.5112346  46.8821635   6.9973805  69.1611316  46.8194496   6.3153484
  68.3808618  50.7561140   4.9403375  68.2419704  50.3879924   5.8129314
  67.5923214  51.2708779   4.7687333  68.9756770  55.8570236  -3.7171088
  69.1508526  55.3858280  -2.9025465  68.2889558  56.4836003  -3.4889827
  69.9313833  50.1342743   2.3292213  69.5963666  50.0943513   3.2249863
  69.4317779  49.4687459   1.8562623  63.9058077  45.5410373   7.8544794
  63.7677875  44.8090612   8.4556333  64.8163001  45.4519273   7.5728982
  66.5340378  45.2530332   7.3428474  67.2439996  44.6123524   7.3015092
  66.4909686  45.5043227   8.2654655  74.5227157  52.1897685  10.2635053
  74.4639703  51.5056905   9.5965636  74.9246675  52.9316675   9.8115679
  65.2469312  42.2395550   9.1624114  64.7106669  41.7886288   9.8145710
  64.6586020  42.3741459   8.4194578  63.5417855  59.0059599   3.0568772
  63.7814454  59.6378123   3.7347791  62.6987052  58.6547639   3.3434131
  74.5244564  50.1537269   8.4949033  73.6371343  49.8163191   8.6175432
  75.0943115  49.4220301   8.7317798  60.9808433  41.3751558   6.2477108
  60.8966622  40.7677227   5.5127518  60.1591140  41.8660576   6.2486604
  68.0545717  54.8138722   5.4610276  67.9815889  55.6193693   5.9729581
  67.6123110  55.0130687   4.6358298  67.8435497  54.0510492  -1.0286902
  67.0603019  54.5932172  -0.9348678  68.5428242  54.5684471  -0.6292661
  79.0061904  45.5645487   3.2565595  78.9951781  46.4470202   2.8859528
  78.1379284  45.2117037   3.0620132  70.5144401  54.7125556   7.6168435
  71.2272373  55.3473020   7.5444336  70.0234429  54.8089422   6.8008437
  72.2361928  48.6176808  -0.8114274  71.3018206  48.7378271  -0.9809569
  72.4138596  47.7149275  -1.0754264  75.6234479  44.4594128  -0.2764239
  76.0894931  45.2922119  -0.3503937  76.0741980  43.9939109   0.4281019
  65.5656314  52.4619999   8.4374006  66.2665774  53.0956482   8.5903400
  65.0951429  52.8034731   7.6769645  73.6910710  50.8037949  -3.2778087
  73.9670554  50.6894543  -2.3684213  72.8215209  50.4055434  -3.3165914
  73.5951142  36.8274715   3.7626662  72.6814222  37.0578941   3.9308869
  74.0244243  36.9113159   4.6140694  73.3657600  45.0164607   6.2626556
  72.7129051  45.2640514   5.6079009  73.7437980  44.2028745   5.9289033
  70.3264774  55.0524300   0.3654726  70.5087169  54.2345956   0.8282479
  71.1497760  55.2691992  -0.0720384  70.6606940  53.9792485  -2.3730225
  71.1894706  53.4684939  -2.9860063  70.9235159  53.6635015  -1.5084692
  69.4145173  45.7584418  12.7492593  68.7385810  45.6578547  13.4194968
  70.2372807  45.6023631  13.2128590  61.1624032  51.9956354   5.3705108
  61.7477469  51.2500042   5.5033013  60.9648871  52.3060311   6.2541772
  64.0162688  55.0307602   0.3867551  63.3473063  55.5153729  -0.0968409
  63.8775557  55.2776822   1.3010929  68.1567956  57.0651345   6.9850209
  68.7086264  57.2282967   7.7499294  68.4974150  57.6555783   6.3130234
  63.1332449  39.4126495   7.5872094  63.1973776  40.2741326   7.1749491
  63.0699570  38.8000497   6.8544452  62.6084722  41.4849627  11.2345128
  63.2356761  41.1026705  11.8482652  61.7512641  41.2663829  11.6000821
  73.0078830  51.8912603  12.8398863  73.5518734  52.5042561  12.3453818
  72.4265675  52.4492181  13.3565876  71.2936343  55.0133321   3.9713891
  71.1687483  54.2123060   3.4624837  71.9515435  55.5079514   3.4827861
  73.3571252  52.8142341   5.5993441  72.4101587  52.6947692   5.5271768
  73.7054025  51.9264839   5.6819703  65.7170825  38.7036480   9.4231683
  66.2405227  38.9498776  10.1857993  65.4983158  39.5356514   9.0034821
  70.3617685  52.6095057   1.7997794  70.2142648  51.6811764   1.9805364
  71.1871179  52.6315148   1.3154869  73.9651807  53.4323616   2.8862666
  74.8898354  53.2266477   2.7487117  73.7967110  53.1840017   3.7952008
  66.9223370  39.6450175   7.1081354  66.5820191  38.8457988   7.5102034
  66.2162377  39.9451886   6.5358187  67.5739842  36.7299487   5.5608677
  68.3965911  36.2559965   5.4387567  67.8177906  37.5089971   6.0607363
  65.0978421  43.4218608   3.3700655  64.9523002  43.7358911   4.2624937
  64.6203624  44.0403508   2.8171554  66.9574804  40.4121156   3.4181545
  66.9436372  39.5162249   3.0813843  67.6747232  40.4191820   4.0519831
  68.8100934  40.8458496   5.4634672  68.5518712  41.7675567   5.4619003
  68.2785975  40.4488931   6.1535136  73.7547123  53.9509283  -1.7575242
  73.9284001  53.3855706  -2.5101390  74.2476014  54.7510178  -1.9395752
  59.5724083  45.9623952   6.3088317  59.0277551  46.7383760   6.4408591
  60.4503433  46.3094757   6.1507438  79.6086514  46.7145706  -0.1384943
  80.0517660  45.9653031  -0.5365819  78.7313025  46.7055842  -0.5211211
  74.7422296  53.2676047  -4.6578344  75.4373200  53.8882740  -4.4391029
  75.0845446  52.4171399  -4.3825966  60.3590105  45.0893848   9.2018473
  59.6171841  45.2376484   9.7883104  60.0382849  45.3502114   8.3385223
  76.6413719  50.7175753  -3.1291013  77.1665043  51.0563026  -3.8541693
  76.5536071  49.7822768  -3.3127879  68.3033767  54.6309827   8.9998863
  68.6120894  54.3858973   9.8721563  69.1009250  54.8356465   8.5117734
  68.3254380  56.7847736   1.2304240  67.8859370  56.2924115   1.9237097
  69.0762496  56.2420704   0.9896315  60.8046719  52.9759277   1.2328868
  61.6304738  52.6763049   0.8527512  60.4540771  52.2066900   1.6818657
  65.7728252  52.3285745   3.3026542  65.1508261  51.6656450   3.0028770
  66.4433119  52.3546877   2.6200189  59.0055324  50.8945604   2.1917802
  58.1687232  50.4667778   2.0101803  58.9778969  51.0878047   3.1288593
  65.8452779  40.8067533  12.8959048  65.8940935  41.6829656  12.5136817
  66.3875293  40.2644926  12.3230691  76.3307625  51.3508657  12.1760185
  75.5403169  51.3332796  11.6364684  76.0940979  51.8896950  12.9309221
  76.4505500  48.2001123   9.4892913  76.5003505  48.0351130  10.4308436
  76.3419423  47.3328382   9.0990794  73.7409262  44.1832051  10.8052220
  74.6419125  44.0438516  10.5136218  73.8157237  44.3486506  11.7450397
  68.0752068  41.5598906   9.6505406  67.2055377  41.8532472   9.3787995
  68.3111548  42.1439351  10.3712670  77.9523697  50.6198065   9.7334935
  77.6608505  50.9828045  10.5698396  77.3395828  49.9065073   9.5548267
  79.1519379  48.1850944   2.2537505  79.9866270  48.6240748   2.4175065
  79.2878508  47.7089598   1.4345751  76.2010885  45.7430679   8.2014993
  76.6765007  45.9358325   7.3933844  75.2776450  45.7989865   7.9558376
  70.7791101  37.7778523   7.1670827  71.2973045  38.5139550   6.8417315
  70.4246234  38.0842516   8.0017586  74.9012554  42.6196439   6.4343298
  75.8529977  42.7194537   6.4555522  74.7316004  41.8274708   6.9441383
  72.9226933  39.7052022   6.6202699  72.3276866  39.9857035   5.9249188
  72.6376630  40.1945923   7.3919440  72.0534424  53.6574949  -4.6194668
  72.9865097  53.5920511  -4.4161793  71.9657637  54.4931216  -5.0780135
  74.6822441  52.9740820  -7.6590721  74.6036072  52.6400683  -6.7654963
  75.5032107  53.4662588  -7.6599248  77.3800632  45.8402559   5.5485598
  77.3476952  44.9018560   5.7345282  77.9901255  45.9186596   4.8151423
  77.5295120  42.6313602   5.5943881  77.0134169  41.8472059   5.4073810
  78.4135069  42.3032319   5.7590401  75.1905847  36.3754618   1.5539694
  74.9930668  36.0669706   2.4383026  75.8005553  37.1016257   1.6837624
  83.1977182  46.9018566   4.6891635  83.9280570  46.6403854   5.2499338
  82.5884127  46.1647288   4.7293703  81.2792479  45.0426428   5.2866086
  80.5525642  44.9082393   4.6782578  80.8639766  45.3503257   6.0922804
  69.1022655  48.7616358  13.0513459  70.0225665  48.9394957  13.2453506
  69.0672238  47.8172403  12.8993158  62.0984728  46.6717393   5.6936240
  62.3170737  47.6034501   5.7124274  62.5110502  46.3125367   6.4791044
  66.9712593  42.2450598  15.0838989  66.8709320  43.1944955  15.0151080
  66.7534135  41.9168837  14.2115059  58.1893080  47.5757863   3.9459855
  57.4956552  47.1611816   3.4329810  58.9366071  47.6178400   3.3493274
  66.8343863  45.6747737  13.9004051  66.3510945  46.4748097  14.1067940
  66.9204802  45.6855682  12.9471495  62.7617201  49.5652272   5.9372485
  63.7160454  49.5336214   5.8702416  62.5629724  49.1042896   6.7522711
  63.3516583  48.1353388   8.5043282  64.1709472  48.6297467   8.5278120
  63.6253390  47.2185356   8.4760850  76.4597715  40.5510661   1.5825577
  77.2358105  41.0407114   1.8550194  75.7345849  40.9768716   2.0397447
  78.8970274  41.2638281   2.6399518  79.4914764  41.0234017   1.9292826
  78.9696857  40.5445411   3.2673054  61.1167429  55.1071892   2.9542682
  60.9821897  54.3472292   2.3880681  60.6999492  55.8312791   2.4871471
  73.0824203  46.0418676  -1.9178472  73.0259404  46.4987228  -2.7570840
  73.6352545  45.2809361  -2.0955629  76.8929009  41.8308408  -1.0928353
  76.6365943  41.4305044  -0.2620145  76.2681877  42.5452202  -1.2178213
  81.2041346  44.5704481   1.4142939  80.6440904  44.6397671   2.1874501
  80.5984850  44.3945466   0.6942435  64.2736555  56.0041209   3.1661125
  64.1568939  56.9486641   3.0639815  63.4529001  55.7014770   3.5546924
  74.1613090  50.7291344  -5.9882282  74.9958694  50.2972543  -6.1704807
  73.9997433  50.5573358  -5.0605388  58.6051497  42.4691522   9.2035479
  59.2510361  41.9590476   9.6922705  58.3968648  43.2060204   9.7778905
  71.1304889  49.5372369  14.7027620  71.9996049  49.7113022  14.3414255
  70.6511641  50.3566786  14.5803349  65.2991069  56.6569470   6.3817054
  66.2018316  56.6893081   6.6983549  65.0728439  55.7269921   6.3963389
  67.0544671  55.4100457   3.0427132  66.1040302  55.4102319   2.9291504
  67.3577158  54.6633192   2.5263167  62.9448988  39.6159139  13.3010494
  63.8080449  39.2595944  13.5113818  62.3714399  39.2773034  13.9885898
  82.7897365  61.2460995   4.1072895  83.4275775  61.1267743   3.4036235
  82.6718208  62.1941839   4.1660847  79.5987071  61.1988423   4.0434419
  79.2605583  61.0829488   3.1554954  80.4676839  60.7979589   4.0235425
  75.4573887  63.0523900   0.0331310  74.8938752  62.9613837  -0.7352402
  75.3426282  62.2323804   0.5133803  80.0806854  62.3523275  10.0020625
  80.0695495  61.9576073   9.1301128  80.2427494  61.6189348  10.5954396
  73.0038319  64.5475091   2.8715531  73.7959611  64.2065916   2.4561830
  73.2434969  64.6570067   3.7917684  81.0373446  66.7194868  -4.6554225
  80.3861425  67.3048948  -5.0420211  81.8317808  67.2501062  -4.5959187
  74.9629073  63.8084005  -4.2567091  75.7359949  63.2612992  -4.3954215
  75.3154472  64.6728254  -4.0452629  76.8014115  65.1360387   8.9499809
  76.5103981  66.0406018   8.8346475  77.4371100  65.1776915   9.6643878
  77.7270322  62.5137236   5.5401168  78.3233894  62.2893258   4.8258131
  77.7845294  61.7721981   6.1426616  77.2995351  59.9676671  -6.6248641
  77.5520871  59.4458192  -7.3865178  76.3619910  59.8042816  -6.5221957
  82.3438633  58.9712449   1.1826103  83.1301723  58.5531872   0.8316520
  82.6077338  59.8758541   1.3507751  82.5148711  64.4085300  -4.1185241
  81.8794544  64.4819926  -3.4064336  82.1846117  64.9978898  -4.7966161
  87.7447060  58.9087682   2.0859081  88.4772232  58.3386899   2.3196911
  86.9886416  58.5209283   2.5265587  77.0191639  61.8704777  -4.4224266
  76.9027897  61.1949680  -3.7543181  77.1293899  61.3837151  -5.2392113
  79.3623180  61.3314924  -0.7177576  78.9981387  60.8045545  -0.0064655
  80.2190296  60.9413393  -0.8911091  85.2672481  52.6209257   6.5453690
  84.9355806  53.4904667   6.3214905  84.6718094  52.3045541   7.2247720
  79.0028667  56.3604824  -5.7216228  79.1703070  57.2285060  -5.3545757
  78.8125836  56.5232105  -6.6454939  81.7604000  64.8221803   5.9449602
  81.4604723  65.7246841   5.8365410  81.4155060  64.5553986   6.7970755
  75.2116482  61.2735599   1.9786307  74.2866978  61.1411813   2.1863999
  75.4600895  62.0529819   2.4756249  85.1601144  57.3404343   3.6247040
  84.2518021  57.2719751   3.3305801  85.1088740  57.8176288   4.4528865
  78.9817888  58.8162481  -4.7369561  78.8617513  59.2619532  -3.8984081
  78.2870476  59.1647799  -5.2956023  72.5725293  60.9168873   2.8130096
  72.7017674  61.1703352   3.7269508  71.8922744  61.5096581   2.4934751
  76.7424780  71.5866123  -1.0879430  76.6648810  72.5373948  -1.0090949
  76.1386424  71.2411995  -0.4304504  79.2342010  58.7593988  11.5681937
  78.4575344  59.3187908  11.5584802  79.8732573  59.2450771  12.0896807
  87.0262791  55.5420781   5.4024914  86.3837171  55.8353314   4.7564708
  86.5217719  55.4273701   6.2078110  84.6802954  59.2883954  -3.9089227
  85.5920810  59.5211341  -4.0841529  84.1712601  59.8720998  -4.4714148
  77.4888382  61.5679442  11.1299904  78.2303067  62.1064486  10.8534728
  76.7825368  62.1945730  11.2871456  82.9643722  63.7108582   9.7272066
  83.3727078  63.2690993   8.9826698  82.2420983  63.1361210   9.9806258
  79.3174792  58.6481189   7.1005622  80.1635987  59.0720602   7.2440271
  79.2573430  57.9914813   7.7944186  83.2872537  64.2709773   3.4824354
  82.6581399  64.4355487   2.7800422  82.8998199  64.6851382   4.2535318
  87.1661768  65.2064211   0.8368718  86.4812807  65.5863112   0.2865751
  87.2505618  65.8159537   1.5700666  82.4674237  56.3085557   8.7586796
  82.2235169  57.0627618   8.2221072  82.7434168  56.6870905   9.5934043
  84.4212700  62.8524170   7.4364062  84.6329595  63.4955929   6.7598443
  84.3742448  62.0186486   6.9685992  82.0238929  55.4641990   4.3400634
  81.1623408  55.7623244   4.6317371  82.0501364  55.6812389   3.4081666
  78.8400498  64.0084181   0.7474440  79.3038844  64.2871884  -0.0420938
  78.5757297  63.1067625   0.5647530  75.7324579  63.5555662   3.6854203
  76.3025937  63.9842931   3.0471687  76.3232691  63.2738247   4.3838388
  77.7769384  60.1307333  -2.4435995  78.4793428  60.5828377  -1.9762069
  77.4450013  59.4891152  -1.8156102  76.2249746  58.7219090  11.9315214
  75.5948407  59.4035371  12.1650611  76.1185834  58.6102171  10.9868352
  71.5194718  58.3890886   2.8581138  70.7293772  58.6448414   2.3821249
  72.0105966  59.2039224   2.9633179  85.5358528  65.7296125   5.6086419
  86.3575972  65.3276312   5.3269101  85.5320931  65.6264359   6.5602535
  73.4709464  58.7535465  -0.1835385  72.6740627  58.8654159   0.3348111
  73.2435056  59.0922117  -1.0494495  79.3015131  65.2780168   7.7647130
  79.3659564  65.7400576   8.6005301  78.5926055  64.6477533   7.8929439
  69.8032421  58.6421376   5.2896129  70.0540460  59.5268386   5.5553705
  70.3391970  58.4625978   4.5171221  93.6264521  62.0734874   1.9571391
  92.8728229  61.5042272   1.8015395  93.7612062  62.0397538   2.9042025
  79.0163149  66.9448276  -2.3673890  78.8808824  67.7899812  -1.9389042
  79.5572962  67.1467553  -3.1307956  75.5030489  53.0239856  14.2940465
  75.1097434  52.4706054  14.9688109  76.3196629  53.3350434  14.6846983
  72.4692546  64.4623714  -1.7945965  72.9817067  65.2566964  -1.6440400
  73.1215259  63.7650004  -1.8612364  74.2787431  67.5789470   0.2876788
  74.4554060  68.5007435   0.0997772  75.0744265  67.2647889   0.7171168
  78.4198450  54.4397735  11.8860722  79.1608163  55.0404888  11.8065184
  78.6516373  53.6975373  11.3278764  73.5639788  59.6254102  10.1638951
  73.4493303  58.7239359  10.4646050  72.7084305  59.8717799   9.8123768
  80.6431625  67.5671842  11.7626452  80.1995480  66.7808221  11.4447356
  81.3048839  67.7550993  11.0970343  75.4018747  69.0967644   6.2887130
  75.9526172  68.9684707   5.5164124  74.5630223  69.3962533   5.9382023
  82.7412864  67.8474642   9.7907853  82.7231339  68.6683523   9.2988122
  83.6632784  67.7228717  10.0157994  79.1985918  65.3618772  10.6331362
  79.7314254  64.6007060  10.4030670  78.6699999  65.0692424  11.3755516
  82.3655613  50.4678838   6.1625003  82.0219882  51.3580479   6.0864114
  82.7334575  50.2780495   5.2994588  70.4341463  62.7912368  -1.0186395
  71.2716685  63.2009377  -1.2352687  70.6119731  61.8511810  -1.0486201
  82.3305895  60.4587449  -5.3302562  81.8152519  61.2292053  -5.0914174
  82.0583204  59.7852585  -4.7069500  79.9153006  55.3037150  -0.2717323
  79.0594603  54.9144000  -0.4511684  80.3279958  55.3829110  -1.1317538
  81.4452153  52.8383493   4.1274237  80.9416949  52.8013628   3.3142042
  81.7382760  53.7476236   4.1870893  77.6895039  52.9222223   3.1340418
  78.5548036  52.7265031   2.7746308  77.7572548  52.6932574   4.0609775
  87.3040169  63.2119803  -3.3949388  86.5269612  62.8730963  -3.8394226
  87.9831650  63.2172427  -4.0694423  82.1192199  58.3314541  -3.5042780
  81.8142334  58.6460690  -2.6532637  83.0722641  58.4095961  -3.4615447
  80.5638630  64.4904764  -1.8549826  80.0359992  63.7557524  -2.1676589
  80.0626133  65.2679441  -2.1009858  85.5431476  62.6853785   3.2617220
  84.8855151  63.3753046   3.3497349  86.3471876  63.0750217   3.6051206
  75.2957358  55.1524430   0.5056785  75.8701110  54.9299612  -0.2270022
  75.8828340  55.2213125   1.2585386  84.3536935  61.0398157   1.3121162
  84.8668817  61.6728149   1.8142871  85.0038159  60.4399353   0.9464522
  75.6226945  57.1828892  -5.4747330  74.7864257  57.5203578  -5.1538055
  75.4831715  57.0477871  -6.4120193  77.5980026  52.0265679  -0.7668145
  76.9444438  51.7114697  -1.3911531  77.5560500  51.4041420  -0.0408323
  78.7091231  62.3084974  -8.8514853  77.8018292  62.0774228  -8.6523704
  79.2062263  61.5122594  -8.6640872  81.6159309  71.0182482  -5.9318167
  80.9421008  71.3214178  -5.3233209  82.0025131  71.8211562  -6.2812710
  80.8317766  58.5147613   3.5579502  79.9140327  58.7362560   3.4001190
  81.2477910  58.5893923   2.6991210  81.6152814  59.9139029  -1.3117818
  82.3624633  60.4260426  -1.6210696  81.8844403  59.5923081  -0.4513424
  79.8879464  62.4097569  -4.3290863  78.9790683  62.1256602  -4.2318394
  79.9174548  62.8296648  -5.1887556  85.1198731  66.0204159  -0.5599696
  84.6661059  65.1795069  -0.5034505  84.4892698  66.6565557  -0.2224916
  84.0631651  56.9496145   0.6700972  83.3254408  56.4373531   1.0011214
  84.3158425  56.5096526  -0.1415751  83.5631671  67.8580656   0.3750122
  83.8554645  68.4185713  -0.3437512  84.0730291  68.1509217   1.1303282
  84.1643278  49.7272397   1.2642741  84.4702155  48.8669760   0.9768656
  84.8895883  50.3190017   1.0641735  70.4567634  60.1303083  -0.3475661
  70.2592034  59.5372444  -1.0724594  69.9014298  59.8255294   0.3700278
  78.4364358  60.0226190   1.7718932  78.4912968  59.0700026   1.6961409
  77.6255560  60.1785629   2.2560231  79.5855552  63.9506313  -6.9902785
  79.1474982  63.2342172  -7.4497147  80.3265993  64.1782428  -7.5517693
  76.3756718  58.6403250  -0.4690689  75.5624583  58.9397420  -0.0625497
  76.8715712  58.2458938   0.2483793  78.5265296  68.6361007   1.4643576
  78.4841475  68.8621853   0.5352108  79.4427995  68.4024381   1.6129377
  81.9730930  59.1045074   8.3624205  82.3280317  59.3316547   9.2218671
  82.6203061  59.4363451   7.7401460  87.7028667  62.2263510  -0.9326466
  87.5646565  62.4165106  -1.8605277  87.3464885  62.9882893  -0.4758415
  75.8670793  56.2121605   5.1470546  76.5070172  56.0710364   4.4493509
  75.0348323  55.9256119   4.7709148  87.7298046  64.2940037   4.0784805
  88.1634553  64.2015326   4.9267859  88.4429627  64.2697538   3.4404821
  76.6431097  65.5124036   1.2605538  77.4371695  65.0174356   1.0588113
  75.9322789  64.9841899   0.8973244  81.4625941  67.8942131   5.6117906
  81.5162963  68.4633067   6.3795622  80.5940722  68.0644016   5.2471943
  72.9513860  59.6567117  -2.6634709  72.0211448  59.5951573  -2.4464747
  73.0471332  59.1343070  -3.4598068  72.8699409  56.1821930  -0.0756467
  73.1306226  57.0967263  -0.1847307  73.6916581  55.7146373   0.0740146
  74.3424334  57.5959687   7.0942357  75.0147388  57.3877050   6.4455006
  73.5154121  57.3981773   6.6547590  88.5913596  64.3363738   6.6117691
  88.7849486  65.2409548   6.8576966  88.4914214  63.8771157   7.4456276
  80.2449906  54.2221628   9.1108018  79.5977822  54.9211578   9.0172495
  81.0150922  54.6557772   9.4784266  83.6528704  64.4870480  12.1858571
  83.5014211  64.2581032  11.2688655  83.6433384  65.4441082  12.1989916
  80.4214041  62.0602393   7.1704838  81.3506101  62.2113553   6.9973805
  80.0005071  62.1486414   6.3153484  79.2202373  66.0853058   4.9403375
  79.0813458  65.7171842   5.8129314  78.4316969  66.6000697   4.7687333
  79.8150525  71.1862154  -3.7171088  79.9902280  70.7150197  -2.9025465
  79.1283313  71.8127920  -3.4889827  80.7707588  65.4634660   2.3292213
  80.4357420  65.4235430   3.2249863  80.2711533  64.7979376   1.8562623
  74.7451832  60.8702290   7.8544794  74.6071630  60.1382529   8.4556333
  75.6556755  60.7811190   7.5728982  83.7066779  62.8090695  -7.3970727
  83.0895950  62.0837523  -7.4937674  83.2383268  63.5700055  -7.7403653
  77.3734132  60.5822250   7.3428474  78.0833751  59.9415442   7.3015092
  77.3303441  60.8335145   8.2654655  85.3620911  67.5189603  10.2635053
  85.3033457  66.8348823   9.5965636  85.7640429  68.2608593   9.8115679
  76.0863066  57.5687468   9.1624114  75.5500423  57.1178206   9.8145710
  75.4979775  57.7033376   8.4194578  74.3811610  74.3351517   3.0568772
  74.6208208  74.9670041   3.7347791  73.5380806  73.9839557   3.3434131
  75.4965325  57.0276119  -8.2749423  74.6194792  56.9064920  -8.6387176
  75.9723078  56.2362197  -8.5270534  85.3638318  65.4829187   8.4949033
  84.4765097  65.1455109   8.6175432  85.9336869  64.7512218   8.7317798
  67.0167465  61.8153279   1.8192084  67.7038505  61.5015009   1.2313100
  66.8615594  62.7194643   1.5459336  71.8202188  56.7043475   6.2477108
  71.7360376  56.0969145   5.5127518  70.9984894  57.1952494   6.2486604
  78.8939472  70.1430639   5.4610276  78.8209643  70.9485611   5.9729581
  78.4516865  70.3422605   4.6358298  78.6829251  69.3802409  -1.0286902
  77.8996773  69.9224090  -0.9348678  79.3821997  69.8976389  -0.6292661
  81.9925901  55.1897039   1.6147303  82.4894601  54.4367001   1.2948373
  81.2212883  55.2261355   1.0490512  89.8455659  60.8937404   3.2565595
  89.8345535  61.7762120   2.8859528  88.9773038  60.5408955   3.0620132
  81.3538155  70.0417473   7.6168435  82.0666127  70.6764938   7.5444336
  80.8628184  70.1381339   6.8008437  83.0755682  63.9468726  -0.8114274
  82.1411961  64.0670188  -0.9809569  83.2532351  63.0441193  -1.0754264
  78.5760870  57.3314422   1.3418988  78.2058658  56.7785462   2.0299893
  79.0719963  56.7272555   0.7893988  86.4628234  59.7886045  -0.2764239
  86.9288686  60.6214037  -0.3503937  86.9135734  59.3231027   0.4281019
  76.4050069  67.7911917   8.4374006  77.1059528  68.4248400   8.5903400
  75.9345184  68.1326648   7.6769645  84.5304465  66.1329867  -3.2778087
  84.8064309  66.0186461  -2.3684213  83.6608963  65.7347351  -3.3165914
  84.4344896  52.1566632   3.7626662  83.5207976  52.3870859   3.9308869
  84.8637998  52.2405076   4.6140694  84.2051355  60.3456524   6.2626556
  83.5522805  60.5932432   5.6079009  84.5831735  59.5320662   5.9289033
  81.1658529  70.3816217   0.3654726  81.3480923  69.5637873   0.8282479
  81.9891515  70.5983910  -0.0720384  81.5000694  69.3084403  -2.3730225
  82.0288461  68.7976857  -2.9860063  81.7628914  68.9926933  -1.5084692
  80.2538928  61.0876335  12.7492593  79.5779565  60.9870465  13.4194968
  81.0766562  60.9315549  13.2128590  72.0017787  67.3248272   5.3705108
  72.5871224  66.5791960   5.5033013  71.8042625  67.6352229   6.2541772
  74.8556442  70.3599519   0.3867551  74.1866817  70.8445647  -0.0968409
  74.7169312  70.6068740   1.3010929  66.5935442  59.8953872   4.0909551
  66.6319541  59.3617463   4.8846670  66.0875734  59.3689078   3.4720529
  78.9961711  72.3943263   6.9850209  79.5480019  72.5574884   7.7499294
  79.3367904  72.9847701   6.3130234  73.9726204  54.7418413   7.5872094
  74.0367530  55.6033243   7.1749491  73.9093324  54.1292414   6.8544452
  73.4478476  56.8141545  11.2345128  74.0750515  56.4318622  11.8482652
  72.5906395  56.5955747  11.6000821  83.8472585  67.2204520  12.8398863
  84.3912489  67.8334479  12.3453818  83.2659430  67.7784099  13.3565876
  70.2244019  58.6217974  -2.8336517  70.5197460  57.7128653  -2.8869463
  69.3232055  58.6005714  -3.1555515  82.1330098  70.3425238   3.9713891
  82.0081237  69.5414978   3.4624837  82.7909189  70.8371432   3.4827861
  73.7538266  56.6973971   3.1491031  73.0324852  57.3109938   3.0098505
  74.5431522  57.2331736   3.0707677  84.1965006  68.1434258   5.5993441
  83.2495342  68.0239610   5.5271768  84.5447779  67.2556756   5.6819703
  76.5564580  54.0328397   9.4231683  77.0798982  54.2790694  10.1857993
  76.3376913  54.8648432   9.0034821  71.9531861  56.3032072  -2.7097192
  71.6244567  55.4229451  -2.8922086  72.3071231  56.2479741  -1.8220803
  81.2011440  67.9386975   1.7997794  81.0536402  67.0103682   1.9805364
  82.0264933  67.9607065   1.3154869  75.0673684  56.5905042  -2.3421714
  75.4069756  57.1190963  -3.0643106  75.5145804  56.9285448  -1.5663148
  84.8045561  68.7615533   2.8862666  85.7292109  68.5558395   2.7487117
  84.6360865  68.5131934   3.7952008  77.7617125  54.9742092   7.1081354
  77.4213945  54.1749905   7.5102034  77.0556131  55.2743803   6.5358187
  78.4133597  52.0591405   5.5608677  79.2359666  51.5851883   5.4387567
  78.6571660  52.8381889   6.0607363  77.0541831  55.0879663  -4.1428422
  77.7750194  55.4660916  -4.6464705  76.4307135  55.8068540  -4.0393444
  81.1972954  55.7924812  -3.2070089  81.4136568  56.6749450  -3.5081261
  80.7167021  55.4011026  -3.9364447  75.9372175  58.7510525   3.3700655
  75.7916756  59.0650829   4.2624937  75.4597379  59.3695426   2.8171554
  77.7968558  55.7413073   3.4181545  77.7830127  54.8454167   3.0813843
  78.5140986  55.7483737   4.0519831  79.6494689  56.1750414   5.4634672
  79.3912467  57.0967484   5.4619003  79.1179729  55.7780848   6.1535136
  84.5940878  69.2801201  -1.7575242  84.7677755  68.7147623  -2.5101390
  85.0869769  70.0802096  -1.9395752  70.4117837  61.2915870   6.3088317
  69.8671306  62.0675678   6.4408591  71.2897187  61.6386674   6.1507438
  77.2005454  54.6227454  -1.3130885  77.3221365  53.6944100  -1.1139997
  76.9107496  54.6366140  -2.2252570  80.0696645  52.3082364   1.8235835
  80.0918341  52.3721697   0.8687814  80.4864704  51.4686873   2.0176341
  90.4480269  62.0437624  -0.1384943  90.8911415  61.2944949  -0.5365819
  89.5706779  62.0347760  -0.5211211  85.5816050  68.5967965  -4.6578344
  86.2766955  69.2174658  -4.4391029  85.9239200  67.7463316  -4.3825966
  71.1983859  60.4185766   9.2018473  70.4565595  60.5668401   9.7883104
  70.8776604  60.6794032   8.3385223  87.4807473  66.0467671  -3.1291013
  88.0058797  66.3854943  -3.8541693  87.3929826  65.1114686  -3.3127879
  79.1427522  69.9601744   8.9998863  79.4514648  69.7150891   9.8721563
  79.9403004  70.1648383   8.5117734  79.1648134  72.1139654   1.2304240
  78.7253124  71.6216033   1.9237097  79.9156251  71.5712622   0.9896315
  71.6440473  68.3051195   1.2328868  72.4698493  68.0054967   0.8527512
  71.2934525  67.5358817   1.6818657  76.6122006  67.6577663   3.3026542
  75.9902015  66.9948368   3.0028770  77.2826873  67.6838795   2.6200189
  69.8449078  66.2237521   2.1917802  69.0080986  65.7959696   2.0101803
  69.8172723  66.4169965   3.1288593  76.6846534  56.1359451  12.8959048
  76.7334689  57.0121574  12.5136817  77.2269048  55.5936844  12.3230691
  87.1701379  66.6800574  12.1760185  86.3796923  66.6624713  11.6364684
  86.9334734  67.2188868  12.9309221  87.2899254  63.5293041   9.4892913
  87.3397259  63.3643048  10.4308436  87.1813178  62.6620300   9.0990794
  76.1735513  66.2081586  -3.2214998  76.3223633  66.8917051  -3.8748325
  76.9801957  66.1886676  -2.7065542  84.5803017  59.5123969  10.8052220
  85.4812880  59.3730434  10.5136218  84.6550991  59.6778424  11.7450397
  78.9145822  56.8890823   9.6505406  78.0449132  57.1824390   9.3787995
  79.1505302  57.4731268  10.3712670  88.7917451  65.9489982   9.7334935
  88.5002260  66.3119963  10.5698396  88.1789583  65.2356991   9.5548267
  89.9913134  63.5142862   2.2537505  90.8260025  63.9532666   2.4175065
  90.1272262  63.0381515   1.4345751  87.0404639  61.0722597   8.2014993
  87.5158761  61.2650243   7.3933844  86.1170205  61.1281783   7.9558376
  73.9288146  62.2346764  -2.2153929  73.6834188  61.3309094  -2.0173719
  74.0984061  62.2363914  -3.1574451  81.6184856  53.1070440   7.1670827
  82.1366800  53.8431467   6.8417315  81.2639989  53.4134434   8.0017586
  73.1983794  57.9675122  -4.7167767  72.5053039  58.0419477  -5.3727731
  72.9535546  57.2035465  -4.1946251  81.8697450  49.5270723   2.6871723
  82.1499204  48.8593912   3.3132150  82.6548057  49.7199819   2.1746387
  79.6730919  68.7029717  -5.7503250  79.1004886  69.3219904  -6.2032779
  80.2463712  69.2529079  -5.2163328  85.7406308  57.9488357   6.4343298
  86.6923731  58.0486455   6.4555522  85.5709759  57.1566625   6.9441383
  83.7620688  55.0343940   6.6202699  83.1670620  55.3148953   5.9249188
  83.4770385  55.5237841   7.3919440  82.8928178  68.9866867  -4.6194668
  83.8258852  68.9212429  -4.4161793  82.8051391  69.8223134  -5.0780135
  85.5216195  68.3032737  -7.6590721  85.4429827  67.9692601  -6.7654963
  86.3425862  68.7954505  -7.6599248  88.2194386  61.1694477   5.5485598
  88.1870706  60.2310477   5.7345282  88.8295010  61.2478513   4.8151423
  80.0577717  60.0390530  -8.4087198  81.0036822  59.9096738  -8.3398780
  79.6791962  59.3005192  -7.9317770  88.3688875  57.9605520   5.5943881
  87.8527923  57.1763977   5.4073810  89.2528823  57.6324237   5.7590401
  86.0299602  51.7046536   1.5539694  85.8324423  51.3961624   2.4383026
  86.6399307  52.4308175   1.6837624  94.0370936  62.2310483   4.6891635
  94.7674325  61.9695772   5.2499338  93.4277882  61.4939205   4.7293703
  92.1186233  60.3718346   5.2866086  91.3919397  60.2374311   4.6782578
  91.7033520  60.6795175   6.0922804  79.9416410  64.0908276  13.0513459
  80.8619419  64.2686875  13.2453506  79.9065993  63.1464321  12.8993158
  78.2420634  57.9640506  -8.4732313  77.3352090  57.6673619  -8.3969599
  78.5196615  57.6670324  -9.3398026  69.1598575  59.2846869   1.9766734
  68.8401359  58.4312178   1.6841108  68.6132003  59.4995448   2.7324701
  72.9378482  62.0009310   5.6936240  73.1564492  62.9326418   5.7124274
  73.3504256  61.6417285   6.4791044  79.8582700  52.5077396  -2.3188071
  79.0483428  52.1624481  -1.9432825  80.5467117  52.1984939  -1.7300460
  81.7873248  51.5855443  -0.6963775  82.3404287  52.0050896  -0.0373752
  82.0243335  50.6591191  -0.6540819  77.8106348  57.5742516  15.0838989
  77.7103074  58.5236873  15.0151080  77.5927890  57.2460755  14.2115059
  77.0119419  54.8227441  -8.3320333  77.8738583  55.1482340  -8.0724516
  77.1969763  54.0358937  -8.8447268  69.0286835  62.9049781   3.9459855
  68.3350306  62.4903734   3.4329810  69.7759826  62.9470317   3.3493274
  85.1652055  53.6955968  -1.1885110  84.5850724  54.3540772  -1.5707058
  84.8987988  52.8733312  -1.5997693  83.6155622  53.0961025   1.0136210
  84.1155400  53.2077560   0.2050529  84.2591230  52.7922078   1.6537018
  77.6737618  61.0039655  13.9004051  77.1904699  61.8040015  14.1067940
  77.7598557  61.0147600  12.9471495  70.9423577  62.8368035   1.8225870
  70.9194265  62.9355722   0.8707753  71.2524214  63.6833185   2.1443036
  73.6010955  64.8944190   5.9372485  74.5554209  64.8628132   5.8702416
  73.4023479  64.4334813   6.7522711  74.1910337  63.4645306   8.5043282
  75.0103226  63.9589384   8.5278120  74.4647145  62.5477274   8.4760850
  83.9476933  55.8556058  -2.1328762  83.0602788  56.1405709  -2.3508567
  84.3630922  55.6949821  -2.9801485  87.2991470  55.8802579   1.5825577
  88.0751860  56.3699031   1.8550194  86.5739604  56.3060633   2.0397447
  89.7364028  56.5930198   2.6399518  90.3308519  56.3525934   1.9292826
  89.8090612  55.8737329   3.2673054  71.9561184  70.4363809   2.9542682
  71.8215652  69.6764210   2.3880681  71.5393246  71.1604709   2.4871471
  83.0920147  65.6200733  -8.0380742  83.7955997  65.8250735  -7.4223087
  82.3682796  66.1877495  -7.7731659  83.9217957  61.3710594  -1.9178472
  83.8653159  61.8279145  -2.7570840  84.4746300  60.6101279  -2.0955629
  87.7322763  57.1600326  -1.0928353  87.4759697  56.7596962  -0.2620145
  87.1075631  57.8744120  -1.2178213  92.0435101  59.8996399   1.4142939
  91.4834659  59.9689588   2.1874501  91.4378604  59.7237384   0.6942435
  75.1130310  71.3333126   3.1661125  74.9962694  72.2778559   3.0639815
  74.2922756  71.0306688   3.5546924  85.0006844  66.0583262  -5.9882282
  85.8352448  65.6264460  -6.1704807  84.8391187  65.8865276  -5.0605388
  84.6552736  62.5615375  -4.6225943  84.6001540  62.3959647  -5.5637499
  84.0298792  63.2691408  -4.4663753  69.4445251  57.7983440   9.2035479
  70.0904115  57.2882394   9.6922705  69.2362403  58.5352121   9.7778905
  81.9698644  64.8664287  14.7027620  82.8389803  65.0404939  14.3414255
  81.4905395  65.6858704  14.5803349  77.9648862  52.0623484  -5.0440624
  77.9527532  53.0065324  -4.8872354  78.8572284  51.8793630  -5.3381163
  76.1384824  71.9861388   6.3817054  77.0412071  72.0184998   6.6983549
  75.9122194  71.0561839   6.3963389  77.8938426  70.7392375   3.0427132
  76.9434057  70.7394236   2.9291504  78.1970912  69.9925109   2.5263167
  81.7800981  48.6566261  -0.7894688  81.0133377  48.1024748  -0.6438005
  82.1911686  48.7288130   0.0719464  73.7842742  54.9451057  13.3010494
  74.6474204  54.5887862  13.5113818  73.2108153  54.6064952  13.9885898
  93.6291119  76.5752913   4.1072895  94.2669529  76.4559660   3.4036235
  93.5111962  77.5233757   4.1660847  90.4380826  76.5280341   4.0434419
  90.0999337  76.4121406   3.1554954  91.3070594  76.1271506   4.0235425
  86.2967641  78.3815818   0.0331310  85.7332506  78.2905754  -0.7352402
  86.1820036  77.5615722   0.5133803  90.9200609  77.6815193  10.0020625
  90.9089249  77.2867991   9.1301128  91.0821248  76.9481265  10.5954396
  83.8432073  79.8767009   2.8715531  84.6353365  79.5357834   2.4561830
  84.0828723  79.9861984   3.7917684  87.6407870  80.4652305   8.9499809
  87.3497736  81.3697936   8.8346475  88.2764854  80.5068832   9.6643878
  88.5664077  77.8429153   5.5401168  89.1627649  77.6185176   4.8258131
  88.6239048  77.1013899   6.1426616  93.1832388  74.3004367   1.1826103
  93.9695477  73.8823790   0.8316520  93.4471092  75.2050459   1.3507751
  98.5840815  74.2379600   2.0859081  99.3165987  73.6678817   2.3196911
  97.8280171  73.8501201   2.5265587  90.2016935  76.6606842  -0.7177576
  89.8375142  76.1337463  -0.0064655  91.0584051  76.2705311  -0.8911091
  96.1066235  67.9501174   6.5453690  95.7749560  68.8196585   6.3214905
  95.5111849  67.6337458   7.2247720  92.5997755  80.1513720   5.9449602
  92.2998478  81.0538759   5.8365410  92.2548814  79.8845903   6.7970755
  86.0510236  76.6027517   1.9786307  85.1260733  76.4703731   2.1863999
  86.2994650  77.3821736   2.4756249  95.9994899  72.6696260   3.6247040
  95.0911776  72.6011669   3.3305801  95.9482494  73.1468205   4.4528865
  83.4119047  76.2460791   2.8130096  83.5411429  76.4995270   3.7269508
  82.7316499  76.8388499   2.4934751  90.0735764  74.0885906  11.5681937
  89.2969098  74.6479826  11.5584802  90.7126327  74.5742689  12.0896807
  97.8656545  70.8712699   5.4024914  97.2230925  71.1645232   4.7564708
  97.3611474  70.7565619   6.2078110  88.3282137  76.8971359  11.1299904
  89.0696821  77.4356403  10.8534728  87.6219122  77.5237648  11.2871456
  93.8037476  79.0400500   9.7272066  94.2120832  78.5982910   8.9826698
  93.0814738  78.4653127   9.9806258  90.1568546  73.9773107   7.1005622
  91.0029742  74.4012520   7.2440271  90.0967184  73.3206731   7.7944186
  94.1266291  79.6001690   3.4824354  93.4975153  79.7647405   2.7800422
  93.7391953  80.0143300   4.2535318  93.3067992  71.6377475   8.7586796
  93.0628924  72.3919535   8.2221072  93.5827922  72.0162823   9.5934043
  95.2606455  78.1816087   7.4364062  95.4723350  78.8247847   6.7598443
  95.2136203  77.3478404   6.9685992  92.8632683  70.7933908   4.3400634
  92.0017163  71.0915161   4.6317371  92.8895118  71.0104307   3.4081666
  89.6794253  79.3376098   0.7474440  90.1432598  79.6163801  -0.0420938
  89.4151051  78.4359543   0.5647530  86.5718334  78.8847580   3.6854203
  87.1419691  79.3134848   3.0471687  87.1626446  78.6030165   4.3838388
  88.6163139  75.4599251  -2.4435995  89.3187182  75.9120295  -1.9762069
  88.2843767  74.8183070  -1.8156102  87.0643500  74.0511007  11.9315214
  86.4342161  74.7327288  12.1650611  86.9579588  73.9394089  10.9868352
  82.3588473  73.7182804   2.8581138  81.5687527  73.9740332   2.3821249
  82.8499720  74.5331141   2.9633179  96.3752282  81.0588043   5.6086419
  97.1969726  80.6568230   5.3269101  96.3714685  80.9556277   6.5602535
  84.3103218  74.0827383  -0.1835385  83.5134382  74.1946077   0.3348111
  84.0828810  74.4214035  -1.0494495  90.1408886  80.6072086   7.7647130
  90.2053318  81.0692493   8.6005301  89.4319810  79.9769451   7.8929439
  80.6426176  73.9713294   5.2896129  80.8934214  74.8560304   5.5553705
  81.1785724  73.7917896   4.5171221  86.3424243  68.3531773  14.2940465
  85.9491189  67.7997972  14.9688109  87.1590384  68.6642352  14.6846983
  83.3086301  79.7915632  -1.7945965  83.8210822  80.5858882  -1.6440400
  83.9609014  79.0941922  -1.8612364  89.2592204  69.7689652  11.8860722
  90.0001918  70.3696806  11.8065184  89.4910127  69.0267290  11.3278764
  84.4033542  74.9546020  10.1638951  84.2887057  74.0531277  10.4646050
  83.5478060  75.2009716   9.8123768  91.4825380  82.8963760  11.7626452
  91.0389234  82.1100139  11.4447356  92.1442594  83.0842911  11.0970343
  86.2412501  84.4259562   6.2887130  86.7919926  84.2976625   5.5164124
  85.4023977  84.7254451   5.9382023  93.5806618  83.1766560   9.7907853
  93.5625093  83.9975441   9.2988122  94.5026538  83.0520635  10.0157994
  90.0379672  80.6910689  10.6331362  90.5708009  79.9298978  10.4030670
  89.5093753  80.3984341  11.3755516  93.2049367  65.7970755   6.1625003
  92.8613637  66.6872397   6.0864114  93.5728330  65.6072413   5.2994588
  81.2735218  78.1204286  -1.0186395  82.1110440  78.5301294  -1.2352687
  81.4513485  77.1803728  -1.0486201  90.7546761  70.6329067  -0.2717323
  89.8988357  70.2435918  -0.4511684  91.1673713  70.7121028  -1.1317538
  92.2845908  68.1675411   4.1274237  91.7810703  68.1305546   3.3142042
  92.5776514  69.0768153   4.1870893  88.5288793  68.2514140   3.1340418
  89.3941790  68.0556949   2.7746308  88.5966302  68.0224492   4.0609775
  96.3825231  78.0145702   3.2617220  95.7248905  78.7044964   3.3497349
  97.1865630  78.4042134   3.6051206  86.1351112  70.4816348   0.5056785
  86.7094864  70.2591530  -0.2270022  86.7222095  70.5505043   1.2585386
  95.1930690  76.3690075   1.3121162  95.7062571  77.0020067   1.8142871
  95.8431914  75.7691271   0.9464522  88.4373780  67.3557597  -0.7668145
  87.7838193  67.0406614  -1.3911531  88.3954254  66.7333338  -0.0408323
  91.6711521  73.8439531   3.5579502  90.7534082  74.0654478   3.4001190
  92.0871664  73.9185841   2.6991210  94.9025405  72.2788063   0.6700972
  94.1648162  71.7665449   1.0011214  95.1552179  71.8388444  -0.1415751
  95.0037033  65.0564315   1.2642741  95.3095910  64.1961678   0.9768656
  95.7289638  65.6481935   1.0641735  81.2961389  75.4595001  -0.3475661
  81.0985789  74.8664362  -1.0724594  80.7408053  75.1547211   0.3700278
  89.2758113  75.3518108   1.7718932  89.3306722  74.3991944   1.6961409
  88.4649315  75.5077547   2.2560231  87.2150472  73.9695167  -0.4690689
  86.4018338  74.2689338  -0.0625497  87.7109467  73.5750856   0.2483793
  92.8124684  74.4336992   8.3624205  93.1674072  74.6608465   9.2218671
  93.4596815  74.7655369   7.7401460  86.7064547  71.5413523   5.1470546
  87.3463927  71.4002282   4.4493509  85.8742078  71.2548036   4.7709148
  87.4824851  80.8415953   1.2605538  88.2765450  80.3466273   1.0588113
  86.7716543  80.3133816   0.8973244  92.3019696  83.2234049   5.6117906
  92.3556718  83.7924985   6.3795622  91.4334477  83.3935934   5.2471943
  83.7907615  74.9859035  -2.6634709  82.8605203  74.9243491  -2.4464747
  83.8865087  74.4634988  -3.4598068  83.7093164  71.5113848  -0.0756467
  83.9699981  72.4259181  -0.1847307  84.5310336  71.0438290   0.0740146
  85.1818089  72.9251605   7.0942357  85.8541142  72.7168967   6.4455006
  84.3547875  72.7273691   6.6547590  99.4307350  79.6655655   6.6117691
  99.6243240  80.5701466   6.8576966  99.3307968  79.2063074   7.4456276
  91.0843661  69.5513546   9.1108018  90.4371576  70.2503496   9.0172495
  91.8544676  69.9849690   9.4784266  94.4922459  79.8162398  12.1858571
  94.3407965  79.5872950  11.2688655  94.4827138  80.7733000  12.1989916
  91.2607795  77.3894311   7.1704838  92.1899855  77.5405470   6.9973805
  90.8398825  77.4778332   6.3153484  90.0596127  81.4144975   4.9403375
  89.9207213  81.0463760   5.8129314  89.2710723  81.9292615   4.7687333
  91.6101342  80.7926578   2.3292213  91.2751175  80.7527348   3.2249863
  91.1105288  80.1271294   1.8562623  85.5845586  76.1994208   7.8544794
  85.4465384  75.4674447   8.4556333  86.4950510  76.1103108   7.5728982
  88.2127887  75.9114167   7.3428474  88.9227505  75.2707360   7.3015092
  88.1697195  76.1627062   8.2654655  96.2014666  82.8481521  10.2635053
  96.1427212  82.1640741   9.5965636  96.6034184  83.5900511   9.8115679
  86.9256821  72.8979385   9.1624114  86.3894178  72.4470124   9.8145710
  86.3373529  73.0325294   8.4194578  96.2032073  80.8121105   8.4949033
  95.3158852  80.4747026   8.6175432  96.7730624  80.0804136   8.7317798
  77.8561220  77.1445196   1.8192084  78.5432260  76.8306926   1.2313100
  77.7009349  78.0486561   1.5459336  82.6595942  72.0335393   6.2477108
  82.5754131  71.4261062   5.5127518  81.8378648  72.5244411   6.2486604
  89.7333226  85.4722557   5.4610276  89.6603398  86.2777528   5.9729581
  89.2910619  85.6714523   4.6358298  92.8319656  70.5188956   1.6147303
  93.3288356  69.7658919   1.2948373  92.0606637  70.5553273   1.0490512
 100.6849413  76.2229322   3.2565595 100.6739290  77.1054037   2.8859528
  99.8166793  75.8700873   3.0620132  92.1931910  85.3709391   7.6168435
  92.9059882  86.0056856   7.5444336  91.7021938  85.4673257   6.8008437
  89.4154625  72.6606339   1.3418988  89.0452412  72.1077380   2.0299893
  89.9113717  72.0564473   0.7893988  87.2443823  83.1203834   8.4374006
  87.9453283  83.7540317   8.5903400  86.7738938  83.4618566   7.6769645
  95.2738651  67.4858550   3.7626662  94.3601731  67.7162777   3.9308869
  95.7031752  67.5696994   4.6140694  95.0445109  75.6748442   6.2626556
  94.3916559  75.9224349   5.6079009  95.4225489  74.8612580   5.9289033
  91.0932682  76.4168253  12.7492593  90.4173319  76.3162382  13.4194968
  91.9160316  76.2607467  13.2128590  82.8411541  82.6540190   5.3705108
  83.4264978  81.9083877   5.5033013  82.6436380  82.9644146   6.2541772
  77.4329196  75.2245790   4.0909551  77.4713296  74.6909380   4.8846670
  76.9269489  74.6980995   3.4720529  89.8355465  87.7235180   6.9850209
  90.3873773  87.8866802   7.7499294  90.1761659  88.3139618   6.3130234
  84.8119958  70.0710330   7.5872094  84.8761285  70.9325161   7.1749491
  84.7487079  69.4584332   6.8544452  84.2872231  72.1433463  11.2345128
  84.9144270  71.7610540  11.8482652  83.4300150  71.9247665  11.6000821
  94.6866339  82.5496438  12.8398863  95.2306243  83.1626396  12.3453818
  94.1053184  83.1076016  13.3565876  81.0637774  73.9509892  -2.8336517
  81.3591215  73.0420570  -2.8869463  80.1625809  73.9297631  -3.1555515
  84.5932021  72.0265888   3.1491031  83.8718606  72.6401856   3.0098505
  85.3825276  72.5623653   3.0707677  95.0358761  83.4726176   5.5993441
  94.0889096  83.3531527   5.5271768  95.3841534  82.5848674   5.6819703
  87.3958334  69.3620315   9.4231683  87.9192736  69.6082611  10.1857993
  87.1770667  70.1940350   9.0034821  82.7925615  71.6323990  -2.7097192
  82.4638321  70.7521368  -2.8922086  83.1464986  71.5771658  -1.8220803
  85.9067438  71.9196959  -2.3421714  86.2463511  72.4482881  -3.0643106
  86.3539559  72.2577365  -1.5663148  88.6010879  70.3034010   7.1081354
  88.2607700  69.5041823   7.5102034  87.8949885  70.6035721   6.5358187
  89.2527351  67.3883322   5.5608677  90.0753420  66.9143801   5.4387567
  89.4965415  68.1673806   6.0607363  87.8935586  70.4171581  -4.1428422
  88.6143948  70.7952834  -4.6464705  87.2700890  71.1360458  -4.0393444
  92.0366708  71.1216730  -3.2070089  92.2530323  72.0041368  -3.5081261
  91.5560776  70.7302943  -3.9364447  86.7765930  74.0802443   3.3700655
  86.6310511  74.3942746   4.2624937  86.2991133  74.6987343   2.8171554
  88.6362313  71.0704991   3.4181545  88.6223881  70.1746084   3.0813843
  89.3534741  71.0775655   4.0519831  90.4888443  71.5042331   5.4634672
  90.2306221  72.4259402   5.4619003  89.9573484  71.1072766   6.1535136
  81.2511592  76.6207788   6.3088317  80.7065060  77.3967595   6.4408591
  82.1290942  76.9678592   6.1507438  88.0399209  69.9519371  -1.3130885
  88.1615120  69.0236018  -1.1139997  87.7501251  69.9658057  -2.2252570
  90.9090399  67.6374282   1.8235835  90.9312096  67.7013615   0.8687814
  91.3258458  66.7978790   2.0176341  82.0377614  75.7477684   9.2018473
  81.2959350  75.8960319   9.7883104  81.7170358  76.0085949   8.3385223
  89.9821276  85.2893662   8.9998863  90.2908403  85.0442809   9.8721563
  90.7796758  85.4940300   8.5117734  82.4834227  83.6343113   1.2328868
  83.3092247  83.3346884   0.8527512  82.1328279  82.8650735   1.6818657
  87.4515761  82.9869581   3.3026542  86.8295770  82.3240286   3.0028770
  88.1220628  83.0130713   2.6200189  80.6842833  81.5529439   2.1917802
  79.8474741  81.1251613   2.0101803  80.6566478  81.7461882   3.1288593
  87.5240288  71.4651369  12.8959048  87.5728444  72.3413492  12.5136817
  88.0662802  70.9228762  12.3230691  98.0095134  82.0092492  12.1760185
  97.2190678  81.9916631  11.6364684  97.7728488  82.5480786  12.9309221
  98.1293009  78.8584958   9.4892913  98.1791014  78.6934966  10.4308436
  98.0206932  77.9912217   9.0990794  95.4196771  74.8415886  10.8052220
  96.3206634  74.7022351  10.5136218  95.4944746  75.0070341  11.7450397
  89.7539577  72.2182741   9.6505406  88.8842886  72.5116307   9.3787995
  89.9899057  72.8023186  10.3712670  99.6311206  81.2781900   9.7334935
  99.3396014  81.6411880  10.5698396  99.0183337  80.5648908   9.5548267
  97.8798394  76.4014515   8.2014993  98.3552516  76.5942161   7.3933844
  96.9563959  76.4573700   7.9558376  84.7681901  77.5638682  -2.2153929
  84.5227942  76.6601012  -2.0173719  84.9377815  77.5655832  -3.1574451
  92.4578610  68.4362358   7.1670827  92.9760554  69.1723385   6.8417315
  92.1033743  68.7426351   8.0017586  84.0377548  73.2967039  -4.7167767
  83.3446793  73.3711394  -5.3727731  83.7929300  72.5327383  -4.1946251
  92.7091205  64.8562641   2.6871723  92.9892958  64.1885830   3.3132150
  93.4941812  65.0491736   2.1746387  96.5800063  73.2780275   6.4343298
  97.5317486  73.3778372   6.4555522  96.4103513  72.4858543   6.9441383
  94.6014442  70.3635858   6.6202699  94.0064375  70.6440871   5.9249188
  94.3164139  70.8529759   7.3919440  99.0588141  76.4986394   5.5485598
  99.0264461  75.5602395   5.7345282  99.6688764  76.5770431   4.8151423
  99.2082629  73.2897438   5.5943881  98.6921678  72.5055894   5.4073810
 100.0922578  72.9616154   5.7590401  96.8693356  67.0338453   1.5539694
  96.6718177  66.7253541   2.4383026  97.4793062  67.7600092   1.6837624
 104.8764691  77.5602401   4.6891635 105.6068079  77.2987689   5.2499338
 104.2671636  76.8231123   4.7293703 102.9579988  75.7010264   5.2866086
 102.2313151  75.5666229   4.6782578 102.5427275  76.0087092   6.0922804
  90.7810164  79.4200193  13.0513459  91.7013174  79.5978792  13.2453506
  90.7459747  78.4756239  12.8993158  79.9992329  74.6138787   1.9766734
  79.6795113  73.7604095   1.6841108  79.4525757  74.8287365   2.7324701
  83.7772237  77.3301228   5.6936240  83.9958246  78.2618336   5.7124274
  84.1898011  76.9709202   6.4791044  90.6976454  67.8369313  -2.3188071
  89.8877183  67.4916398  -1.9432825  91.3860871  67.5276857  -1.7300460
  92.6267003  66.9147360  -0.6963775  93.1798041  67.3342814  -0.0373752
  92.8637089  65.9883108  -0.6540819  88.6500102  72.9034434  15.0838989
  88.5496829  73.8528791  15.0151080  88.4321644  72.5752673  14.2115059
  79.8680589  78.2341699   3.9459855  79.1744061  77.8195651   3.4329810
  80.6153580  78.2762235   3.3493274  96.0045810  69.0247885  -1.1885110
  95.4244479  69.6832689  -1.5707058  95.7381743  68.2025230  -1.5997693
  94.4549376  68.4252943   1.0136210  94.9549155  68.5369478   0.2050529
  95.0984984  68.1213996   1.6537018  88.5131372  76.3331573  13.9004051
  88.0298454  77.1331933  14.1067940  88.5992311  76.3439518  12.9471495
  81.7817332  78.1659952   1.8225870  81.7588020  78.2647640   0.8707753
  82.0917968  79.0125103   2.1443036  84.4404710  80.2236107   5.9372485
  85.3947963  80.1920050   5.8702416  84.2417233  79.7626731   6.7522711
  85.0304092  78.7937223   8.5043282  85.8496981  79.2881302   8.5278120
  85.3040899  77.8769192   8.4760850  94.7870688  71.1847976  -2.1328762
  93.8996543  71.4697626  -2.3508567  95.2024677  71.0241739  -2.9801485
  98.1385224  71.2094497   1.5825577  98.9145614  71.6990949   1.8550194
  97.4133358  71.6352551   2.0397447 100.5757783  71.9222116   2.6399518
 101.1702273  71.6817852   1.9292826 100.6484366  71.2029246   3.2673054
  82.7954938  85.7655727   2.9542682  82.6609406  85.0056128   2.3880681
  82.3787001  86.4896627   2.4871471  85.9524064  86.6625044   3.1661125
  85.8356448  87.6070476   3.0639815  85.1316510  86.3598605   3.5546924
  80.2839006  73.1275357   9.2035479  80.9297870  72.6174311   9.6922705
  80.0756157  73.8644039   9.7778905  92.8092398  80.1956205  14.7027620
  93.6783558  80.3696857  14.3414255  92.3299150  81.0150622  14.5803349
  88.8042616  67.3915402  -5.0440624  88.7921286  68.3357242  -4.8872354
  89.6966038  67.2085547  -5.3381163  86.9778578  87.3153306   6.3817054
  87.8805825  87.3476916   6.6983549  86.7515948  86.3853757   6.3963389
  92.6194736  63.9858179  -0.7894688  91.8527132  63.4316665  -0.6438005
  93.0305441  64.0580047   0.0719464  84.6236497  70.2742974  13.3010494
  85.4867958  69.9179779  13.5113818  84.0501908  69.9356869  13.9885898
 100.9129519  89.4177824  11.5681937 100.1362853  89.9771744  11.5584802
 101.5520082  89.9034607  12.0896807  97.9037255  89.3802925  11.9315214
  97.2735916  90.0619206  12.1650611  97.7973343  89.2686007  10.9868352
  97.1817998  83.6823691  14.2940465  96.7884943  83.1289890  14.9688109
  97.9984138  83.9934269  14.6846983 100.0985959  85.0981570  11.8860722
 100.8395672  85.6988723  11.8065184 100.3303882  84.3559208  11.3278764
  95.2427297  90.2837937  10.1638951  95.1280812  89.3823195  10.4646050
  94.3871814  90.5301634   9.8123768 101.9237415  84.8805464   9.1108018
 101.2765331  85.5795413   9.0172495 102.6938431  85.3141608   9.4784266
  97.7650575  88.2271303   9.1624114  97.2287932  87.7762041   9.8145710
  97.1767284  88.3617212   8.4194578  93.4989697  87.3627311   6.2477108
  93.4147885  86.7552980   5.5127518  92.6772403  87.8536329   6.2486604
 101.9326437  91.7460171  12.7492593 101.2567074  91.6454300  13.4194968
 102.7554071  91.5899384  13.2128590  95.6513713  85.4002248   7.5872094
  95.7155039  86.2617079   7.1749491  95.5880833  84.7876250   6.8544452
  95.1265985  87.4725380  11.2345128  95.7538024  87.0902458  11.8482652
  94.2693904  87.2539582  11.6000821  98.2352089  84.6912233   9.4231683
  98.7586490  84.9374529  10.1857993  98.0164422  85.5232267   9.0034821
  92.8771368  91.0769601   9.2018473  92.1353104  91.2252237   9.7883104
  92.5564113  91.3377867   8.3385223  98.3634043  86.7943286  12.8959048
  98.4122198  87.6705409  12.5136817  98.9056557  86.2520679  12.3230691
 100.5933331  87.5474659   9.6505406  99.7236640  87.8408225   9.3787995
 100.8292811  88.1315104  10.3712670  99.4893856  88.2326352  15.0838989
  99.3890583  89.1820708  15.0151080  99.2715399  87.9044590  14.2115059
  99.3525127  91.6623490  13.9004051  98.8692208  92.4623850  14.1067940
  99.4386066  91.6731435  12.9471495  91.1232760  88.4567275   9.2035479
  91.7691624  87.9466229   9.6922705  90.9149912  89.1935957   9.7778905
  95.4630251  85.6034892  13.3010494  96.3261713  85.2471697  13.5113818
  94.8895662  85.2648787  13.9885898  80.6431627  44.5733965  -1.5128241
  80.1995481  43.7870343  -1.8307337  81.3048840  44.7613115  -2.1784351
  82.7412865  44.8536765  -3.4846840  82.7231340  45.6745646  -3.9766571
  83.6632785  44.7290840  -3.2596699  79.1985919  42.3680894  -2.6423332
  79.7314256  41.6069183  -2.8724024  78.6700000  42.0754546  -1.8999177
  88.5913597  41.3425860  -6.6637003  88.7849487  42.2471671  -6.4177728
  88.4914215  40.8833279  -5.8298418  83.6528706  41.4932603  -1.0896122
  83.5014212  41.2643155  -2.0066038  83.6433385  42.4503204  -1.0764777
  85.3620912  44.5251726  -3.0119640  85.3033458  43.8410946  -3.6789057
  85.7640431  45.2670716  -3.4639014  85.3638320  42.4891310  -4.7805660
  84.4765098  42.1517231  -4.6579262  85.9336871  41.7574341  -4.5436895
  81.3538157  47.0479596  -5.6586259  82.0666129  47.6827061  -5.7310357
  80.8628185  47.1443462  -6.4746257  80.2538929  38.0938458  -0.5262100
  79.5779566  37.9932587   0.1440275  81.0766563  37.9377672  -0.0626103
  78.9961712  49.4005385  -6.2904484  79.5480020  49.5637007  -5.5255399
  79.3367905  49.9909823  -6.9624459  83.8472586  44.2266643  -0.4355830
  84.3912490  44.8396601  -0.9300875  83.2659431  44.7846221   0.0811183
  79.1427523  46.9663867  -4.2755830  79.4514650  46.7213014  -3.4033130
  79.9403005  47.1710505  -4.7636960  87.1701381  43.6862697  -1.0994509
  86.3796924  43.6686836  -1.6390009  86.9334735  44.2250991  -0.3445472
  87.2899256  40.5355163  -3.7861780  87.3397261  40.3705171  -2.8446257
  87.1813179  39.6682422  -4.1763899  84.5803018  36.5186091  -2.4702473
  85.4812881  36.3792556  -2.7618476  84.6550993  36.6840546  -1.5304296
  88.7917452  42.9552105  -3.5419759  88.5002261  43.3182085  -2.7056298
  88.1789584  42.2419113  -3.7206426  79.9416411  41.0970398  -0.2241234
  80.8619420  41.2748997  -0.0301188  79.9065994  40.1526444  -0.3761535
  77.6737619  38.0101778   0.6249357  77.1904701  38.8102138   0.8313246
  77.7598558  38.0209722  -0.3283199  81.9698645  41.8726410   1.4272927
  82.8389805  42.0467062   1.0659561  81.4905396  42.6920827   1.3048656
  93.6291121  53.5815036  -9.1681799  94.2669531  53.4621783  -9.8718459
  93.5111964  54.5295880  -9.1093847  90.4380827  53.5342464  -9.2320274
  90.0999338  53.4183528 -10.1199739  91.3070595  53.1333629  -9.2519268
  90.9200610  54.6877315  -3.2734069  90.9089251  54.2930114  -4.1453565
  91.0821249  53.9543388  -2.6800297  83.8432075  56.8829132 -10.4039163
  84.6353366  56.5419956 -10.8192863  84.0828725  56.9924107  -9.4837009
  87.6407871  57.4714427  -4.3254885  87.3497737  58.3760058  -4.4408218
  88.2764855  57.5130955  -3.6110815  88.5664078  54.8491276  -7.7353525
  89.1627650  54.6247298  -8.4496562  88.6239049  54.1076021  -7.1328077
  90.2016936  53.6668964 -13.9932270  89.8375143  53.1399585 -13.2819348
  91.0584052  53.2767433 -14.1665784  96.1066237  44.9563297  -6.7301004
  95.7749561  45.8258708  -6.9539789  95.5111850  44.6399581  -6.0506973
  92.5997756  57.1575843  -7.3305091  92.2998479  58.0600882  -7.4389284
  92.2548816  56.8908026  -6.4783938  86.0510238  53.6089640 -11.2968386
  85.1260734  53.4765854 -11.0890695  86.2994651  54.3883859 -10.7998444
  95.9994900  49.6758383  -9.6507654  95.0911777  49.6073791  -9.9448893
  95.9482496  50.1530328  -8.8225828  83.4119049  53.2522913 -10.4624597
  83.5411430  53.5057392  -9.5485186  82.7316500  53.8450621 -10.7819942
  90.0735766  51.0948029  -1.7072756  89.2969100  51.6541949  -1.7169892
  90.7126329  51.5804812  -1.1857886  88.3282138  53.9033482  -2.1454789
  89.0696822  54.4418526  -2.4219966  87.6219123  54.5299771  -1.9883238
  93.8037478  56.0462622  -3.5482628  94.2120834  55.6045033  -4.2927995
  93.0814739  55.4715250  -3.2948435  90.1568548  50.9835229  -6.1749071
  91.0029743  51.4074643  -6.0314422  90.0967185  50.3268853  -5.4810508
  94.1266292  56.6063813  -9.7930339  93.4975155  56.7709527 -10.4954271
  93.7391954  57.0205423  -9.0219375  93.3067993  48.6439598  -4.5167897
  93.0628925  49.3981658  -5.0533622  93.5827924  49.0224945  -3.6820650
  95.2606456  55.1878210  -5.8390632  95.4723351  55.8309970  -6.5156251
  95.2136204  54.3540526  -6.3068702  92.8632685  47.7996031  -8.9354060
  92.0017164  48.0977284  -8.6437322  92.8895119  48.0166429  -9.8673027
  89.6794254  56.3438221 -12.5280254  90.1432600  56.6225924 -13.3175631
  89.4151052  55.4421666 -12.7107163  86.5718335  55.8909703  -9.5900491
  87.1419692  56.3196971 -10.2283006  87.1626447  55.6092287  -8.8916305
  87.0643502  51.0573130  -1.3439479  86.4342162  51.7389411  -1.1104082
  86.9579590  50.9456212  -2.2886341  96.3752284  58.0650165  -7.6668274
  97.1969727  57.6630353  -7.9485593  96.3714687  57.9618399  -6.7152159
  90.1408887  57.6134209  -5.5107564  90.2053320  58.0754616  -4.6749392
  89.4319811  56.9831574  -5.3825254  80.6426177  50.9775417  -7.9858564
  80.8934216  51.8622426  -7.7200988  81.1785726  50.7980018  -8.7583473
  86.3424244  45.3593896   1.0185772  85.9491190  44.8060094   1.6933416
  87.1590385  45.6704474   1.4092289  89.2592205  46.7751775  -1.3893972
  90.0001919  47.3758928  -1.4689509  89.4910128  46.0329413  -1.9475929
  84.4033543  51.9608142  -3.1115742  84.2887059  51.0593400  -2.8108643
  83.5478061  52.2071839  -3.4630925  91.4825381  59.9025883  -1.5128241
  91.0389235  59.1162261  -1.8307337  92.1442595  60.0905033  -2.1784351
  86.2412502  61.4321684  -6.9867563  86.7919927  61.3038748  -7.7590569
  85.4023978  61.7316573  -7.3372670  93.5806619  60.1828683  -3.4846840
  93.5625095  61.0037564  -3.9766571  94.5026539  60.0582758  -3.2596699
  90.0379673  57.6972812  -2.6423332  90.5708010  56.9361100  -2.8724024
  89.5093755  57.4046464  -1.8999177  92.2845909  45.1737533  -9.1480457
  91.7810704  45.1367668  -9.9612651  92.5776516  46.0830276  -9.0883800
  96.3825232  55.0207825 -10.0137473  95.7248907  55.7107086  -9.9257345
  97.1865631  55.4104257  -9.6703487  91.6711522  50.8501653  -9.7175191
  90.7534083  51.0716600  -9.8753503  92.0871665  50.9247964 -10.5763484
  89.2758114  52.3580230 -11.5035761  89.3306724  51.4054067 -11.5793285
  88.4649316  52.5139669 -11.0194463  92.8124685  51.4399114  -4.9130489
  93.1674073  51.6670588  -4.0536023  93.4596817  51.7717491  -5.5353233
  86.7064548  48.5475645  -8.1284147  87.3463928  48.4064405  -8.8261184
  85.8742079  48.2610159  -8.5045545  87.4824852  57.8478076 -12.0149155
  88.2765451  57.3528396 -12.2166580  86.7716545  57.3195939 -12.3781449
  92.3019697  60.2296171  -7.6636787  92.3556719  60.7987108  -6.8959071
  91.4334478  60.3998056  -8.0282750  85.1818090  49.9313728  -6.1812336
  85.8541144  49.7231090  -6.8299687  84.3547877  49.7335814  -6.6207104
  99.4307352  56.6717778  -6.6637003  99.6243242  57.5763588  -6.4177728
  99.3307970  56.2125197  -5.8298418  91.0843662  46.5575669  -4.1646675
  90.4371577  47.2565618  -4.2582199  91.8544678  46.9911812  -3.7970427
  94.4922460  56.8224521  -1.0896122  94.3407967  56.5935072  -2.0066038
  94.4827140  57.7795122  -1.0764777  91.2607797  54.3956433  -6.1049856
  92.1899857  54.5467593  -6.2780888  90.8398827  54.4840454  -6.9601209
  90.0596128  58.4207098  -8.3351318  89.9207214  58.0525882  -7.4625380
  89.2710725  58.9354737  -8.5067360  91.6101344  57.7988701 -10.9462480
  91.2751176  57.7589471 -10.0504830  91.1105289  57.1333417 -11.4192070
  85.5845587  53.2056331  -5.4209899  85.4465385  52.4736569  -4.8198360
  86.4950511  53.1165231  -5.7025711  88.2127888  52.9176290  -5.9326219
  88.9227507  52.2769482  -5.9739601  88.1697196  53.1689185  -5.0100039
  96.2014667  59.8543643  -3.0119640  96.1427213  59.1702863  -3.6789057
  96.6034185  60.5962633  -3.4639014  86.9256822  49.9041508  -4.1130580
  86.3894179  49.4532246  -3.4608984  86.3373531  50.0387417  -4.8560115
  96.2032074  57.8183227  -4.7805660  95.3158853  57.4809149  -4.6579262
  96.7730625  57.0866258  -4.5436895  82.6595943  49.0397516  -7.0277585
  82.5754132  48.4323185  -7.7627175  81.8378650  49.5306534  -7.0268089
  89.7333227  62.4784680  -7.8144417  89.6603399  63.2839651  -7.3025113
  89.2910621  62.6776645  -8.6396396  92.1931911  62.3771514  -5.6586259
  92.9059883  63.0118978  -5.7310357  91.7021940  62.4735380  -6.4746257
  87.2443825  60.1265957  -4.8380688  87.9453284  60.7602440  -4.6851294
  86.7738940  60.4680689  -5.5985048  95.0445111  52.6810565  -7.0128137
  94.3916561  52.9286472  -7.6675685  95.4225490  51.8674703  -7.3465660
  91.0932684  53.4230376  -0.5262100  90.4173321  53.3224505   0.1440275
  91.9160317  53.2669589  -0.0626103  82.8411543  59.6602312  -7.9049585
  83.4264979  58.9146000  -7.7721681  82.6436381  59.9706269  -7.0212921
  89.8355466  64.7297303  -6.2904484  90.3873774  64.8928925  -5.5255399
  90.1761660  65.3201741  -6.9624459  84.8119960  47.0772453  -5.6882600
  84.8761286  47.9387284  -6.1005202  84.7487080  46.4646454  -6.4210241
  84.2872232  49.1495585  -2.0409565  84.9144271  48.7672663  -1.4272041
  83.4300151  48.9309787  -1.6753873  94.6866341  59.5558561  -0.4355830
  95.2306245  60.1688519  -0.9300875  94.1053186  60.1138139   0.0811183
  95.0358762  60.4788299  -7.6761252  94.0889098  60.3593650  -7.7482925
  95.3841535  59.5910797  -7.5934991  87.3958335  46.3682438  -3.8523010
  87.9192737  46.6144734  -3.0896701  87.1770669  47.2002472  -4.2719873
  88.6010880  47.3096133  -6.1673340  88.2607701  46.5103946  -5.7652660
  87.8949887  47.6097843  -6.7396506  89.2527352  44.3945445  -7.7146017
  90.0753422  43.9205923  -7.8367126  89.4965416  45.1735929  -7.2147330
  86.7765931  51.0864566  -9.9054038  86.6310512  51.4004869  -9.0129756
  86.2991135  51.7049466 -10.4583139  88.6362314  48.0767114  -9.8573148
  88.6223883  47.1808207 -10.1940851  89.3534742  48.0837777  -9.2234862
  90.4888445  48.5104454  -7.8120021  90.2306222  49.4321525  -7.8135691
  89.9573485  48.1134888  -7.1219557  81.2511593  53.6269910  -6.9666377
  80.7065061  54.4029718  -6.8346102  82.1290943  53.9740715  -7.1247255
  82.0377615  52.7539806  -4.0736220  81.2959351  52.9022442  -3.4871590
  81.7170359  53.0148072  -4.9369471  89.9821278  62.2955785  -4.2755830
  90.2908404  62.0504931  -3.4033130  90.7796760  62.5002423  -4.7636960
  82.4834229  60.6405235 -12.0425825  83.3092249  60.3409007 -12.4227182
  82.1328281  59.8712858 -11.5936037  87.4515762  59.9931703  -9.9728152
  86.8295771  59.3302408 -10.2725924  88.1220629  60.0192835 -10.6554504
  80.6842834  58.5591562 -11.0836892  79.8474742  58.1313736 -11.2652890
  80.6566479  58.7524005 -10.1466101  87.5240289  48.4713491  -0.3795646
  87.5728445  49.3475614  -0.7617876  88.0662804  47.9290884  -0.9524002
  98.0095135  59.0154615  -1.0994509  97.2190679  58.9978753  -1.6390009
  97.7728490  59.5542908  -0.3445472  98.1293010  55.8647081  -3.7861780
  98.1791015  55.6997088  -2.8446257  98.0206933  54.9974340  -4.1763899
  95.4196773  51.8478009  -2.4702473  96.3206635  51.7084474  -2.7618476
  95.4944747  52.0132464  -1.5304296  89.7539578  49.2244864  -3.6249287
  88.8842887  49.5178430  -3.8966699  89.9899058  49.8085309  -2.9042023
  99.6311207  58.2844022  -3.5419759  99.3396015  58.6474003  -2.7056298
  99.0183338  57.5711031  -3.7206426  97.8798395  53.4076637  -5.0739701
  98.3552517  53.6004283  -5.8820849  96.9563961  53.4635823  -5.3196317
  92.4578612  45.4424481  -6.1083867  92.9760556  46.1785508  -6.4337378
  92.1033744  45.7488474  -5.2737108  96.5800064  50.2842397  -6.8411395
  97.5317487  50.3840495  -6.8199171  96.4103515  49.4920666  -6.3313311
  94.6014444  47.3697980  -6.6551994  94.0064376  47.6502993  -7.3505505
  94.3164140  47.8591881  -5.8835253  99.0588142  53.5048517  -7.7269095
  99.0264462  52.5664518  -7.5409411  99.6688766  53.5832554  -8.4603270
  90.7810165  56.4262316  -0.2241234  91.7013175  56.6040915  -0.0301188
  90.7459748  55.4818361  -0.3761535  83.7772238  54.3363351  -7.5818453
  83.9958248  55.2680458  -7.5630419  84.1898012  53.9771325  -6.7963649
  88.6500103  49.9096556   1.8084296  88.5496830  50.8590913   1.7396387
  88.4321645  49.5814795   0.9360366  79.8680590  55.2403821  -9.3294838
  79.1744062  54.8257774  -9.8424884  80.6153581  55.2824358  -9.9261419
  88.5131373  53.3393695   0.6249357  88.0298455  54.1394055   0.8313246
  88.5992312  53.3501640  -0.3283199  84.4404711  57.2298230  -7.3382209
  85.3947964  57.1982172  -7.4052277  84.2417234  56.7688854  -6.5231983
  85.0304093  55.7999346  -4.7711411  85.8496982  56.2943425  -4.7476574
  85.3040901  54.8831314  -4.7993844  82.7954940  62.7717849 -10.3212011
  82.6609408  62.0118250 -10.8874013  82.3787002  63.4958749 -10.7883222
  85.9524065  63.6687166 -10.1093568  85.8356450  64.6132599 -10.2114878
  85.1316512  63.3660728  -9.7207769  80.2839007  50.1337480  -4.0719214
  80.9297871  49.6236434  -3.5831989  80.0756158  50.8706162  -3.4975789
  92.8092399  57.2018327   1.4272927  93.6783559  57.3758980   1.0659561
  92.3299151  58.0212744   1.3048656  86.9778580  64.3215428  -6.8937640
  87.8805826  64.3539039  -6.5771145  86.7515950  63.3915879  -6.8791304
  84.6236498  47.2805097   0.0255800  85.4867960  46.9241902   0.2359125
  84.0501909  46.9418992   0.7131204 100.9129520  66.4239946  -1.7072756
 100.1362854  66.9833866  -1.7169892 101.5520083  66.9096729  -1.1857886
  97.9037256  66.3865048  -1.3439479  97.2735917  67.0681329  -1.1104082
  97.7973344  66.2748129  -2.2886341  97.1817999  60.6885814   1.0185772
  96.7884945  60.1352012   1.6933416  97.9984139  60.9996392   1.4092289
 100.0985960  62.1043693  -1.3893972 100.8395673  62.7050846  -1.4689509
 100.3303883  61.3621330  -1.9475929  95.2427298  67.2900060  -3.1115742
  95.1280813  66.3885317  -2.8108643  94.3871816  67.5363757  -3.4630925
 101.9237417  61.8867586  -4.1646675 101.2765332  62.5857536  -4.2582199
 102.6938432  62.3203730  -3.7970427  97.7650577  65.2333426  -4.1130580
  97.2287934  64.7824164  -3.4608984  97.1767285  65.3679334  -4.8560115
  93.4989698  64.3689433  -7.0277585  93.4147887  63.7615103  -7.7627175
  92.6772404  64.8598452  -7.0268089 101.9326438  68.7522293  -0.5262100
 101.2567075  68.6516423   0.1440275 102.7554072  68.5961507  -0.0626103
  95.6513714  62.4064371  -5.6882600  95.7155041  63.2679201  -6.1005202
  95.5880834  61.7938372  -6.4210241  95.1265987  64.4787503  -2.0409565
  95.7538025  64.0964580  -1.4272041  94.2693906  64.2601705  -1.6753873
  98.2352090  61.6974355  -3.8523010  98.7586492  61.9436652  -3.0896701
  98.0164423  62.5294390  -4.2719873  92.8771370  68.0831724  -4.0736220
  92.1353106  68.2314359  -3.4871590  92.5564114  68.3439990  -4.9369471
  98.3634044  63.8005409  -0.3795646  98.4122199  64.6767532  -0.7617876
  98.9056558  63.2582802  -0.9524002 100.5933332  64.5536781  -3.6249287
  99.7236642  64.8470347  -3.8966699 100.8292813  65.1377226  -2.9042023
  99.4893858  65.2388474   1.8084296  99.3890585  66.1882831   1.7396387
  99.2715400  64.9106713   0.9360366  99.3525128  68.6685613   0.6249357
  98.8692210  69.4685973   0.8313246  99.4386067  68.6793558  -0.3283199
  91.1232762  65.4629398  -4.0719214  91.7691625  64.9528352  -3.5831989
  90.9149913  66.1998079  -3.4975789  95.4630253  62.6097015   0.0255800
  96.3261714  62.2533819   0.2359125  94.8895663  62.2710909   0.7131204
   3.0213985 117.9097874  82.2927675   3.6158475 117.6693610  81.5820983
   3.0940568 117.1905005  82.9201211   6.9114479 100.3964672  68.3344854
   6.1578187  99.8272070  68.1788859   7.0462020 100.3627337  69.2815489
   0.9878624 100.5493309  65.4446998   0.8496523 100.7394905  64.5168187
   0.6314843 101.3112692  65.9015049   1.0148004 102.6169836  70.4558269
   1.4484511 102.5245125  71.3041323   1.7279585 102.5927336  69.8178285
   1.8763554 102.6593536  72.9891155   2.0699444 103.5639347  73.2350429
   1.7764172 102.2000955  73.8229740   3.1305617  99.2167203  69.6339058
   3.1195493 100.0991918  69.2632991   2.2622996  98.8638754  69.4393595
   3.7330227 100.3667422  66.2388521   4.1761373  99.6174748  65.8407644
   2.8556737 100.3577559  65.8562253   0.7657431 104.3697469  63.2482451
   1.2908755 104.7084742  62.5231771   0.6779784 103.4344485  63.0645585
   0.5749212 101.8522839  75.8666377   0.6247217 101.6872847  76.8081900
   0.4663136 100.9850098  75.4764258   2.0767409 104.2719781  76.1108399
   1.7852217 104.6349761  76.9471860   1.4639540 103.5586789  75.9321731
   3.2763091 101.8372661  68.6310969   4.1109983 102.2762465  68.7948529
   3.4122220 101.3611314  67.8119215   1.5044344  99.4924275  71.9259062
   1.4720664  98.5540276  72.1118746   2.1144968  99.5708312  71.1924887
   1.6538833  96.2835319  71.9717345   1.1377881  95.4993775  71.7847274
   2.5378781  95.9554035  72.1363864   7.3220894 100.5540282  71.0665099
   8.0524282 100.2925570  71.6272802   6.7127839  99.8169004  71.1067167
   5.4036191  98.6948145  71.6639550   4.6769355  98.5604110  71.0556041
   4.9883478  99.0024973  72.4696268   3.0213986  94.9159997  69.0172981
   3.6158477  94.6755733  68.3066290   3.0940570  94.1967127  69.6446518
   1.0172721  95.4830124  65.2845111   0.7609655  95.0826760  66.1153319
   0.3925589  96.1973918  65.1595250   5.3285059  98.2226198  67.7916403
   4.7684617  98.2919387  68.5647965   4.7228562  98.0467182  67.0715899
   6.9141077 114.8982712  70.4846358   7.5519487 114.7789459  69.7809698
   6.7961920 115.8463556  70.5434310   3.7230783 114.8510140  70.4207883
   3.3849295 114.7351204  69.5328418   4.5920552 114.4501305  70.4008889
   4.2050566 116.0044992  76.3794089   4.1939207 115.6097790  75.5074592
   4.3671206 115.2711064  76.9727860   1.8514034 116.1658952  71.9174632
   2.4477607 115.9414974  71.2031595   1.9089006 115.4243697  72.5200080
   1.4239063 113.6198387  59.7524823   1.6764583 113.0979908  58.9908286
   0.4863622 113.4564533  59.8551507   6.4682346 112.6234166  67.5599566
   7.2545435 112.2053589  67.2089983   6.7321050 113.5280258  67.7281215
   6.6392423 118.0607016  62.2588223   6.0038256 118.1341642  62.9709128
   6.3089829 118.6500615  61.5807302  11.8690773 112.5609399  68.4632545
  12.6015945 111.9908616  68.6970374  11.1130128 112.1730999  68.9039050
   1.1435352 115.5226493  61.9549198   1.0271610 114.8471396  62.6230282
   1.2537611 115.0358867  61.1381351   3.4866892 114.9836640  65.6595887
   3.1225100 114.4567261  66.3708809   4.3434008 114.5935109  65.4862373
   9.3916193 106.2730973  72.9227153   9.0599518 107.1426384  72.6988368
   8.7961806 105.9567257  73.6021184   3.1272379 110.0126540  60.6557236
   3.2946782 110.8806776  61.0227707   2.9369549 110.1753822  59.7318525
   5.8847713 118.4743519  72.3223066   5.5848436 119.3768558  72.2138873
   5.5398772 118.2075702  73.1744219   9.2844856 110.9926059  70.0020503
   8.3761734 110.9241467  69.7079264   9.2332452 111.4698004  70.8302329
   3.1061600 112.4684197  61.6403903   2.9861226 112.9141248  62.4789383
   2.4114189 112.8169515  61.0817441   3.3585722 112.4115705  77.9455401
   2.5819056 112.9709625  77.9358265   3.9976285 112.8972488  78.4670271
  11.1506503 109.1942497  71.7798377  10.5080883 109.4875031  71.1338172
  10.6461431 109.0795418  72.5851574   8.8046666 112.9405671  62.4684237
   9.7164523 113.1733057  62.2931934   8.2956314 113.5242715  61.9059315
   1.6132095 115.2201158  77.5073368   2.3546779 115.7586202  77.2308191
   0.9069080 115.8467447  77.6644920   7.0887434 117.3630298  76.1045529
   7.4970790 116.9212709  75.3600162   6.3664696 116.7882926  76.3579722
   3.4418504 112.3002905  73.4779086   4.2879699 112.7242319  73.6213735
   3.3817142 111.6436530  74.1717649   7.4116249 117.9231489  69.8597818
   6.7825111 118.0877203  69.1573886   7.0241911 118.3373099  70.6308782
  11.2905481 118.8585927  67.2142182  10.6056519 119.2384828  66.6639215
  11.3749330 119.4681254  67.9474130   6.5917950 109.9607274  75.1360260
   6.3478881 110.7149334  74.5994536   6.8677880 110.3392621  75.9707507
   8.5456412 116.5045886  73.8137525   8.7573308 117.1477646  73.1371907
   8.4986161 115.6708202  73.3459456   6.1482641 109.1163707  70.7174098
   5.2867120 109.4144960  71.0090835   6.1745076 109.3334105  69.7855130
   2.9644211 117.6605897  67.1247903   3.4282556 117.9393600  66.3352526
   2.7001009 116.7589342  66.9420994   1.9013097 113.7829050  63.9337468
   2.6037140 114.2350093  64.4011395   1.5693725 113.1412868  64.5617362
   9.6602240 119.3817841  71.9859883  10.4819684 118.9798029  71.7042564
   9.6564643 119.2786076  72.9375999  17.7508233 115.7256590  68.3344854
  16.9971942 115.1563988  68.1788859  17.8855775 115.6919254  69.2815489
   2.5442162 108.0919451  78.2634185   3.2851875 108.6926604  78.1838648
   2.7760085 107.3497089  77.7052228   6.4899325 104.1200554  72.5398467
   6.1463594 105.0102196  72.4637578   6.8578288 103.9302212  71.6768052
   6.4549608 114.1109165  61.0470902   5.9396231 114.8813770  61.2859290
   6.1826916 113.4374301  61.6703964   4.0396719 108.9558866  66.1056141
   3.1838315 108.5665716  65.9261779   4.4523670 109.0350827  65.2455926
   5.5695865 106.4905209  70.5047700   5.0660661 106.4535344  69.6915506
   5.8626472 107.3997952  70.5644357   1.8138751 106.5743939  69.5113882
   2.6791748 106.3786748  69.1519772   1.8816260 106.3454291  70.4383239
  11.4283882 116.8641520  62.9824076  10.6513325 116.5252679  62.5379238
  12.1075363 116.8694143  62.3079041   6.2435911 111.9836257  62.8730683
   5.9386046 112.2982406  63.7240827   7.1966353 112.0617677  62.9158016
   9.6675189 116.3375501  69.6390684   9.0098863 117.0274762  69.7270812
  10.4715588 116.7271933  69.9824670   8.4780647 114.6919874  67.6894625
   8.9912529 115.3249866  68.1916335   9.1281871 114.0921069  67.3237985
   1.7223738 105.6787396  65.6105318   1.0688150 105.3636413  64.9861933
   1.6804212 105.0563136  66.3365141   2.8334943 115.9606691  57.5258610
   1.9262005 115.7295944  57.7249759   3.3305975 115.1644310  57.7132592
   4.9561478 112.1669329  69.9352966   4.0384040 112.3884276  69.7774654
   5.3721622 112.2415640  69.0764673   5.7396526 113.5660745  65.0655646
   6.4868345 114.0782142  64.7562768   6.0088116 113.2444798  65.9260040
   4.0123176 116.0619286  62.0482600   3.1034396 115.7778318  62.1455070
   4.0418260 116.4818364  61.1885907   9.2442444 119.6725875  65.8173768
   8.7904771 118.8316785  65.8738959   8.6136410 120.3087274  66.1548548
   8.1875363 110.6017861  67.0474435   7.4498120 110.0895247  67.3784678
   8.4402137 110.1618243  66.2357712   8.2886991 103.3794113  67.6416205
   8.5945867 102.5191477  67.3542120   9.0139595 103.9711733  67.4415199
   2.5608070 113.6747906  68.1492396   2.6156680 112.7221743  68.0734872
   1.7499272 113.8307345  68.6333694   3.7099264 117.6028029  59.3870679
   3.2718694 116.8863888  58.9276316   4.4509705 117.8304144  58.8255770
   6.0974642 112.7566790  74.7397669   6.4524030 112.9838264  75.5992134
   6.7446773 113.0885167  74.1174924  11.8272379 115.8785226  65.4446998
  11.6890277 116.0686822  64.5168187  11.4708598 116.6404609  65.9015049
  11.8541758 117.9461753  70.4558269  12.2878265 117.8537042  71.3041323
  12.5673339 117.9219254  69.8178285  12.7157308 117.9885454  72.9891155
  12.9093198 118.8931265  73.2350429  12.6157926 117.5292873  73.8229740
   4.3693619 107.8743345  75.4881482   3.7221534 108.5733294  75.3945958
   5.1394634 108.3079489  75.8557730   7.7772417 118.1392197  78.5632035
   7.6257923 117.9102748  77.6462119   7.7677096 119.0962798  78.5763380
   4.5457753 115.7124110  73.5478302   5.4749813 115.8635269  73.3747269
   4.1248783 115.8008130  72.6926948   7.8310492 116.4612411  58.9802737
   7.2139662 115.7359239  58.8835789   7.3626980 117.2221771  58.6369811
   1.4977845 114.2343966  73.7201938   2.2077463 113.5937158  73.6788556
   1.4547153 114.4856861  74.6428119   9.4882031 119.1350903  74.8722497
   8.6008809 118.7976825  74.9948896  10.0580582 118.4033934  75.1091262
   6.1169614 108.8418755  67.9920767   6.6138313 108.0888717  67.6721837
   5.3456595 108.8783072  67.4263976  13.9699371 114.5459121  69.6339058
  13.9589247 115.4283836  69.2632991  13.1016751 114.1930671  69.4393595
   7.1999394 117.5990442  65.5659190   6.2655673 117.7191905  65.3963895
   7.3776063 116.6962909  65.3019200   2.7004583 110.9836138  67.7192451
   2.3302370 110.4307178  68.4073357   3.1963675 110.3794272  67.1667451
  10.5871946 113.4407762  66.1009224  11.0532398 114.2735753  66.0269527
  11.0379446 112.9752743  66.8054483   8.6548177 119.7851583  63.0995376
   8.9308021 119.6708177  64.0089250   7.7852676 119.3869068  63.0607549
   8.5588609 105.8088349  70.1400126   7.6451688 106.0392575  70.3082333
   8.9881710 105.8926793  70.9914158   8.3295067 113.9978241  72.6400020
   7.6766517 114.2454148  71.9852472   8.7075447 113.1842379  72.3062497
   4.3782640 114.7398052  79.1266057   3.7023277 114.6392181  79.7968432
   5.2010274 114.5837265  79.5902054   0.6808292 107.6850114  75.8005147
   1.2042694 107.9312410  76.5631456   0.4620625 108.5170148  75.3808284
   1.8860837 108.6263809  73.4854817   1.5457657 107.8271622  73.8875497
   1.1799843 108.9265520  72.9131651   2.5377309 105.7113121  71.9382140
   3.3603378 105.2373599  71.8161031   2.7815372 106.4903605  72.4380827
   1.1785543 108.7401380  62.2345042   1.8993906 109.1182632  61.7308759
   0.5550847 109.4590256  62.3380020   5.3216666 109.4446529  63.1703374
   5.5380281 110.3271166  62.8692203   4.8410733 109.0532742  62.4409016
   1.9212270 109.3934790  69.7955009   1.9073839 108.4975883  69.4587307
   2.6384699 109.4005453  70.4293295   3.7738401 109.8272130  71.8408136
   3.5156179 110.7489201  71.8392467   3.2423442 109.4302564  72.5308600
   1.3249166 108.2749170  65.0642579   1.4465078 107.3465816  65.2633466
   1.0351209 108.2887856  64.1520894   4.1940357 105.9604080  68.2009299
   4.2162054 106.0243414  67.2461278   4.6108416 105.1208589  68.3949805
  14.5723981 115.6959340  66.2388521  15.0155127 114.9466665  65.8407644
  13.6950491 115.6869476  65.8562253  11.6051186 119.6989387  63.2482451
  12.1302510 120.0376660  62.5231771  11.5173538 118.7636402  63.0645585
   0.8090246 109.7881167  79.2732511   0.8578401 110.6643290  78.8910281
   1.3512760 109.2458560  78.7004155  11.2945092 120.3322291  78.5533648
  10.5040635 120.3146429  78.0138148  11.0578446 120.8710584  79.3082685
  11.4142967 117.1814757  75.8666377  11.4640972 117.0164764  76.8081900
  11.3056890 116.3142016  75.4764258   8.7046729 113.1645685  77.1825684
   9.6056592 113.0252150  76.8909682   8.7794704 113.3300140  78.1223861
   3.0389534 110.5412540  76.0278870   2.1692844 110.8346106  75.7561459
   3.2749015 111.1252985  76.7486134  12.9161164 119.6011699  76.1108399
  12.6245972 119.9641679  76.9471860  12.3033295 118.8878707  75.9321731
  14.1156846 117.1664578  68.6310969  14.9503737 117.6054382  68.7948529
  14.2515975 116.6903232  67.8119215  11.1648352 114.7244313  74.5788457
  11.6402473 114.9171959  73.7707308  10.2413917 114.7803499  74.3331840
   5.7428568 106.7592157  73.5444290   6.2610512 107.4953184  73.2190779
   5.3883701 107.0656150  74.3791050   5.9941162 103.1792439  69.0645187
   6.2742916 102.5115628  69.6905614   6.7791769 103.3721535  68.5519851
   9.8650021 111.6010073  72.8116762  10.8167444 111.7008171  72.8328986
   9.6953471 110.8088342  73.3214847   7.8864400 108.6865656  72.9976163
   7.2914332 108.9670669  72.3022652   7.6014097 109.1759557  73.7692904
  12.3438099 114.8216193  71.9259062  12.3114419 113.8832194  72.1118746
  12.9538722 114.9000230  71.1924887   4.1821429 113.6912246  57.9686266
   5.1280534 113.5618454  58.0374684   3.8035674 112.9526908  58.4455694
  12.4932587 111.6127236  71.9717345  11.9771636 110.8285693  71.7847274
  13.3772536 111.2845953  72.1363864  10.1543314 105.3568252  67.9313158
   9.9568135 105.0483340  68.8156490  10.7643020 106.0829891  68.0611088
  18.1614648 115.8832200  71.0665099  18.8918037 115.6217488  71.6272802
  17.5521594 115.1460922  71.1067167  16.2429946 114.0240062  71.6639550
  15.5163109 113.8896027  71.0556041  15.8277232 114.3316891  72.4696268
   4.0660122 117.7429992  79.4286923   4.9863131 117.9208591  79.6226969
   4.0309705 116.7986037  79.2766622   2.3664347 111.6162222  57.9041151
   1.4595802 111.3195335  57.9803865   2.6440328 111.3192040  57.0375437
   3.9826412 106.1599112  64.0585392   3.1727141 105.8146197  64.4340638
   4.6710829 105.8506656  64.6473004   5.9116961 105.2377159  65.6809689
   6.4647999 105.6572612  66.3399712   6.1487047 104.3112907  65.7232645
   1.9350060 111.2264232  81.4612453   1.8346787 112.1758589  81.3924544
   1.7171602 110.8982471  80.5888523   1.1363131 108.4749158  58.0453130
   1.9982295 108.8004056  58.3048948   1.3213475 107.6880653  57.5326196
   9.2895768 107.3477684  65.1888353   8.7094437 108.0062488  64.8066406
   9.0231700 106.5255029  64.7775771   7.7399334 106.7482742  67.3909674
   8.2399112 106.8599276  66.5823992   8.3834942 106.4443795  68.0310482
   1.7981330 114.6561371  80.2777515   1.3148412 115.4561731  80.4841404
   1.8842269 114.6669316  79.3244959   8.0720646 109.5077774  64.2444702
   7.1846501 109.7927425  64.0264896   8.4874635 109.3471538  63.3971978
  11.4235182 109.5324295  67.9599041  12.1995572 110.0220748  68.2323658
  10.6983316 109.9582350  68.4170910  13.8607740 110.2451915  69.0172981
  14.4552231 110.0047651  68.3066290  13.9334324 109.5259045  69.6446518
   8.0461669 115.0232310  64.4594992   7.9896871 115.4800862  63.6202624
   8.5990012 114.2622995  64.2817834  11.8566475 110.8122042  65.2845111
  11.6003410 110.4118678  66.1153319  11.2319343 111.5265836  65.1595250
  16.1678813 113.5518115  67.7916403  15.6078371 113.6211305  68.5647965
  15.5622317 113.3759100  67.0715899   9.1250557 119.7104978  60.3891182
   9.9596160 119.2786177  60.2068656   8.9634899 119.5386992  61.3168076
   8.7796449 116.2137092  61.7547521   8.7245253 116.0481363  60.8135965
   8.1542504 116.9213124  61.9109711   6.0942356 118.5186003  81.0801084
   6.9633516 118.6926656  80.7187719   5.6149107 119.3380420  80.9576813
   2.0892574 105.7145201  61.3332839   2.0771244 106.6587040  61.4901110
   2.9815996 105.5315346  61.0392300   5.9044694 102.3087977  65.5878776
   5.1377089 101.7546464  65.7335458   6.3155399 102.3809846  66.4492928
  20.2309948 121.6022891  72.9227153  19.8993272 122.4718301  72.6988368
  19.6355561 121.2859175  73.6021184  21.9900257 124.5234415  71.7798377
  21.3474638 124.8166948  71.1338172  21.4855186 124.4087335  72.5851574
  17.3293079 119.4492472  72.5398467  16.9857349 120.3394113  72.4637578
  17.6972042 119.2594129  71.6768052  16.4089620 121.8197127  70.5047700
  15.9054415 121.7827262  69.6915506  16.7020227 122.7289870  70.5644357
  12.5617492 121.0079313  65.6105318  11.9081905 120.6928331  64.9861933
  12.5197967 120.3855054  66.3365141  19.1280745 118.7086031  67.6416205
  19.4339622 117.8483394  67.3542120  19.8533350 119.3003651  67.4415199
  19.3982363 121.1380266  70.1400126  18.4845443 121.3684493  70.3082333
  19.8275464 121.2218710  70.9914158  13.3771063 121.0405039  71.9382140
  14.1997133 120.5665517  71.8161031  13.6209127 121.8195523  72.4380827
  15.0334111 121.2895998  68.2009299  15.0555808 121.3535331  67.2461278
  15.4502170 120.4500507  68.3949805  16.5822323 122.0884074  73.5444290
  17.1004267 122.8245101  73.2190779  16.2277455 122.3948068  74.3791050
  16.8334917 118.5084357  69.0645187  17.1136671 117.8407546  69.6905614
  17.6185524 118.7013453  68.5519851  20.9937068 120.6860170  67.9313158
  20.7961890 120.3775258  68.8156490  21.6036774 121.4121809  68.0611088
  14.8220167 121.4891030  64.0585392  14.0120895 121.1438115  64.4340638
  15.5104584 121.1798573  64.6473004  16.7510715 120.5669077  65.6809689
  17.3041754 120.9864530  66.3399712  16.9880801 119.6404825  65.7232645
  20.1289522 122.6769602  65.1888353  19.5488191 123.3354406  64.8066406
  19.8625455 121.8546946  64.7775771  18.5793089 122.0774659  67.3909674
  19.0792867 122.1891194  66.5823992  19.2228696 121.7735712  68.0310482
  24.7001495 125.5743832  69.0172981  25.2945986 125.3339568  68.3066290
  24.7728079 124.8550963  69.6446518  16.7438448 117.6379895  65.5878776
  15.9770844 117.0838382  65.7335458  17.1549153 117.7101764  66.4492928
   6.9114480  77.4026795  55.0590161   6.1578188  76.8334193  54.9034165
   7.0462021  77.3689459  56.0060796   0.9878626  77.5555431  52.1692304
   0.8496524  77.7457027  51.2413493   0.6314844  78.3174814  52.6260355
   1.0148005  79.6231958  57.1803576   1.4484512  79.5307247  58.0286630
   1.7279586  79.5989459  56.5423592   1.8763555  79.6655659  59.7136461
   2.0699445  80.5701469  59.9595736   1.7764173  79.2063078  60.5475046
   3.1305618  76.2229326  56.3584365   3.1195494  77.1054041  55.9878298
   2.2622997  75.8700876  56.1638902   3.7330228  77.3729545  52.9633828
   4.1761374  76.6236870  52.5652951   2.8556738  77.3639681  52.5807560
   0.7657432  81.3759592  49.9727757   1.2908756  81.7146865  49.2477077
   0.6779785  80.4406607  49.7890892   0.5749213  78.8584962  62.5911684
   0.6247218  78.6934969  63.5327206   0.4663137  77.9912221  62.2009564
   2.0767410  81.2781903  62.8353705   1.7852219  81.6411884  63.6717166
   1.4639542  80.5648912  62.6567037   3.2763093  78.8434783  55.3556275
   4.1109984  79.2824587  55.5193836   3.4122221  78.3673436  54.5364521
   1.5044345  76.4986398  58.6504368   1.4720665  75.5602399  58.8364052
   2.1144969  76.5770435  57.9170193   1.6538834  73.2897441  58.6962652
   1.1377882  72.5055898  58.5092580   2.5378782  72.9616158  58.8609171
   7.3220895  77.5602405  57.7910405   8.0524284  77.2987693  58.3518109
   6.7127841  76.8231127  57.8312473   5.4036192  75.7010267  58.3884856
   4.6769356  75.5666232  57.7801348   4.9883479  76.0087096  59.1941574
   3.0213987  71.9222119  55.7418288   3.6158478  71.6817855  55.0311596
   3.0940571  71.2029250  56.3691824   1.0172722  72.4892247  52.0090418
   0.7609656  72.0888883  52.8398626   0.3925590  73.2036041  51.8840557
   5.3285060  75.2288320  54.5161709   4.7684618  75.2981510  55.2893271
   4.7228563  75.0529305  53.7961205   6.9141078  91.9044834  57.2091665
   7.5519488  91.7851582  56.5055005   6.7961921  92.8525678  57.2679617
   3.7230785  91.8572262  57.1453190   3.3849296  91.7413327  56.2573724
   4.5920553  91.4563427  57.1254196   4.2050568  93.0107114  63.1039395
   4.1939208  92.6159912  62.2319899   4.3671207  92.2773187  63.6973167
   5.1617159  97.3778706  48.4464545   4.5105139  97.9632787  48.0598559
   5.9561522  97.9084901  48.5059583   0.9257829  95.7944226  62.0518579
   0.6347695  96.6989857  61.9365245   1.5614813  95.8360754  62.7662649
   1.8514036  93.1721074  58.6419939   2.4477608  92.9477097  57.9276902
   1.9089007  92.4305820  59.2445387   1.4239064  90.6260510  46.4770130
   1.6764585  90.1042031  45.7153593   0.4863623  90.4626655  46.5796813
   6.4682347  89.6296288  54.2844873   7.2545436  89.2115711  53.9335290
   6.7321051  90.5342380  54.4526521   6.6392424  95.0669138  48.9833530
   6.0038257  95.1403765  49.6954434   6.3089831  95.6562737  48.3052609
  11.8690774  89.5671521  55.1877851  12.6015946  88.9970738  55.4215681
  11.1130130  89.1793122  55.6284357   1.1435353  92.5288616  48.6794505
   1.0271611  91.8533519  49.3475589   1.2537613  92.0420990  47.8626658
   3.4866894  91.9898763  52.3841194   3.1225101  91.4629384  53.0954115
   4.3434010  91.5997232  52.2107679   9.3916194  83.2793095  59.6472460
   9.0599519  84.1488506  59.4233675   8.7961808  82.9629379  60.3266490
   3.1272381  87.0188663  47.3802542   3.2946783  87.8868899  47.7473014
   2.9369550  87.1815944  46.4563832   5.8847714  95.4805641  59.0468373
   5.5848437  96.3830680  58.9384180   5.5398773  95.2137825  59.8989526
   9.2844858  87.9988182  56.7265810   8.3761735  87.9303590  56.4324571
   9.2332453  88.4760127  57.5547636   3.1061602  89.4746320  48.3649209
   2.9861227  89.9203371  49.2034690   2.4114190  89.8231638  47.8062747
   3.3585723  89.4177827  64.6700707   2.5819058  89.9771747  64.6603572
   3.9976287  89.9034610  65.1915578  11.1506504  86.2004620  58.5043684
  10.5080884  86.4937153  57.8583479  10.6461433  86.0857540  59.3096881
   8.8046668  89.9467793  49.1929543   9.7164524  90.1795180  49.0177241
   8.2956315  90.5304837  48.6304622   1.6132096  92.2263281  64.2318674
   2.3546780  92.7648325  63.9553498   0.9069081  92.8529569  64.3890226
   7.0887435  94.3692421  62.8290836   7.4970791  93.9274832  62.0845468
   6.3664697  93.7945049  63.0825029   3.4418505  89.3065028  60.2024393
   4.2879701  89.7304441  60.3459042   3.3817143  88.6498652  60.8962956
   7.4116250  94.9293612  56.5843125   6.7825113  95.0939326  55.8819193
   7.0241912  95.3435221  57.3554089  11.2905482  95.8648049  53.9387489
  10.6056520  96.2446951  53.3884522  11.3749331  96.4743376  54.6719436
   6.5917951  86.9669396  61.8605566   6.3478883  87.7211457  61.3239842
   6.8677881  87.3454744  62.6952814   8.5456414  93.5108009  60.5382832
   8.7573309  94.1539768  59.8617213   8.4986162  92.6770325  60.0704762
   6.1482643  86.1225829  57.4419404   5.2867122  86.4207083  57.7336142
   6.1745077  86.3396228  56.5100437   2.9644212  94.6668020  53.8493210
   3.4282557  94.9455723  53.0597832   2.7001010  93.7651464  53.6666301
   1.9013098  90.7891172  50.6582775   2.6037141  91.2412216  51.1256701
   1.5693726  90.1474991  51.2862668   9.6602242  96.3879964  58.7105189
  10.4819685  95.9860151  58.4287871   9.6564644  96.2848198  59.6621305
   3.4258845  95.9364007  60.8665900   3.4903277  96.3984414  61.7024072
   2.7169769  95.3061372  60.9948210  17.7508235  92.7318712  55.0590161
  16.9971943  92.1626110  54.9034165  17.8855776  92.6981377  56.0060796
   3.1406863  97.6032115  50.7344880   3.0052537  98.4483650  51.1629728
   3.6816675  97.8051392  49.9710814   2.5442163  85.0981574  64.9879492
   3.2851877  85.6988727  64.9083955   2.7760086  84.3559211  64.4297535
   4.7675339  98.2255681  64.8645222   4.3239193  97.4392060  64.5466127
   5.4292553  98.4134832  64.1989113   6.8656577  98.5058481  62.8926624
   6.8475052  99.3267362  62.4006893   7.7876497  98.3812556  63.1176765
   3.3229631  96.0202611  63.7350132   3.8557968  95.2590899  63.5049440
   2.7943712  95.7276262  64.4774286   6.4899326  81.1262677  59.2643774
   6.1463596  82.0164318  59.1882884   6.8578289  80.9364334  58.4013359
   6.4549609  91.1171288  47.7716209   5.9396232  91.8875892  48.0104596
   6.1826917  90.4436424  48.3949270   4.0396720  85.9620988  52.8301447
   3.1838316  85.5727839  52.6507086   4.4523672  86.0412949  51.9701233
   5.5695867  83.4967332  57.2293007   5.0660662  83.4597467  56.4160812
   5.8626473  84.4060074  57.2889664   1.8138752  83.5806061  56.2359189
   2.6791749  83.3848870  55.8765078   1.8816261  83.3516413  57.1628545
  11.4283883  93.8703642  49.7069382  10.6513326  93.5314802  49.2624544
  12.1075364  93.8756266  49.0324347   6.2435912  88.9898380  49.5975990
   5.9386048  89.3044529  50.4486133   7.1966354  89.0679800  49.6403323
   4.6882344  95.1488603  51.2468944   4.1603705  94.4141363  50.9342181
   4.1869847  95.9263279  51.0008912   9.6675190  93.3437624  56.3635990
   9.0098864  94.0336885  56.4516119  10.4715589  93.7334056  56.7069977
   8.4780649  91.6981996  54.4139932   8.9912530  92.3311988  54.9161642
   9.1281873  91.0983192  54.0483292   1.7223739  82.6849518  52.3350625
   1.0688152  82.3698535  51.7107240   1.6804213  82.0625259  53.0610448
   2.8334944  92.9668813  44.2503917   1.9262006  92.7358067  44.4495066
   3.3305976  92.1706433  44.4377899   5.7403023 101.6766321  47.1700603
   5.0664722 101.9798017  47.7785561   6.1268845 102.4795401  46.8206060
   4.9561480  89.1731452  56.6598273   4.0384041  89.3946399  56.5019961
   5.3721623  89.2477762  55.8009980   5.7396527  90.5722868  51.7900953
   6.4868346  91.0844265  51.4808075   6.0088117  90.2506920  52.6505346
   4.0123178  93.0681408  48.7727907   3.1034397  92.7840441  48.8700377
   4.0418261  93.4880487  47.9131214   9.2442445  96.6787998  52.5419075
   8.7904772  95.8378908  52.5984265   8.6136412  97.3149396  52.8793855
   8.1875365  87.6079984  53.7719742   7.4498121  87.0957370  54.1029985
   8.4402138  87.1680365  52.9603019   7.6875384  98.5164494  53.4768893
   7.9798359  99.0769552  52.7581258   8.1974005  98.8093055  54.2322052
   8.2886992  80.3856236  54.3661511   8.5945869  79.5253599  54.0787426
   9.0139597  80.9773856  54.1660505   2.5608072  90.6810029  54.8737702
   2.6156681  89.7283865  54.7980179   1.7499274  90.8369468  55.3579001
   3.7099265  94.6090152  46.1115986   3.2718695  93.8926011  45.6521623
   4.4509706  94.8366267  45.5501077   2.6509009  99.2944846  54.5662346
   2.6085188  99.5205692  53.6370878   3.5671708  99.0608220  54.7148147
   6.0974643  89.7628913  61.4642975   6.4524031  89.9900386  62.3237441
   6.7446774  90.0947290  60.8420231  11.8272380  92.8847349  52.1692304
  11.6890279  93.0748945  51.2413493  11.4708599  93.6466732  52.6260355
  11.8541760  94.9523876  57.1803576  12.2878266  94.8599165  58.0286630
  12.5673340  94.9281376  56.5423592   5.5869655  98.5525970  58.7136676
   5.6406677  99.1216906  59.4814392   4.7184436  98.7227855  58.3490713
  12.7157309  94.9947577  59.7136461  12.9093199  95.8993387  59.9595736
  12.6157927  94.5354996  60.5475046   4.3693620  84.8805467  62.2126788
   3.7221535  85.5795417  62.1191265   5.1394635  85.3141611  62.5803037
   7.7772418  95.1454319  65.2877342   7.6257924  94.9164871  64.3707425
   7.7677097  96.1024921  65.3008687   4.5457754  92.7186232  60.2723608
   5.4749814  92.8697392  60.0992576   4.1248784  92.8070253  59.4172255
   3.3446086  96.7436897  58.0422146   3.2057172  96.3755681  58.9148084
   2.5560682  97.2584536  57.8706104   3.9394238 101.8445993  49.3847682
   4.1145994 101.3734036  50.1993305   3.2527026 102.4711759  49.6128943
   4.8951301  96.1218499  55.4310984   4.5601134  96.0819269  56.3268634
   4.3955247  95.4563215  54.9581394   7.8310493  93.4674534  45.7048043
   7.2139664  92.7421362  45.6081096   7.3626981  94.2283894  45.3615118
   1.4977846  91.2406089  60.4447244   2.2077464  90.5999281  60.4033863
   1.4547154  91.4918983  61.3673425   9.4864625  98.1773442  63.3653824
   9.4277171  97.4932662  62.6984407   9.8884143  98.9192432  62.9134450
   9.4882032  96.1413026  61.5967803   8.6008811  95.8038948  61.7194202
  10.0580583  95.4096057  61.8336569   3.0183185 100.8014478  58.5629047
   2.9453357 101.6069450  59.0748351   2.5760578 101.0006444  57.7377068
   2.8072965 100.0386248  52.0731868   2.0240487 100.5807928  52.1670093
   3.5065710 100.5560228  52.4726109   6.1169615  85.8480878  54.7166073
   6.6138315  85.0950840  54.3967144   5.3456597  85.8845194  54.1509283
  13.9699372  91.5521243  56.3584365  13.9589249  92.4345959  55.9878298
  13.1016752  91.1992794  56.1638902   5.4781869 100.7001312  60.7187205
   6.1909841 101.3348777  60.6463107   4.9871897 100.7965178  59.9027207
   7.1999396  94.6052565  52.2904497   6.2655674  94.7254027  52.1209201
   7.3776064  93.7025032  52.0264507   2.7004584  87.9898261  54.4437758
   2.3302371  87.4369301  55.1318664   3.1963676  87.3856394  53.8912758
  10.5871947  90.4469884  52.8254531  11.0532399  91.2797876  52.7514834
  11.0379448  89.9814866  53.5299789   8.6548178  96.7913705  49.8240683
   8.9308022  96.6770300  50.7334557   7.7852677  96.3931190  49.7852856
   8.5588610  82.8150471  56.8645432   7.6451690  83.0454698  57.0327639
   8.9881711  82.8988915  57.7159465   8.3295068  91.0040363  59.3645326
   7.6766519  91.2516271  58.7097779   8.7075448  90.1904501  59.0307804
   5.2902242 101.0400056  53.4673497   5.4724637 100.2221712  53.9301249
   6.1135228 101.2567749  53.0298387   5.6244408  99.9668241  50.7288545
   6.1532174  99.4560696  50.1158707   5.8872627  99.6510772  51.5934078
   4.3782641  91.7460174  65.8511363   3.7023278  91.6454304  66.5213739
   5.2010275  91.5899388  66.3147361   3.1205424 103.0527102  60.0868979
   3.6723732 103.2158723  60.8518065   3.4611618 103.6431539  59.4149004
   7.9716299  97.8788359  65.9417634   8.5156203  98.4918317  65.4472589
   7.3903143  98.4367938  66.4584647   6.2573811 101.0009077  57.0732662
   6.1324951 100.1998817  56.5643607   6.9152903 101.4955271  56.5846632
   8.3208720  98.8018097  58.7012212   7.3739055  98.6823448  58.6290538
   8.6691493  97.9140595  58.7838473   0.6808293  84.6912236  62.5250454
   1.2042695  84.9374533  63.2876763   0.4620627  85.5232271  62.1053591
   5.3255153  98.5970813  54.9016564   5.1780116  97.6687521  55.0824134
   6.1508647  98.6190904  54.4173639   8.9289275  99.4199372  55.9881437
   9.8535822  99.2142234  55.8505888   8.7604578  99.1715773  56.8970778
   1.8860838  85.6325931  60.2100124   1.5457659  84.8333744  60.6120804
   1.1799845  85.9327642  59.6376957   2.5377310  82.7175244  58.6627447
   3.3603379  82.2435722  58.5406337   2.7815374  83.4965727  59.1626133
   1.1785545  85.7463502  48.9590349   1.8993907  86.1244755  48.4554066
   0.5550849  86.4652379  49.0625327   5.3216667  86.4508651  49.8948681
   5.5380282  87.3333289  49.5937509   4.8410735  86.0594865  49.1654323
   1.9212272  86.3996912  56.5200315   1.9073840  85.5038006  56.1832613
   2.6384700  86.4067576  57.1538601   3.7738402  86.8334253  58.5653443
   3.5156180  87.7551323  58.5637773   3.2423443  86.4364687  59.2553907
   8.7184591  99.9385040  51.3443528   8.8921469  99.3731462  50.5917381
   9.2113482 100.7385935  51.1623018   1.3249168  85.2811293  51.7887885
   1.4465079  84.3527939  51.9878773   1.0351210  85.2949979  50.8766201
   4.1940358  82.9666203  54.9254605   4.2162055  83.0305536  53.9706585
   4.6108417  82.1270712  55.1195111  14.5723982  92.7021463  52.9633828
  15.0155128  91.9528788  52.5652951  13.6950493  92.6931599  52.5807560
   9.7059764  99.2551804  48.4440426  10.4010668  99.8758497  48.6627741
  10.0482914  98.4047155  48.7192804  11.6051187  96.7051510  49.9727757
  12.1302511  97.0438782  49.2477077  11.5173539  95.7698525  49.7890892
   3.2671236 100.6185583  62.1017634   3.5758362 100.3734730  62.9740333
   4.0646718 100.8232222  61.6136504   3.2891848 102.7723493  54.3323010
   2.8496838 102.2799872  55.0255867   4.0399965 102.2296461  54.0915086
   0.8090247  86.7943290  65.9977818   0.8578403  87.6705413  65.6155588
   1.3512761  86.2520683  65.4249461  11.2945093  97.3384413  65.2778955
  10.5040637  97.3208552  64.7383455  11.0578447  97.8772707  66.0327992
  11.4142968  94.1876880  62.5911684  11.4640973  94.0226887  63.5327206
  11.3056891  93.3204139  62.2009564   8.7046730  90.1707808  63.9070990
   9.6056593  90.0314272  63.6154988   8.7794705  90.3362262  64.8469168
   3.0389536  87.5474662  62.7524177   2.1692845  87.8408228  62.4806765
   3.2749016  88.1315107  63.4731440  12.9161165  96.6073821  62.8353705
  12.6245973  96.9703802  63.6717166  12.3033296  95.8940829  62.6567037
  14.1156847  94.1726701  55.3556275  14.9503738  94.6116505  55.5193836
  14.2515976  93.6965354  54.5364521  11.1648353  91.7306436  61.3033763
  11.6402475  91.9234082  60.4952615  10.2413918  91.7865622  61.0577147
   5.7428569  83.7654279  60.2689597   6.2610513  84.5015306  59.9436086
   5.3883702  84.0718273  61.1036356   5.9941164  80.1854562  55.7890494
   6.2742917  79.5177751  56.4150920   6.7791771  80.3783657  55.2765158
   3.7974632  99.3613556  47.3515520   3.2248599  99.9803743  46.8985992
   4.3707426  99.9112917  47.8855442   9.8650022  88.6072196  59.5362069
  10.8167445  88.7070294  59.5574293   9.6953472  87.8150464  60.0460153
   7.8864401  85.6927779  59.7221470   7.2914334  85.9732792  59.0267958
   7.6014098  86.1821680  60.4938211   7.0171892  99.6450706  48.4824102
   7.9502565  99.5796268  48.6856978   6.9295105 100.4806973  48.0238635
   9.6459909  98.9616576  45.4428050   9.5673540  98.6276440  46.3363808
  10.4669575  99.4538344  45.4419522  12.3438100  91.8278316  58.6504368
  12.3114420  90.8894316  58.8364052  12.9538723  91.9062352  57.9170193
   4.1821431  90.6974369  44.6931572   5.1280535  90.5680577  44.7619991
   3.8035676  89.9589030  45.1701001  12.4932588  88.6189359  58.6962652
  11.9771637  87.8347816  58.5092580  13.3772537  88.2908076  58.8609171
  10.1543315  82.3630375  54.6558464   9.9568136  82.0545463  55.5401796
  10.7643021  83.0892013  54.7856394  18.1614650  92.8894322  57.7910405
  18.8918038  92.6279611  58.3518109  17.5521595  92.1523044  57.8312473
  16.2429947  91.0302185  58.3884856  15.5163110  90.8958150  57.7801348
  15.8277234  91.3379014  59.1941574   4.0660123  94.7492115  66.1532229
   4.9863133  94.9270714  66.3472276   4.0309706  93.8048160  66.0011929
   2.3664348  88.6224345  44.6286458   1.4595803  88.3257458  44.7049171
   2.6440329  88.3254163  43.7620744   3.9826414  83.1661235  50.7830699
   3.1727142  82.8208320  51.1585945   4.6710830  82.8568778  51.3718311
   5.9116962  82.2439281  52.4054996   6.4648000  82.6634735  53.0645019
   6.1487048  81.3175030  52.4477952   1.9350061  88.2326355  68.1857760
   1.8346788  89.1820712  68.1169851   1.7171603  87.9044594  67.3133830
   1.1363132  85.4811280  44.7698437   1.9982296  85.8066178  45.0294254
   1.3213477  84.6942776  44.2571503   9.2895769  84.3539807  51.9133660
   8.7094438  85.0124611  51.5311712   9.0231702  83.5317151  51.5021077
   7.7399335  83.7544864  54.1154980   8.2399114  83.8661399  53.3069299
   8.3834943  83.4505917  54.7555789   1.7981331  91.6623494  67.0022821
   1.3148413  92.4623854  67.2086710   1.8842270  91.6731439  66.0490265
   8.0720647  86.5139897  50.9690008   7.1846502  86.7989548  50.7510203
   8.4874636  86.3533660  50.1217285  11.4235183  86.5386418  54.6844347
  12.1995573  87.0282870  54.9568964  10.6983317  86.9644472  55.1416217
  13.8607742  87.2514037  55.7418288  14.4552232  87.0109773  55.0311596
  13.9334325  86.5321168  56.3691824   7.2163860  96.2784572  45.0638028
   7.9199711  96.4834574  45.6795684   6.4926509  96.8461334  45.3287112
   8.0461671  92.0294433  51.1840298   7.9896872  92.4862984  50.3447931
   8.5990013  91.2685117  51.0063141  11.8566477  87.8184165  52.0090418
  11.6003411  87.4180800  52.8398626  11.2319345  88.5327959  51.8840557
  16.1678814  90.5580238  54.5161709  15.6078372  90.6273427  55.2893271
  15.5622318  90.3821223  53.7961205   9.1250558  96.7167101  47.1136488
   9.9596162  96.2848299  46.9313963   8.9634901  96.5449115  48.0413383
   8.7796450  93.2199214  48.4792828   8.7245254  93.0543486  47.5381272
   8.1542505  93.9275247  48.6355017   6.0942357  95.5248126  67.8046390
   6.9633517  95.6988778  67.4433025   5.6149109  96.3442543  67.6822120
   2.0892575  82.7207323  48.0578146   2.0771245  83.6649163  48.2146417
   2.9815997  82.5377469  47.7637607   2.0182139 101.3976214  56.1445903
   1.0677770 101.3978075  56.0310275   2.3214626 100.6508948  55.6281937
   5.9044695  79.3150100  52.3124083   5.1377091  78.7608586  52.4580765
   6.3155400  79.3871969  53.1738234  17.7534833 107.2336752  57.2091665
  18.3913243 107.1143499  56.5055005  17.6355676 108.1817596  57.2679617
  14.5624539 107.1864180  57.1453190  14.2243051 107.0705245  56.2573724
  15.4314307 106.7855345  57.1254196  10.4211355 109.0399656  53.1350081
   9.8576220 108.9489593  52.3666368  10.3063750 108.2199561  53.6152573
  15.0444322 108.3399032  63.1039395  15.0332963 107.9451830  62.2319899
  15.2064962 107.6065104  63.6973167   7.9675787 110.5350848  55.9734301
   8.7597079 110.1941673  55.5580600   8.2072437 110.6445823  56.8936454
  16.0010914 112.7070624  48.4464545  15.3498893 113.2924705  48.0598559
  16.7955276 113.2376819  48.5059583   9.9266541 109.7959761  48.8451680
  10.6997417 109.2488748  48.7064556  10.2791940 110.6604011  49.0566141
  11.7651583 111.1236144  62.0518579  11.4741449 112.0281774  61.9365245
  12.4008568 111.1652671  62.7662649  12.6907790 108.5012992  58.6419939
  13.2871362 108.2769015  57.9276902  12.7482762 107.7597738  59.2445387
  12.2632819 105.9552427  46.4770130  12.5158339 105.4333949  45.7153593
  11.3257378 105.7918573  46.5796813  17.3076101 104.9588206  54.2844873
  18.0939191 104.5407629  53.9335290  17.5714806 105.8634298  54.4526521
  17.4786179 110.3961056  48.9833530  16.8432012 110.4695683  49.6954434
  17.1483585 110.9854655  48.3052609  22.7084529 104.8963439  55.1877851
  23.4409700 104.3262656  55.4215681  21.9523884 104.5085039  55.6284357
  11.9829107 107.8580533  48.6794505  11.8665365 107.1825437  49.3475589
  12.0931367 107.3712907  47.8626658  14.3260648 107.3190680  52.3841194
  13.9618855 106.7921301  53.0954115  15.1827764 106.9289150  52.2107679
  20.2309949  98.6085013  59.6472460  19.8993274  99.4780424  59.4233675
  19.6355562  98.2921297  60.3266490  13.9666135 102.3480580  47.3802542
  14.1340538 103.2160817  47.7473014  13.7763304 102.5107862  46.4563832
  16.7241468 110.8097559  59.0468373  16.4242191 111.7122598  58.9384180
  16.3792528 110.5429742  59.8989526  10.1753950 107.2611356  55.0805077
   9.2504446 107.1287570  55.2882769  10.4238363 108.0405575  55.5775020
  20.1238612 103.3280099  56.7265810  19.2155490 103.2595508  56.4324571
  20.0726208 103.8052044  57.5547636  13.9455356 104.8038238  48.3649209
  13.8254981 105.2495288  49.2034690  13.2507944 105.1523555  47.8062747
   7.5362761 106.9044629  55.9148866   7.6655142 107.1579108  56.8288278
   6.8560212 107.4972337  55.5953521  11.7062248 117.5741879  52.0139341
  11.6286278 118.5249705  52.0927821  11.1023892 117.2287752  52.6714267
  14.1979478 104.7469745  64.6700707  13.4212812 105.3063665  64.6603572
  14.8370041 105.2326528  65.1915578  21.9900259 101.5296538  58.5043684
  21.3474639 101.8229071  57.8583479  21.4855187 101.4149458  59.3096881
  19.6440422 105.2759711  49.1929543  20.5558278 105.5087098  49.0177241
  19.1350069 105.8596755  48.6304622  12.4525850 107.5555198  64.2318674
  13.1940535 108.0940242  63.9553498  11.7462836 108.1821487  64.3890226
  17.9281190 109.6984339  62.8290836  18.3364546 109.2566749  62.0845468
  17.2058451 109.1236966  63.0825029  14.2812260 104.6356945  60.2024393
  15.1273455 105.0596359  60.3459042  14.2210898 103.9790570  60.8962956
  18.2510005 110.2585529  56.5843125  17.6218867 110.4231243  55.8819193
  17.8635667 110.6727139  57.3554089  22.1299236 111.1939967  53.9387489
  21.4450275 111.5738869  53.3884522  22.2143086 111.8035294  54.6719436
  17.4311705 102.2961314  61.8605566  17.1872637 103.0503374  61.3239842
  17.7071636 102.6746661  62.6952814  19.3850168 108.8399926  60.5382832
  19.5967063 109.4831686  59.8617213  19.3379916 108.0062243  60.0704762
  16.9876397 101.4517747  57.4419404  16.1260876 101.7499000  57.7336142
  17.0138832 101.6688146  56.5100437  13.8037966 109.9959937  53.8493210
  14.2676312 110.2747640  53.0597832  13.5394765 109.0943382  53.6666301
  10.6962047 109.5431419  56.7872973  11.2663405 109.9718687  56.1490458
  11.2870159 109.2614004  57.4857159  12.7406852 106.1183090  50.6582775
  13.4430896 106.5704133  51.1256701  12.4087481 105.4766909  51.2862668
  11.1887214 104.7094846  65.0333984  10.5585875 105.3911127  65.2669381
  11.0823302 104.5977928  64.0887123   6.4832186 104.3766642  55.9599909
   5.6931240 104.6324171  55.4840019   6.9743434 105.1914980  56.0651949
  20.4995996 111.7171882  58.7105189  21.3213440 111.3152069  58.4287871
  20.4958399 111.6140116  59.6621305   8.4346932 104.7411222  52.9183385
   7.6378095 104.8529916  53.4366881   8.2072524 105.0797874  52.0524276
  14.2652599 111.2655925  60.8665900  14.3297032 111.7276332  61.7024072
  13.5563523 110.6353290  60.9948210   4.7669889 104.6297133  58.3914899
   5.0177928 105.5144143  58.6572475   5.3029438 104.4501734  57.6189991
  28.5901989 108.0610630  55.0590161  27.8365697 107.4918028  54.9034165
  28.7249530 108.0273295  56.0060796  13.9800617 112.9324032  50.7344880
  13.8446292 113.7775568  51.1629728  14.5210430 113.1343310  49.9710814
  10.4667957  99.0115612  67.3959235  10.0734902  98.4581811  68.0706880
  11.2834097  99.3226191  67.7865753   7.4330014 110.4499470  51.3072805
   7.9454535 111.2442721  51.4578370   8.0852727 109.7525761  51.2406407
   9.2424899 113.5665227  53.3895559   9.4191528 114.4883191  53.2016542
  10.0381733 113.2523646  53.8189938  13.3835918 100.4273491  64.9879492
  14.1245631 101.0280644  64.9083955  13.6153841  99.6851129  64.4297535
   8.5277256 105.6129859  63.2657722   8.4130771 104.7115116  63.5664821
   7.6721773 105.8593555  62.9142538  15.6069093 113.5547599  64.8645222
  15.1632948 112.7683977  64.5466127  16.2686307 113.7426749  64.1989113
  10.3656215 115.0843400  59.3905901  10.9163640 114.9560464  58.6182895
   9.5267691 115.3838290  59.0400794  17.7050332 113.8350399  62.8926624
  17.6868807 114.6559280  62.4006893  18.6270252 113.7104474  63.1176765
  14.1623386 111.3494528  63.7350132  14.6951723 110.5882817  63.5049440
  13.6337467 111.0568180  64.4774286  17.3293081  96.4554594  59.2643774
  16.9857350  97.3456236  59.1882884  17.6972043  96.2656252  58.4013359
   5.3978931 108.7788125  52.0832376   6.2354153 109.1885133  51.8666084
   5.5757199 107.8387567  52.0532570  17.2943363 106.4463205  47.7716209
  16.7789987 107.2167810  48.0104596  17.0220672 105.7728342  48.3949270
  14.8790474 101.2912906  52.8301447  14.0232071 100.9019757  52.6507086
  15.2917426 101.3704867  51.9701233  16.4089621  98.8259249  57.2293007
  15.9054417  98.7889385  56.4160812  16.7020228  99.7351992  57.2889664
  12.6532507  98.9097979  56.2359189  13.5185504  98.7140788  55.8765078
  12.7210016  98.6808331  57.1628545  22.2677638 109.1995560  49.7069382
  21.4907080 108.8606720  49.2624544  22.9469118 109.2048183  49.0324347
  17.0829667 104.3190297  49.5975990  16.7779802 104.6336447  50.4486133
  18.0360109 104.3971717  49.6403323  15.5276098 110.4780521  51.2468944
  14.9997460 109.7433280  50.9342181  15.0263601 111.2555197  51.0008912
  20.5068944 108.6729541  56.3635990  19.8492619 109.3628803  56.4516119
  21.3109344 109.0625973  56.7069977  10.2594826 101.1400187  53.6075556
  10.8338578 100.9175369  52.8748748  10.8465808 101.2088882  54.3604157
  19.3174403 107.0273914  54.4139932  19.8306285 107.6603906  54.9161642
  19.9675627 106.4275109  54.0483292  10.5864413 103.1704648  47.6271441
   9.7501725 103.5079335  47.9480716  10.4469183 103.0353628  46.6898578
  12.5617494  98.0141436  52.3350625  11.9081906  97.6990453  51.7107240
  12.5197968  97.3917176  53.0610448  13.6728699 108.2960731  44.2503917
  12.7655760 108.0649985  44.4495066  14.1699731 107.4998350  44.4377899
  16.5796777 117.0058238  47.1700603  15.9058476 117.3089935  47.7785561
  16.9662599 117.8087319  46.8206060  15.7955234 104.5023370  56.6598273
  14.8777795 104.7238317  56.5019961  16.2115378 104.5769680  55.8009980
  16.5790282 105.9014785  51.7900953  17.3262101 106.4136182  51.4808075
  16.8481871 105.5798838  52.6505346  14.8516932 108.3973326  48.7727907
  13.9428151 108.1132359  48.8700377  14.8812016 108.8172404  47.9131214
  20.0836199 112.0079915  52.5419075  19.6298527 111.1670825  52.5984265
  19.4530166 112.6441314  52.8793855  19.0269119 102.9371901  53.7719742
  18.2891876 102.4249288  54.1029985  19.2795893 102.4972283  52.9603019
  18.5269139 113.8456412  53.4768893  18.8192113 114.4061469  52.7581258
  19.0367759 114.1384973  54.2322052  19.1280746  95.7148153  54.3661511
  19.4339623  94.8545517  54.0787426  19.8533351  96.3065774  54.1660505
   5.4205102 106.1178840  52.7543109   5.2229502 105.5248201  52.0294176
   4.8651766 105.8131050  53.4719048  13.4001826 106.0101947  54.8737702
  13.4550436 105.0575783  54.7980179  12.5893028 106.1661386  55.3579001
  14.5493020 109.9382070  46.1115986  14.1112450 109.2217929  45.6521623
  15.2903461 110.1658184  45.5501077  11.3394186 104.6279006  52.6328081
  10.5262052 104.9273177  53.0393273  11.8353180 104.2334695  53.3502564
  13.4902764 114.6236763  54.5662346  13.4478943 114.8497610  53.6370878
  14.4065463 114.3900138  54.7148147  16.9368398 105.0920831  61.4642975
  17.2917785 105.3192304  62.3237441  17.5840529 105.4239208  60.8420231
  22.6666135 108.2139267  52.1692304  22.5284033 108.4040863  51.2413493
  22.3102353 108.9758649  52.6260355  10.8308261 102.1997362  58.2489316
  11.4707640 102.0586121  57.5512280   9.9985791 101.9131875  57.8727918
  22.6935514 110.2815794  57.1803576  23.1272021 110.1891083  58.0286630
  23.4067095 110.2573294  56.5423592  11.6068565 111.4999792  54.3624309
  12.4009163 111.0050112  54.1606884  10.8960257 110.9717655  53.9992014
  16.4263409 113.8817888  58.7136676  16.4800431 114.4508824  59.4814392
  15.5578190 114.0519773  58.3490713   7.9151328 105.6442874  50.4384061
   6.9848916 105.5827329  50.6554024   8.0108800 105.1218827  49.6420703
   7.8336877 102.1697687  53.0262303   8.0943694 103.0843020  52.9171464
   8.6554049 101.7022129  53.1758916   9.3061803 103.5835444  60.1961128
   9.9784856 103.3752806  59.5473777   8.4791589 103.3857530  59.7566360
  23.5551064 110.3239494  59.7136461  23.7486954 111.2285305  59.9595736
  23.4551682 109.8646913  60.5475046  15.2087375 100.2097385  62.2126788
  14.5615290 100.9087335  62.1191265  15.9788390 100.6433529  62.5803037
  18.6166172 110.4746237  65.2877342  18.4651679 110.2456789  64.3707425
  18.6070852 111.4316838  65.3008687  15.3851509 108.0478150  60.2723608
  16.3143569 108.1989309  60.0992576  14.9642539 108.1362171  59.4172255
  14.1839841 112.0728814  58.0422146  14.0450926 111.7047599  58.9148084
  13.3954437 112.5876454  57.8706104  14.7787993 117.1737911  49.3847682
  14.9539748 116.7025954  50.1993305  14.0920781 117.8003677  49.6128943
  15.7345056 111.4510417  55.4310984  15.3994888 111.4111187  56.3268634
  15.2349001 110.7855133  54.9581394   9.7089300 106.8578047  60.9563565
   9.5709098 106.1258286  61.5575104  10.6194223 106.7686947  60.6747753
  18.6704247 108.7966451  45.7048043  18.0533418 108.0713279  45.6081096
  18.2020736 109.5575812  45.3615118  12.3371600 106.5698006  60.4447244
  13.0471219 105.9291198  60.4033863  12.2940909 106.8210901  61.3673425
  20.3258379 113.5065360  63.3653824  20.2670925 112.8224580  62.6984407
  20.7277897 114.2484350  62.9134450  11.0500534 103.5563224  62.2642884
  10.5137891 103.1053963  62.9164480  10.4617243 103.6909133  61.5213348
  10.4602793 103.0151876  44.8269348   9.5832260 102.8940676  44.4631594
  10.9360546 102.2237954  44.5748236  20.3275786 111.4704944  61.5967803
  19.4402565 111.1330865  61.7194202  20.8974337 110.7387975  61.8336569
   1.9804933 107.8029035  54.9210855   2.6675973 107.4890765  54.3331870
   1.8253062 108.7070400  54.6478106   6.7839656 102.6919232  59.3495878
   6.6997844 102.0844901  58.6146288   5.9622362 103.1828250  59.3505375
  13.8576940 116.1306396  58.5629047  13.7847111 116.9361367  59.0748351
  13.4154333 116.3298362  57.7377068  13.6466719 115.3678166  52.0731868
  12.8634241 115.9099846  52.1670093  14.3459465 115.8852146  52.4726109
  16.9563369 101.1772795  54.7166073  17.4532069 100.4242758  54.3967144
  16.1850351 101.2137112  54.1509283  24.8093127 106.8813161  56.3584365
  24.7983003 107.7637876  55.9878298  23.9410506 106.5284712  56.1638902
  16.3175623 116.0293230  60.7187205  17.0303595 116.6640695  60.6463107
  15.8265652 116.1257096  59.9027207  18.0393150 109.9344483  52.2904497
  17.1049429 110.0545945  52.1209201  18.2169819 109.0316949  52.0264507
  13.5398338 103.3190178  54.4437758  13.1696126 102.7661219  55.1318664
  14.0357431 102.7148312  53.8912758  21.4265702 105.7761802  52.8254531
  21.8926154 106.6089793  52.7514834  21.8773202 105.3106783  53.5299789
  11.3687537 113.7787673  61.5392776  12.0696996 114.4124156  61.6922170
  10.8982652 114.1202405  60.7788415  19.4941933 112.1205623  49.8240683
  19.7701777 112.0062218  50.7334557  18.6246431 111.7223108  49.7852856
  19.3982364  98.1442389  56.8645432  18.4845444  98.3746616  57.0327639
  19.8275466  98.2280833  57.7159465  19.1688823 106.3332281  59.3645326
  18.5160273 106.5808188  58.7097779  19.5469203 105.5196419  59.0307804
  16.1295997 116.3691974  53.4673497  16.3118391 115.5513630  53.9301249
  16.9528983 116.5859666  53.0298387  16.4638162 115.2960159  50.7288545
  16.9925929 114.7852614  50.1158707  16.7266382 114.9802689  51.5934078
  15.2176396 107.0752092  65.8511363  14.5417033 106.9746221  66.5213739
  16.0404030 106.9191306  66.3147361   6.9655255 113.3124028  58.4723879
   7.5508692 112.5667716  58.6051783   6.7680093 113.6227985  59.3560543
   9.8193910 116.3475276  53.4886321   9.1504285 116.8321403  53.0050361
   9.6806780 116.5944496  54.4029700   1.5572910 105.8829629  57.1928322
   1.5957009 105.3493219  57.9865440   1.0513202 105.3564834  56.5739299
  13.9599179 118.3819019  60.0868979  14.5117487 118.5450641  60.8518065
  14.3005372 118.9723457  59.4149004   8.9363672 100.7294169  60.6890864
   9.0004998 101.5909000  60.2768262   8.8730792 100.1168171  59.9563223
   8.4115944 102.8017302  64.3363898   9.0387983 102.4194379  64.9501423
   7.5543863 102.5831504  64.7019591  18.8110053 113.2080277  65.9417634
  19.3549957 113.8210235  65.4472589  18.2296898 113.7659855  66.4584647
   5.1881487 104.6093731  50.2682253   5.4834928 103.7004409  50.2149307
   4.2869523 104.5881470  49.9463256  17.0967566 116.3300995  57.0732662
  16.9718705 115.5290735  56.5643607  17.7546657 116.8247188  56.5846632
   8.7175734 102.6849727  56.2509802   7.9962320 103.2985695  56.1117275
   9.5068990 103.2207492  56.1726448  19.1602474 114.1310015  58.7012212
  18.2132810 114.0115366  58.6290538  19.5085247 113.2432513  58.7838473
  11.5202048 100.0204154  62.5250454  12.0436450 100.2666450  63.2876763
  11.3014381 100.8524189  62.1053591   6.9169329 102.2907828  50.3921578
   6.5882035 101.4105207  50.2096684   7.2708699 102.2355497  51.2797968
  16.1648908 113.9262731  54.9016564  16.0173870 112.9979439  55.0824134
  16.9902401 113.9482822  54.4173639  10.0311152 102.5780798  50.7597056
  10.3707224 103.1066719  50.0375664  10.4783272 102.9161204  51.5355623
  19.7683029 114.7491290  55.9881437  20.6929577 114.5434151  55.8505888
  19.5998333 114.5007691  56.8970778  12.7254593 100.9617849  60.2100124
  12.3851413 100.1625662  60.6120804  12.0193599 101.2619560  59.6376957
  13.3771065  98.0467161  58.6627447  14.1997134  97.5727640  58.5406337
  13.6209128  98.8257645  59.1626133  12.0179299 101.0755420  48.9590349
  12.7387662 101.4536673  48.4554066  11.3944603 101.7944297  49.0625327
  16.1610422 101.7800569  49.8948681  16.3774036 102.6625207  49.5937509
  15.6804489 101.3886782  49.1654323  10.9009643 104.7386282  56.4719426
  10.7554224 105.0526585  57.3643707  10.4234847 105.3571182  55.9190324
  12.7606026 101.7288830  56.5200315  12.7467595 100.8329923  56.1832613
  13.4778454 101.7359494  57.1538601  14.6132157 102.1626170  58.5653443
  14.3549935 103.0843241  58.5637773  14.0817197 101.7656605  59.2553907
  19.5578346 115.2676957  51.3443528  19.7315223 114.7023380  50.5917381
  20.0507237 116.0677852  51.1623018   5.3755306 107.2791626  59.4107087
   4.8308774 108.0551434  59.5427361   6.2534655 107.6262431  59.2526208
  12.1642922 100.6103210  51.7887885  12.2858833  99.6819856  51.9878773
  11.8744965 100.6241896  50.8766201  15.0334113  98.2958121  54.9254605
  15.0555809  98.3597454  53.9706585  15.4502172  97.4562629  55.1195111
  25.4117737 108.0313380  52.9633828  25.8548883 107.2820705  52.5652951
  24.5344247 108.0223517  52.5807560  20.5453518 114.5843722  48.4440426
  21.2404423 115.2050414  48.6627741  20.8876668 113.7339073  48.7192804
   6.1621327 106.4061523  62.3037244   5.4203063 106.5544158  62.8901874
   5.8414072 106.6669788  61.4403993  22.4444941 112.0343427  49.9727757
  22.9696265 112.3730700  49.2477077  22.3567294 111.0990443  49.7890892
  14.1064990 115.9477501  62.1017634  14.4152116 115.7026648  62.9740333
  14.9040472 116.1524139  61.6136504  14.1285602 118.1015411  54.3323010
  13.6890592 117.6091789  55.0255867  14.8793719 117.5588378  54.0915086
   6.6077941 114.2926951  54.3347638   7.4335961 113.9930723  53.9546282
   6.2571993 113.5234574  54.7837427  11.5759474 113.6453420  56.4045312
  10.9539483 112.9824125  56.1047540  12.2464341 113.6714552  55.7218960
   4.8086546 112.2113278  55.2936572   3.9718454 111.7835452  55.1120573
   4.7810192 112.4045721  56.2307363  11.6484002 102.1235208  65.9977818
  11.6972157 102.9997330  65.6155588  12.1906516 101.5812601  65.4249461
  22.1338847 112.6676331  65.2778955  21.3434391 112.6500470  64.7383455
  21.8972202 113.2064625  66.0327992  22.2536722 109.5168797  62.5911684
  22.3034727 109.3518805  63.5327206  22.1450646 108.6496056  62.2009564
  11.1372981 112.1957343  49.8803773  11.2861101 112.8792807  49.2270445
  11.9439425 112.1762433  50.3953228  19.5440485 105.4999725  63.9070990
  20.4450348 105.3606190  63.6154988  19.6188459 105.6654180  64.8469168
  13.8783290 102.8766580  62.7524177  13.0086600 103.1700146  62.4806765
  14.1142771 103.4607025  63.4731440  23.7554919 111.9365739  62.8353705
  23.4639728 112.2995719  63.6717166  23.1427051 111.2232747  62.6567037
  24.9550602 109.5018619  55.3556275  25.7897493 109.9408423  55.5193836
  25.0909730 109.0257272  54.5364521  22.0042107 107.0598353  61.3033763
  22.4796229 107.2526000  60.4952615  21.0807673 107.1157539  61.0577147
   8.8925614 108.2222521  50.8864841   8.6471656 107.3184851  51.0845052
   9.0621529 108.2239671  49.9444319  16.5822324  99.0946197  60.2689597
  17.1004268  99.8307224  59.9436086  16.2277457  99.4010190  61.1036356
   8.1621262 103.9550878  48.3851003   7.4690507 104.0295233  47.7291039
   7.9173014 103.1911222  48.9072520  16.8334918  95.5146480  55.7890494
  17.1136672  94.8469669  56.4150920  17.6185525  95.7075575  55.2765158
  14.6368387 114.6905473  47.3515520  14.0642354 115.3095661  46.8985992
  15.2101180 115.2404835  47.8855442  20.7043776 103.9364114  59.5362069
  21.6561199 104.0362211  59.5574293  20.5347227 103.1442382  60.0460153
  18.7258156 101.0219697  59.7221470  18.1308088 101.3024709  59.0267958
  18.4407853 101.5113598  60.4938211  17.8565646 114.9742624  48.4824102
  18.7896320 114.9088185  48.6856978  17.7688859 115.8098890  48.0238635
  20.4853663 114.2908494  45.4428050  20.4067295 113.9568358  46.3363808
  21.3063330 114.7830262  45.4419522  23.1831854 107.1570233  58.6504368
  23.1508174 106.2186234  58.8364052  23.7932478 107.2354270  57.9170193
  15.0215185 106.0266286  44.6931572  15.9674290 105.8972494  44.7619991
  14.6429430 105.2880948  45.1701001  23.3326343 103.9481277  58.6962652
  22.8165391 103.1639733  58.5092580  24.2166291 103.6199993  58.8609171
  20.9937070  97.6922292  54.6558464  20.7961891  97.3837380  55.5401796
  21.6036775  98.4183931  54.7856394  29.0008404 108.2186240  57.7910405
  29.7311793 107.9571528  58.3518109  28.3915350 107.4814962  57.8312473
  27.0823701 106.3594103  58.3884856  26.3556865 106.2250068  57.7801348
  26.6670988 106.6670931  59.1941574  14.9053878 110.0784032  66.1532229
  15.8256887 110.2562631  66.3472276  14.8703461 109.1340078  66.0011929
  13.2058102 103.9516263  44.6286458  12.2989558 103.6549375  44.7049171
  13.4834083 103.6546081  43.7620744   4.1236043 105.2722626  55.0785504
   3.8038827 104.4187934  54.7859878   3.5769471 105.4871204  55.8343471
   7.9015950 107.9885067  58.7955011   8.1201960 108.9202175  58.8143044
   8.3141724 107.6293041  59.5809814  14.8220168  98.4953152  50.7830699
  14.0120896  98.1500237  51.1585945  15.5104585  98.1860696  51.3718311
  16.7510716  97.5731199  52.4054996  17.3041755  97.9926653  53.0645019
  16.9880803  96.6466947  52.4477952  12.7743816 103.5618273  68.1857760
  12.6740542 104.5112630  68.1169851  12.5565358 103.2336512  67.3133830
  11.9756887 100.8103198  44.7698437  12.8376051 101.1358096  45.0294254
  12.1607231 100.0234694  44.2571503   3.9924303 108.8925537  57.0478626
   3.2987774 108.4779490  56.5348580   4.7397294 108.9346074  56.4512045
  20.1289523  99.6831724  51.9133660  19.5488192 100.3416528  51.5311712
  19.8625456  98.8609069  51.5021077  18.5793090  99.0836782  54.1154980
  19.0792868  99.1953316  53.3069299  19.2228698  98.7797835  54.7555789
  12.6375086 106.9915412  67.0022821  12.1542167 107.7915772  67.2086710
  12.7236025 107.0023356  66.0490265   5.9061045 108.8243791  54.9244641
   5.8831733 108.9231479  53.9726524   6.2161682 109.6708942  55.2461807
   8.5648423 110.8819946  59.0391255   9.5191677 110.8503889  58.9721187
   8.3660947 110.4210570  59.8541481   9.1547805 109.4521062  61.6062053
   9.9740694 109.9465141  61.6296890   9.4284613 108.5353030  61.5779620
  18.9114401 101.8431815  50.9690008  18.0240256 102.1281465  50.7510203
  19.3268390 101.6825578  50.1217285  22.2628938 101.8678336  54.6844347
  23.0389328 102.3574788  54.9568964  21.5377072 102.2936390  55.1416217
  24.7001496 102.5805955  55.7418288  25.2945987 102.3401691  55.0311596
  24.7728080 101.8613085  56.3691824   6.9198652 116.4239566  56.0561453
   6.7853120 115.6639967  55.4899451   6.5030714 117.1480466  55.5890242
  18.0557615 111.6076489  45.0638028  18.7593465 111.8126492  45.6795684
  17.3320264 112.1753251  45.3287112  18.8855425 107.3586351  51.1840298
  18.8290627 107.8154902  50.3447931  19.4383768 106.5977035  51.0063141
  22.6960231 103.1476082  52.0090418  22.4397165 102.7472718  52.8398626
  22.0713099 103.8619876  51.8840557  27.0072569 105.8872156  54.5161709
  26.4472127 105.9565345  55.2893271  26.4016072 105.7113140  53.7961205
  10.0767778 117.3208883  56.2679896   9.9600162 118.2654315  56.1658586
   9.2560224 117.0182444  56.6565695  19.9644312 112.0459019  47.1136488
  20.7989916 111.6140217  46.9313963  19.8028655 111.8741032  48.0413383
  19.6190204 108.5491132  48.4792828  19.5639008 108.3835403  47.5381272
  18.9936260 109.2567165  48.6355017   4.4082719 103.7859196  62.3054250
   5.0541583 103.2758150  62.7941475   4.1999871 104.5227878  62.8797675
  16.9336112 110.8540044  67.8046390  17.8027271 111.0280696  67.4433025
  16.4542863 111.6734461  67.6822120  12.9286330  98.0499241  48.0578146
  12.9165000  98.9941081  48.2146417  13.8209752  97.8669386  47.7637607
  11.1022292 117.9737145  59.4835824  12.0049539 118.0060755  59.8002319
  10.8759662 117.0437596  59.4982160  12.8575894 116.7268131  56.1445903
  11.9071525 116.7269993  56.0310275  13.1608380 115.9800866  55.6281937
  16.7438449  94.6442017  52.3124083  15.9770845  94.0900504  52.4580765
  17.1549154  94.7163886  53.1738234   8.7480210 100.9326813  66.4029264
   9.6111672 100.5763618  66.6132589   8.1745621 100.5940708  67.0904668
  28.5928587 122.5628670  57.2091665  29.2306997 122.4435417  56.5055005
  28.4749430 123.5109514  57.2679617  25.4018294 122.5156098  57.1453190
  25.0636805 122.3997162  56.2573724  26.2708062 122.1147263  57.1254196
  21.2605109 124.3691574  53.1350081  20.6969974 124.2781511  52.3666368
  21.1457504 123.5491479  53.6152573  25.8838077 123.6690949  63.1039395
  25.8726717 123.2743748  62.2319899  26.0458716 122.9357022  63.6973167
  23.5301545 123.8304910  58.6419939  24.1265117 123.6060932  57.9276902
  23.5876516 123.0889655  59.2445387  23.1026573 121.2844345  46.4770130
  23.3552094 120.7625866  45.7153593  22.1651132 121.1210491  46.5796813
  28.1469856 120.2880123  54.2844873  28.9332945 119.8699547  53.9335290
  28.4108560 121.1926216  54.4526521  28.3179933 125.7252974  48.9833530
  27.6825766 125.7987600  49.6954434  27.9877340 126.3146573  48.3052609
  33.5478283 120.2255357  55.1877851  34.2803455 119.6554573  55.4215681
  32.7917639 119.8376957  55.6284357  22.8222862 123.1872451  48.6794505
  22.7059120 122.5117354  49.3475589  22.9325122 122.7004825  47.8626658
  25.1654403 122.6482598  52.3841194  24.8012610 122.1213219  53.0954115
  26.0221519 122.2581067  52.2107679  31.0703703 113.9376931  59.6472460
  30.7387028 114.8072342  59.4233675  30.4749317 113.6213215  60.3266490
  24.8059890 117.6772498  47.3802542  24.9734292 118.5452734  47.7473014
  24.6157059 117.8399780  46.4563832  27.5635223 126.1389477  59.0468373
  27.2635946 127.0414516  58.9384180  27.2186282 125.8721660  59.8989526
  21.0147704 122.5903274  55.0805077  20.0898201 122.4579488  55.2882769
  21.2632118 123.3697493  55.5775020  30.9632367 118.6572017  56.7265810
  30.0549244 118.5887425  56.4324571  30.9119962 119.1343962  57.5547636
  24.7849111 120.1330155  48.3649209  24.6648736 120.5787206  49.2034690
  24.0901699 120.4815473  47.8062747  18.3756515 122.2336547  55.9148866
  18.5048897 122.4871026  56.8288278  17.6953967 122.8264255  55.5953521
  25.0373232 120.0761663  64.6700707  24.2606567 120.6355583  64.6603572
  25.6763796 120.5618446  65.1915578  32.8294013 116.8588455  58.5043684
  32.1868393 117.1520989  57.8583479  32.3248942 116.7441376  59.3096881
  30.4834177 120.6051629  49.1929543  31.3952033 120.8379015  49.0177241
  29.9743824 121.1888673  48.6304622  23.2919605 122.8847116  64.2318674
  24.0334289 123.4232160  63.9553498  22.5856590 123.5113405  64.3890226
  28.7674944 125.0276256  62.8290836  29.1758300 124.5858667  62.0845468
  28.0452206 124.4528884  63.0825029  25.1206014 119.9648863  60.2024393
  25.9667210 120.3888277  60.3459042  25.0604652 119.3082487  60.8962956
  29.0903759 125.5877447  56.5843125  28.4612621 125.7523161  55.8819193
  28.7029421 126.0019057  57.3554089  32.9692991 126.5231885  53.9387489
  32.2844029 126.9030786  53.3884522  33.0536840 127.1327212  54.6719436
  28.2705460 117.6253231  61.8605566  28.0266392 118.3795292  61.3239842
  28.5465390 118.0038579  62.6952814  30.2243923 124.1691844  60.5382832
  30.4360818 124.8123604  59.8617213  30.1773671 123.3354160  60.0704762
  27.8270151 116.7809665  57.4419404  26.9654631 117.0790918  57.7336142
  27.8532586 116.9980063  56.5100437  24.6431721 125.3251855  53.8493210
  25.1070066 125.6039558  53.0597832  24.3788519 124.4235300  53.6666301
  23.5800607 121.4475007  50.6582775  24.2824650 121.8996051  51.1256701
  23.2481235 120.8058826  51.2862668  22.0280968 120.0386764  65.0333984
  21.3979629 120.7203045  65.2669381  21.9217056 119.9269846  64.0887123
  17.3225941 119.7058560  55.9599909  16.5324995 119.9616089  55.4840019
  17.8137188 120.5206898  56.0651949  31.3389750 127.0463799  58.7105189
  32.1607194 126.6443987  58.4287871  31.3352153 126.9432033  59.6621305
  19.2740686 120.0703139  52.9183385  18.4771850 120.1821834  53.4366881
  19.0466279 120.4089792  52.0524276  15.6063644 119.9589051  58.3914899
  15.8571682 120.8436060  58.6572475  16.1423192 119.7793652  57.6189991
  39.4295744 123.3902548  55.0590161  38.6759452 122.8209946  54.9034165
  39.5643285 123.3565212  56.0060796  21.3061711 114.3407530  67.3959235
  20.9128657 113.7873728  68.0706880  22.1227852 114.6518108  67.7865753
  24.2229672 115.7565409  64.9879492  24.9639386 116.3572562  64.9083955
  24.4547595 115.0143047  64.4297535  19.3671010 120.9421776  63.2657722
  19.2524525 120.0407034  63.5664821  18.5115528 121.1885473  62.9142538
  28.1686835 111.7846512  59.2643774  27.8251105 112.6748154  59.1882884
  28.5365798 111.5948170  58.4013359  28.1337118 121.7755123  47.7716209
  27.6183741 122.5459728  48.0104596  27.8614426 121.1020259  48.3949270
  25.7184229 116.6204824  52.8301447  24.8625825 116.2311674  52.6507086
  26.1311181 116.6996785  51.9701233  27.2483376 114.1551167  57.2293007
  26.7448171 114.1181302  56.4160812  27.5413982 115.0643910  57.2889664
  23.4926261 114.2389897  56.2359189  24.3579258 114.0432706  55.8765078
  23.5603770 114.0100249  57.1628545  33.1071392 124.5287478  49.7069382
  32.3300835 124.1898637  49.2624544  33.7862873 124.5340101  49.0324347
  27.9223421 119.6482215  49.5975990  27.6173557 119.9628364  50.4486133
  28.8753863 119.7263635  49.6403323  31.3462699 124.0021459  56.3635990
  30.6886373 124.6920720  56.4516119  32.1503098 124.3917891  56.7069977
  21.0988581 116.4692105  53.6075556  21.6732332 116.2467286  52.8748748
  21.6859563 116.5380799  54.3604157  30.1568158 122.3565832  54.4139932
  30.6700039 122.9895823  54.9161642  30.8069382 121.7567027  54.0483292
  21.4258168 118.4996566  47.6271441  20.5895480 118.8371252  47.9480716
  21.2862937 118.3645546  46.6898578  23.4011248 113.3433354  52.3350625
  22.7475661 113.0282371  51.7107240  23.3591722 112.7209094  53.0610448
  24.5122453 123.6252649  44.2503917  23.6049515 123.3941902  44.4495066
  25.0093485 122.8290268  44.4377899  26.6348989 119.8315287  56.6598273
  25.7171550 120.0530234  56.5019961  27.0509132 119.9061598  55.8009980
  27.4184036 121.2306703  51.7900953  28.1655855 121.7428100  51.4808075
  27.6875626 120.9090756  52.6505346  25.6910687 123.7265244  48.7727907
  24.7821906 123.4424276  48.8700377  25.7205770 124.1464322  47.9131214
  30.9229954 127.3371833  52.5419075  30.4692281 126.4962743  52.5984265
  30.2923921 127.9733231  52.8793855  29.8662873 118.2663819  53.7719742
  29.1285630 117.7541205  54.1029985  30.1189647 117.8264201  52.9603019
  29.9674501 111.0440071  54.3661511  30.2733378 110.1837435  54.0787426
  30.6927106 111.6357691  54.1660505  16.2598857 121.4470758  52.7543109
  16.0623257 120.8540118  52.0294176  15.7045521 121.1422968  53.4719048
  24.2395581 121.3393864  54.8737702  24.2944190 120.3867701  54.7980179
  23.4286783 121.4953303  55.3579001  25.3886774 125.2673987  46.1115986
  24.9506204 124.5509846  45.6521623  26.1297215 125.4950102  45.5501077
  22.1787940 119.9570924  52.6328081  21.3655806 120.2565095  53.0393273
  22.6746935 119.5626613  53.3502564  27.7762152 120.4212748  61.4642975
  28.1311540 120.6484222  62.3237441  28.4234283 120.7531125  60.8420231
  33.5059889 123.5431184  52.1692304  33.3677788 123.7332780  51.2413493
  33.1496108 124.3050567  52.6260355  21.6702015 117.5289279  58.2489316
  22.3101395 117.3878039  57.5512280  20.8379546 117.2423793  57.8727918
  33.5329269 125.6107711  57.1803576  33.9665775 125.5183000  58.0286630
  34.2460849 125.5865212  56.5423592  18.7545083 120.9734792  50.4384061
  17.8242671 120.9119247  50.6554024  18.8502555 120.4510744  49.6420703
  18.6730632 117.4989604  53.0262303  18.9337449 118.4134938  52.9171464
  19.4947804 117.0314047  53.1758916  20.1455557 118.9127362  60.1961128
  20.8178610 118.7044724  59.5473777  19.3185344 118.7149448  59.7566360
  34.3944818 125.6531412  59.7136461  34.5880708 126.5577222  59.9595736
  34.2945436 125.1938831  60.5475046  26.0481129 115.5389303  62.2126788
  25.4009044 116.2379252  62.1191265  26.8182144 115.9725446  62.5803037
  29.4559927 125.8038155  65.2877342  29.3045433 125.5748706  64.3707425
  29.4464606 126.7608756  65.3008687  26.2245263 123.3770067  60.2723608
  27.1537323 123.5281227  60.0992576  25.8036293 123.4654088  59.4172255
  20.5483054 122.1869965  60.9563565  20.4102852 121.4550203  61.5575104
  21.4587978 122.0978865  60.6747753  29.5098002 124.1258369  45.7048043
  28.8927173 123.4005197  45.6081096  29.0414490 124.8867729  45.3615118
  23.1765355 121.8989924  60.4447244  23.8864973 121.2583116  60.4033863
  23.1334663 122.1502819  61.3673425  21.8894289 118.8855142  62.2642884
  21.3531646 118.4345880  62.9164480  21.3010997 119.0201051  61.5213348
  21.2996548 118.3443793  44.8269348  20.4226014 118.2232594  44.4631594
  21.7754301 117.5529872  44.5748236  31.1669541 126.7996861  61.5967803
  30.2796320 126.4622783  61.7194202  31.7368092 126.0679892  61.8336569
  17.6233410 118.0211150  59.3495878  17.5391599 117.4136819  58.6146288
  16.8016117 118.5120168  59.3505375  27.7957124 116.5064713  54.7166073
  28.2925824 115.7534675  54.3967144  27.0244105 116.5429030  54.1509283
  35.6486881 122.2105079  56.3584365  35.6376758 123.0929794  55.9878298
  34.7804261 121.8576629  56.1638902  28.8786905 125.2636400  52.2904497
  27.9443183 125.3837863  52.1209201  29.0563573 124.3608867  52.0264507
  24.3792093 118.6482096  54.4437758  24.0089880 118.0953136  55.1318664
  24.8751185 118.0440230  53.8912758  32.2659456 121.1053720  52.8254531
  32.7319908 121.9381711  52.7514834  32.7166957 120.6398701  53.5299789
  30.3335687 127.4497541  49.8240683  30.6095531 127.3354135  50.7334557
  29.4640186 127.0515026  49.7852856  30.2376119 113.4734307  56.8645432
  29.3239199 113.7038533  57.0327639  30.6669220 113.5572751  57.7159465
  30.0082577 121.6624199  59.3645326  29.3554028 121.9100106  58.7097779
  30.3862957 120.8488337  59.0307804  26.0570150 122.4044010  65.8511363
  25.3810787 122.3038139  66.5213739  26.8797784 122.2483223  66.3147361
  12.3966664 121.2121546  57.1928322  12.4350764 120.6785137  57.9865440
  11.8906957 120.6856752  56.5739299  19.7757426 116.0586087  60.6890864
  19.8398753 116.9200918  60.2768262  19.7124547 115.4460088  59.9563223
  19.2509699 118.1309219  64.3363898  19.8781738 117.7486297  64.9501423
  18.3937618 117.9123421  64.7019591  16.0275242 119.9385648  50.2682253
  16.3228683 119.0296327  50.2149307  15.1263277 119.9173388  49.9463256
  19.5569489 118.0141645  56.2509802  18.8356074 118.6277613  56.1117275
  20.3462744 118.5499410  56.1726448  22.3595802 115.3496072  62.5250454
  22.8830204 115.5958368  63.2876763  22.1408135 116.1816106  62.1053591
  17.7563083 117.6199746  50.3921578  17.4275789 116.7397125  50.2096684
  18.1102454 117.5647415  51.2797968  20.8704906 117.9072716  50.7597056
  21.2100979 118.4358637  50.0375664  21.3177027 118.2453122  51.5355623
  23.5648347 116.2909767  60.2100124  23.2245168 115.4917580  60.6120804
  22.8587354 116.5911477  59.6376957  24.2164819 113.3759079  58.6627447
  25.0390888 112.9019557  58.5406337  24.4602883 114.1549563  59.1626133
  22.8573054 116.4047338  48.9590349  23.5781416 116.7828590  48.4554066
  22.2338358 117.1236214  49.0625327  27.0004176 117.1092486  49.8948681
  27.2167791 117.9917124  49.5937509  26.5198244 116.7178700  49.1654323
  21.7403398 120.0678200  56.4719426  21.5947979 120.3818503  57.3643707
  21.2628601 120.6863100  55.9190324  23.5999781 117.0580748  56.5200315
  23.5861349 116.1621841  56.1832613  24.3172209 117.0651411  57.1538601
  25.4525911 117.4918088  58.5653443  25.1943689 118.4135159  58.5637773
  24.9210952 117.0948522  59.2553907  23.0036677 115.9395128  51.7887885
  23.1252588 115.0111774  51.9878773  22.7138719 115.9533814  50.8766201
  25.8727867 113.6250038  54.9254605  25.8949564 113.6889372  53.9706585
  26.2895926 112.7854547  55.1195111  36.2511491 123.3605298  52.9633828
  36.6942637 122.6112623  52.5652951  35.3738002 123.3515434  52.5807560
  17.0015082 121.7353440  62.3037244  16.2596818 121.8836076  62.8901874
  16.6807826 121.9961706  61.4403993  33.2838696 127.3635345  49.9727757
  33.8090020 127.7022618  49.2477077  33.1961048 126.4282360  49.7890892
  22.4877756 117.4527125  65.9977818  22.5365912 118.3289248  65.6155588
  23.0300270 116.9104518  65.4249461  32.9732602 127.9968249  65.2778955
  32.1828146 127.9792387  64.7383455  32.7365956 128.5356542  66.0327992
  33.0930477 124.8460715  62.5911684  33.1428482 124.6810722  63.5327206
  32.9844400 123.9787974  62.2009564  30.3834239 120.8291643  63.9070990
  31.2844102 120.6898108  63.6154988  30.4582214 120.9946098  64.8469168
  24.7177045 118.2058498  62.7524177  23.8480354 118.4992064  62.4806765
  24.9536525 118.7898943  63.4731440  34.5948674 127.2657656  62.8353705
  34.3033482 127.6287637  63.6717166  33.9820805 126.5524665  62.6567037
  35.7944356 124.8310536  55.3556275  36.6291247 125.2700340  55.5193836
  35.9303485 124.3549189  54.5364521  32.8435862 122.3890271  61.3033763
  33.3189984 122.5817917  60.4952615  31.9201427 122.4449457  61.0577147
  19.7319369 123.5514438  50.8864841  19.4865411 122.6476768  51.0845052
  19.9015283 123.5531589  49.9444319  27.4216078 114.4238115  60.2689597
  27.9398022 115.1599142  59.9436086  27.0671211 114.7302108  61.1036356
  19.0015016 119.2842796  48.3851003  18.3084261 119.3587151  47.7291039
  18.7566768 118.5203140  48.9072520  27.6728673 110.8438397  55.7890494
  27.9530426 110.1761586  56.4150920  28.4579280 111.0367493  55.2765158
  31.5437531 119.2656031  59.5362069  32.4954954 119.3654129  59.5574293
  31.3740981 118.4734300  60.0460153  29.5651910 116.3511614  59.7221470
  28.9701843 116.6316627  59.0267958  29.2801607 116.8405515  60.4938211
  34.0225609 122.4862151  58.6504368  33.9901929 121.5478152  58.8364052
  34.6326232 122.5646188  57.9170193  25.8608940 121.3558204  44.6931572
  26.8068044 121.2264412  44.7619991  25.4823185 120.6172866  45.1701001
  34.1720097 119.2773194  58.6962652  33.6559146 118.4931651  58.5092580
  35.0560046 118.9491911  58.8609171  31.8330824 113.0214210  54.6558464
  31.6355645 112.7129298  55.5401796  32.4430530 113.7475849  54.7856394
  39.8402159 123.5478158  57.7910405  40.5705547 123.2863446  58.3518109
  39.2309104 122.8106880  57.8312473  37.9217456 121.6886020  58.3884856
  37.1950619 121.5541985  57.7801348  37.5064743 121.9962849  59.1941574
  25.7447632 125.4075950  66.1532229  26.6650642 125.5854549  66.3472276
  25.7097215 124.4631995  66.0011929  24.0451857 119.2808180  44.6286458
  23.1383312 118.9841293  44.7049171  24.3227838 118.9837998  43.7620744
  14.9629797 120.6014544  55.0785504  14.6432582 119.7479852  54.7859878
  14.4163225 120.8163122  55.8343471  25.6613923 113.8245070  50.7830699
  24.8514651 113.4792155  51.1585945  26.3498339 113.5152614  51.3718311
  27.5904471 112.9023117  52.4054996  28.1435509 113.3218570  53.0645019
  27.8274557 111.9758865  52.4477952  23.6137570 118.8910190  68.1857760
  23.5134297 119.8404547  68.1169851  23.3959112 118.5628429  67.3133830
  22.8150641 116.1395115  44.7698437  23.6769805 116.4650014  45.0294254
  23.0000986 115.3526611  44.2571503  30.9683278 115.0123642  51.9133660
  30.3881947 115.6708446  51.5311712  30.7019211 114.1900987  51.5021077
  29.4186844 114.4128700  54.1154980  29.9186623 114.5245234  53.3069299
  30.0622452 114.1089752  54.7555789  23.4768840 122.3207329  67.0022821
  22.9935922 123.1207689  67.2086710  23.5629779 122.3315274  66.0490265
  29.7508156 117.1723732  50.9690008  28.8634011 117.4573383  50.7510203
  30.1662145 117.0117496  50.1217285  33.1022692 117.1970253  54.6844347
  33.8783082 117.6866706  54.9568964  32.3770826 117.6228307  55.1416217
  35.5395251 117.9097873  55.7418288  36.1339741 117.6693608  55.0311596
  35.6121834 117.1905003  56.3691824  29.7249180 122.6878268  51.1840298
  29.6684381 123.1446820  50.3447931  30.2777522 121.9268953  51.0063141
  33.5353986 118.4768000  52.0090418  33.2790920 118.0764636  52.8398626
  32.9106854 119.1911794  51.8840557  37.8466323 121.2164073  54.5161709
  37.2865881 121.2857263  55.2893271  37.2409827 121.0405058  53.7961205
  30.8038067 127.3750936  47.1136488  31.6383671 126.9432135  46.9313963
  30.6422410 127.2032950  48.0413383  30.4583959 123.8783049  48.4792828
  30.4032763 123.7127321  47.5381272  29.8330014 124.5859082  48.6355017
  15.2476474 119.1151114  62.3054250  15.8935338 118.6050068  62.7941475
  15.0393625 119.8519796  62.8797675  27.7729866 126.1831961  67.8046390
  28.6421026 126.3572614  67.4433025  27.2936618 127.0026378  67.6822120
  23.7680084 113.3791159  48.0578146  23.7558754 114.3232998  48.2146417
  24.6603506 113.1961304  47.7637607  27.5832204 109.9733935  52.3124083
  26.8164600 109.4192422  52.4580765  27.9942909 110.0455804  53.1738234
  19.5873965 116.2618731  66.4029264  20.4505427 115.9055536  66.6132589
  19.0139376 115.9232626  67.0904668  41.9097458 129.2668848  59.6472460
  41.5780783 130.1364259  59.4233675  41.3143071 128.9505132  60.3266490
  43.6687768 132.1880373  58.5043684  43.0262148 132.4812906  57.8583479
  43.1642696 132.0733293  59.3096881  39.0080590 127.1138430  59.2643774
  38.6644859 128.0040071  59.1882884  39.3759552 126.9240087  58.4013359
  38.0877130 129.4843085  57.2293007  37.5841926 129.4473220  56.4160812
  38.3807737 130.3935828  57.2889664  34.2405003 128.6725271  52.3350625
  33.5869415 128.3574289  51.7107240  34.1985477 128.0501012  53.0610448
  40.8068255 126.3731989  54.3661511  41.1127132 125.5129352  54.0787426
  41.5320860 126.9649609  54.1660505  41.0769873 128.8026224  56.8645432
  40.1632953 129.0330451  57.0327639  41.5062975 128.8864668  57.7159465
  35.0558574 128.7050997  58.6627447  35.8784643 128.2311475  58.5406337
  35.2996637 129.4841481  59.1626133  36.7121622 128.9541956  54.9254605
  36.7343318 129.0181289  53.9706585  37.1289681 128.1146465  55.1195111
  38.2609833 129.7530032  60.2689597  38.7791777 130.4891059  59.9436086
  37.9064966 130.0594026  61.1036356  38.5122427 126.1730315  55.7890494
  38.7924181 125.5053504  56.4150920  39.2973034 126.3659410  55.2765158
  42.6724579 128.3506128  54.6558464  42.4749400 128.0421216  55.5401796
  43.2824284 129.0767766  54.7856394  36.5007677 129.1536988  50.7830699
  35.6908405 128.8084073  51.1585945  37.1892094 128.8444531  51.3718311
  38.4298225 128.2315034  52.4054996  38.9829264 128.6510488  53.0645019
  38.6668312 127.3050783  52.4477952  41.8077032 130.3415560  51.9133660
  41.2275701 131.0000364  51.5311712  41.5412965 129.5192904  51.5021077
  40.2580599 129.7420617  54.1154980  40.7580377 129.8537152  53.3069299
  40.9016207 129.4381670  54.7555789  46.3789005 133.2389790  55.7418288
  46.9733496 132.9985526  55.0311596  46.4515589 132.5196921  56.3691824
  38.4225958 125.3025853  52.3124083  37.6558354 124.7484340  52.4580765
  38.8336663 125.3747722  53.1738234   6.9114481  54.4088917  41.7835468
   6.1578190  53.8396315  41.6279472   7.0462023  54.3751582  42.7306102
   0.9878627  54.5617554  38.8937611   0.8496525  54.7519150  37.9658800
   0.6314846  55.3236937  39.3505662   1.0148006  56.6294081  43.9048882
   1.4484513  56.5369370  44.7531936   1.7279587  56.6051581  43.2668898
   1.8763556  56.6717782  46.4381768   2.0699446  57.5763592  46.6841043
   1.7764174  56.2125201  47.2720353   3.1305619  53.2291448  43.0829672
   3.1195495  54.1116164  42.7123605   2.2622999  52.8762999  42.8884209
   3.7330229  54.3791668  39.6879134   4.1761375  53.6298993  39.2898258
   2.8556739  54.3701804  39.3052866   0.7657434  58.3821715  36.6973064
   1.2908758  58.7208987  35.9722384   0.6779786  57.4468730  36.5136198
   0.5749215  55.8647085  49.3156990   0.6247220  55.6997092  50.2572513
   0.4663138  54.9974344  48.9254871   2.0767412  58.2844026  49.5599012
   1.7852220  58.6474007  50.3962473   1.4639543  57.5711034  49.3812344
   3.2763094  55.8496906  42.0801582   4.1109985  56.2886710  42.2439142
   3.4122223  55.3735559  41.2609828   1.5044347  53.5048520  45.3749675
   1.4720667  52.5664521  45.5609359   2.1144970  53.5832557  44.6415500
   1.6538835  50.2959564  45.4207958   1.1377884  49.5118021  45.2337887
   2.5378784  49.9678281  45.5854478   7.3220896  54.5664527  44.5155712
   8.0524285  54.3049815  45.0763415   6.7127842  53.8293249  44.5557780
   5.4036194  52.7072390  45.1130163   4.6769357  52.5728355  44.5046655
   4.9883480  53.0149218  45.9186881   3.0213988  48.9284242  42.4663595
   3.6158479  48.6879978  41.7556903   3.0940572  48.2091373  43.0937131
   1.0172723  49.4954370  38.7335724   0.7609658  49.0951005  39.5643932
   0.3925591  50.2098164  38.6085864   5.3285061  52.2350443  41.2407016
   4.7684619  52.3043632  42.0138578   4.7228565  52.0591428  40.5206512
   6.9141080  68.9106957  43.9336972   7.5519490  68.7913704  43.2300312
   6.7961923  69.8587801  43.9924924   3.7230786  68.8634385  43.8698496
   3.3849297  68.7475450  42.9819031   4.5920554  68.4625550  43.8499502
   4.2050569  70.0169237  49.8284702   4.1939210  69.6222035  48.9565205
   4.3671208  69.2835309  50.4218473   5.1617160  74.3840829  35.1709852
   4.5105140  74.9694909  34.7843866   5.9561523  74.9147024  35.2304890
   0.9257830  72.8006348  48.7763886   0.6347696  73.7051979  48.6610552
   1.5614814  72.8422876  49.4907955   1.8514037  70.1783197  45.3665245
   2.4477609  69.9539219  44.6522208   1.9089008  69.4367942  45.9690693
   1.4239065  67.6322632  33.2015436   1.6764586  67.1104154  32.4398899
   0.4863624  67.4688778  33.3042120   6.4682348  66.6358411  41.0090180
   7.2545437  66.2177834  40.6580597   6.7321052  67.5404503  41.1771828
   6.6392425  72.0731261  35.7078836   6.0038258  72.1465888  36.4199741
   6.3089832  72.6624860  35.0297916  11.8690775  66.5733644  41.9123158
  12.6015947  66.0032861  42.1460988  11.1130131  66.1855244  42.3529664
   1.1435354  69.5350738  35.4039811   1.0271612  68.8595642  36.0720896
   1.2537614  69.0483112  34.5871964   3.4866895  68.9960885  39.1086501
   3.1225102  68.4691506  39.8199422   4.3434011  68.6059354  38.9352986
   9.3916196  60.2855218  46.3717767   9.0599520  61.1550629  46.1478982
   8.7961809  59.9691502  47.0511797   3.1272382  64.0250785  34.1047849
   3.2946784  64.8931022  34.4718320   2.9369551  64.1878067  33.1809138
   5.8847715  72.4867764  45.7713679   5.5848438  73.3892803  45.6629487
   5.5398775  72.2199947  46.6234832   9.2844859  65.0050304  43.4511117
   8.3761736  64.9365713  43.1569878   9.2332455  65.4822249  44.2792942
   3.1061603  66.4808443  35.0894516   2.9861228  66.9265493  35.9279996
   2.4114191  66.8293760  34.5308054   3.3585725  66.4239950  51.3946014
   2.5819059  66.9833870  51.3848879   3.9976288  66.9096733  51.9160884
  11.1506505  63.2066743  45.2288991  10.5080886  63.4999276  44.5828785
  10.6461434  63.0919663  46.0342187   8.8046669  66.9529916  35.9174850
   9.7164525  67.1857303  35.7422548   8.2956316  67.5366960  35.3549929
   1.6132097  69.2325403  50.9563981   2.3546781  69.7710447  50.6798805
   0.9069082  69.8591692  51.1135533   7.0887437  71.3754544  49.5536143
   7.4970793  70.9336954  48.8090775   6.3664698  70.8007171  49.8070335
   3.4418507  66.3127150  46.9269699   4.2879702  66.7366564  47.0704348
   3.3817144  65.6560775  47.6208263   7.4116251  71.9355734  43.3088431
   6.7825114  72.1001448  42.6064499   7.0241913  72.3497344  44.0799395
  11.2905483  72.8710172  40.6632795  10.6056521  73.2509073  40.1129829
  11.3749333  73.4805499  41.3964743   6.5917952  63.9731519  48.5850873
   6.3478884  64.7273579  48.0485149   6.8677883  64.3516866  49.4198120
   8.5456415  70.5170131  47.2628139   8.7573310  71.1601891  46.5862520
   8.4986163  69.6832448  46.7950069   6.1482644  63.1287952  44.1664711
   5.2867123  63.4269205  44.4581448   6.1745078  63.3458351  43.2345743
   2.9644213  71.6730142  40.5738517   3.4282559  71.9517845  39.7843139
   2.7001011  70.7713587  40.3911607   1.9013099  67.7953295  37.3828082
   2.6037143  68.2474338  37.8502008   1.5693728  67.1537114  38.0107975
   9.6602243  73.3942087  45.4350496  10.4819686  72.9922274  45.1533178
   9.6564646  73.2910321  46.3866612   3.4258846  72.9426130  47.5911207
   3.4903279  73.4046537  48.4269378   2.7169770  72.3123495  47.7193516
  17.7508236  69.7380835  41.7835468  16.9971944  69.1688233  41.6279472
  17.8855777  69.7043500  42.7306102   3.1406864  74.6094237  37.4590187
   3.0052539  75.4545773  37.8875035   3.6816676  74.8113515  36.6956121
   2.5442164  62.1043696  51.7124799   3.2851878  62.7050849  51.6329261
   2.7760087  61.3621334  51.1542841   4.7675340  75.2317804  51.5890529
   4.3239194  74.4454182  51.2711433   5.4292554  75.4196954  50.9234420
   6.8656578  75.5120604  49.6171930   6.8475054  76.3329485  49.1252199
   7.7876498  75.3874679  49.8422071   3.3229632  73.0264733  50.4595439
   3.8557969  72.2653021  50.2294747   2.7943714  72.7338385  51.2019593
   6.4899327  58.1324799  45.9889080   6.1463597  59.0226441  45.9128191
   6.8578290  57.9426457  45.1258665   6.4549610  68.1233410  34.4961515
   5.9396234  68.8938015  34.7349903   6.1826919  67.4498546  35.1194577
   4.0396721  62.9683111  39.5546754   3.1838318  62.5789961  39.3752393
   4.4523673  63.0475072  38.6946539   5.5695868  60.5029454  43.9538314
   5.0660663  60.4659590  43.1406119   5.8626475  61.4122197  44.0134970
   1.8138754  60.5868184  42.9604495   2.6791750  60.3910993  42.6010385
   1.8816263  60.3578536  43.8873852  11.4283884  70.8765765  36.4314689
  10.6513327  70.5376924  35.9869851  12.1075365  70.8818388  35.7569654
   6.2435913  65.9960502  36.3221297   5.9386049  66.3106652  37.1731440
   7.1966355  66.0741922  36.3648630   4.6882345  72.1550726  37.9714251
   4.1603707  71.4203485  37.6587488   4.1869848  72.9325402  37.7254219
   9.6675191  70.3499746  43.0881297   9.0098866  71.0399008  43.1761426
  10.4715590  70.7396178  43.4315283   8.4780650  68.7044119  41.1385239
   8.9912532  69.3374111  41.6406948   9.1281874  68.1045314  40.7728599
   1.7223741  59.6911641  39.0595932   1.0688153  59.3760658  38.4352546
   1.6804215  59.0687381  39.7855755   2.8334945  69.9730936  30.9749224
   1.9262007  69.7420189  31.1740373   3.3305977  69.1768555  31.1623205
   5.7403024  78.6828443  33.8945910   5.0664723  78.9860140  34.5030868
   6.1268846  79.4857524  33.5451367   4.9561481  66.1793574  43.3843579
   4.0384042  66.4008521  43.2265267   5.3721624  66.2539885  42.5255287
   5.7396529  67.5784990  38.5146259   6.4868348  68.0906387  38.2053382
   6.0088118  67.2569043  39.3750653   4.0123179  70.0743531  35.4973214
   3.1034398  69.7902564  35.5945683   4.0418263  70.4942609  34.6376521
   9.2442446  73.6850120  39.2664381   8.7904773  72.8441030  39.3229572
   8.6136413  74.3211519  39.6039161   8.1875366  64.6142106  40.4965049
   7.4498123  64.1019493  40.8275291   8.4402139  64.1742488  39.6848326
   7.6875385  75.5226617  40.2014199   7.9798360  76.0831674  39.4826565
   8.1974006  75.8155178  40.9567359   8.2886993  57.3918358  41.0906818
   8.5945870  56.5315722  40.8032733   9.0139598  57.9835979  40.8905812
   2.5608073  67.6872151  41.5983009   2.6156683  66.7345988  41.5225486
   1.7499275  67.8431591  42.0824308   3.7099267  71.6152275  32.8361292
   3.2718697  70.8988133  32.3766930   4.4509707  71.8428389  32.2746384
   2.6509011  76.3006968  41.2907653   2.6085189  76.5267814  40.3616185
   3.5671710  76.0670343  41.4393454   6.0974644  66.7691036  48.1888282
   6.4524032  66.9962509  49.0482748   6.7446776  67.1009412  47.5665537
  11.8272381  69.8909472  38.8937611  11.6890280  70.0811068  37.9658800
  11.4708600  70.6528854  39.3505662  11.8541761  71.9585999  43.9048882
  12.2878268  71.8661288  44.7531936  12.5673342  71.9343499  43.2668898
   5.5869656  75.5588093  45.4381983   5.6406678  76.1279029  46.2059699
   4.7184437  75.7289978  45.0736020  12.7157311  72.0009699  46.4381768
  12.9093201  72.9055510  46.6841043  12.6157929  71.5417118  47.2720353
   4.3693621  61.8867590  48.9372095   3.7221536  62.5857539  48.8436572
   5.1394637  62.3203734  49.3048343   7.7772419  72.1516442  52.0122648
   7.6257926  71.9226994  51.0952732   7.7677099  73.1087043  52.0253993
   4.5457756  69.7248355  46.9968915   5.4749816  69.8759514  46.8237882
   4.1248786  69.8132375  46.1417561   3.3446087  73.7499019  44.7667452
   3.2057173  73.3817804  45.6393391   2.5560684  74.2646659  44.5951410
   3.9394239  78.8508116  36.1092989   4.1145995  78.3796159  36.9238612
   3.2527027  79.4773882  36.3374250   4.8951303  73.1280622  42.1556290
   4.5601135  73.0881392  43.0513940   4.3955248  72.4625338  41.6826700
   7.8310494  70.4736656  32.4293350   7.2139665  69.7483484  32.3326403
   7.3626983  71.2346016  32.0860424   1.4977847  68.2468211  47.1692551
   2.2077466  67.6061403  47.1279169   1.4547155  68.4981106  48.0918732
   9.4864626  75.1835565  50.0899130   9.4277172  74.4994785  49.4229713
   9.8884144  75.9254555  49.6379756   9.4882033  73.1475148  48.3213110
   8.6008812  72.8101070  48.4439509  10.0580584  72.4158180  48.5581875
   3.0183187  77.8076601  45.2874353   2.9453358  78.6131572  45.7993658
   2.5760580  78.0068567  44.4622375   2.8072966  77.0448371  38.7977175
   2.0240488  77.5870051  38.8915399   3.5065711  77.5622350  39.1971416
   6.1169616  62.8543000  41.4411380   6.6138316  62.1012963  41.1212450
   5.3456598  62.8907317  40.8754589  13.9699374  68.5583366  43.0829672
  13.9589250  69.4408081  42.7123605  13.1016753  68.2054917  42.8884209
   5.4781870  77.7063435  47.4432512   6.1909842  78.3410900  47.3708413
   4.9871899  77.8027301  46.6272514   7.1999397  71.6114688  39.0149803
   6.2655676  71.7316150  38.8454508   7.3776065  70.7087154  38.7509813
   2.7004585  64.9960383  41.1683065   2.3302373  64.4431424  41.8563970
   3.1963677  64.3918517  40.6158065  10.5871948  67.4532007  39.5499838
  11.0532401  68.2859998  39.4760140  11.0379449  66.9876988  40.2545096
   8.6548179  73.7975828  36.5485990   8.9308023  73.6832423  37.4579864
   7.7852678  73.3993313  36.5098163   8.5588611  59.8212594  43.5890739
   7.6451691  60.0516821  43.7572946   8.9881713  59.9051038  44.4404771
   8.3295070  68.0102486  46.0890633   7.6766520  68.2578393  45.4343086
   8.7075449  67.1966624  45.7553110   5.2902243  78.0462179  40.1918803
   5.4724638  77.2283835  40.6546556   6.1135229  78.2629871  39.7543693
   5.6244409  76.9730364  37.4533852   6.1532175  76.4622819  36.8404014
   5.8872629  76.6572894  38.3179385   4.3782643  68.7522297  52.5756670
   3.7023280  68.6516426  53.2459045   5.2010276  68.5961511  53.0392667
   3.1205425  80.0589224  46.8114286   3.6723733  80.2220846  47.5763371
   3.4611619  80.6493662  46.1394311   7.9716300  74.8850482  52.6662940
   8.5156204  75.4980440  52.1717895   7.3903145  75.4430060  53.1829953
   6.2573813  78.0071200  43.7977968   6.1324952  77.2060940  43.2888914
   6.9152904  78.5017393  43.3091938   8.3208721  75.8080220  45.4257518
   7.3739057  75.6885571  45.3535845   8.6691494  74.9202718  45.5083780
   0.6808294  61.6974359  49.2495760   1.2042696  61.9436655  50.0122070
   0.4620628  62.5294394  48.8298898   5.3255154  75.6032936  41.6261871
   5.1780117  74.6749643  41.8069441   6.1508648  75.6253027  41.1418946
   8.9289276  76.4261495  42.7126743   9.8535824  76.2204356  42.5751194
   8.7604580  76.1777896  43.6216085   1.8860840  62.6388054  46.9345431
   1.5457660  61.8395867  47.3366111   1.1799846  62.9389765  46.3622264
   2.5377311  59.7237366  45.3872754   3.3603381  59.2497845  45.2651644
   2.7815375  60.5027850  45.8871440   1.1785546  62.7525625  35.6835655
   1.8993908  63.1306878  35.1799372   0.5550850  63.4714502  35.7870633
   5.3216669  63.4570774  36.6193988   5.5380283  64.3395412  36.3182816
   4.8410736  63.0656987  35.8899630   1.9212273  63.4059035  43.2445622
   1.9073842  62.5100128  42.9077920   2.6384701  63.4129699  43.8783908
   3.7738404  63.8396375  45.2898749   3.5156182  64.7613446  45.2883080
   3.2423444  63.4426810  45.9799213   8.7184592  76.9447162  38.0688835
   8.8921470  76.3793585  37.3162687   9.2113484  77.7448057  37.8868325
   1.3249169  62.2873415  38.5133192   1.4465080  61.3590061  38.7124080
   1.0351211  62.3012101  37.6011507   4.1940359  59.9728326  41.6499912
   4.2162056  60.0367659  40.6951891   4.6108418  59.1332834  41.8440418
  14.5723984  69.7083585  39.6879134  15.0155130  68.9590910  39.2898258
  13.6950494  69.6993722  39.3052866   9.7059765  76.2613927  35.1685733
  10.4010670  76.8820619  35.3873048  10.0482915  75.4109278  35.4438111
  11.6051188  73.7113632  36.6973064  12.1302512  74.0500905  35.9722384
  11.5173541  72.7760648  36.5136198   3.2671237  77.6247706  48.8262940
   3.5758363  77.3796853  49.6985640   4.0646719  77.8294344  48.3381811
   3.2891849  79.7785615  41.0568317   2.8496839  79.2861994  41.7501174
   4.0399966  79.2358583  40.8160392   0.8090248  63.8005413  52.7223125
   0.8578404  64.6767535  52.3400894   1.3512763  63.2582806  52.1494768
  11.2945094  74.3446536  52.0024262  10.5040638  74.3270675  51.4628761
  11.0578449  74.8834830  52.7573298  11.4142969  71.1939002  49.3156990
  11.4640974  71.0289010  50.2572513  11.3056893  70.3266261  48.9254871
   8.7046732  67.1769930  50.6316297   9.6056594  67.0376395  50.3400295
   8.7794706  67.3424385  51.5714474   3.0389537  64.5536785  49.4769483
   2.1692846  64.8470351  49.2052072   3.2749017  65.1377230  50.1976747
  12.9161166  73.6135944  49.5599012  12.6245974  73.9765924  50.3962473
  12.3033297  72.9002952  49.3812344  14.1156848  71.1788824  42.0801582
  14.9503740  71.6178628  42.2439142  14.2515977  70.7027477  41.2609828
  11.1648354  68.7368558  48.0279070  11.6402476  68.9296205  47.2197921
  10.2413920  68.7927744  47.7822453   5.7428571  60.7716402  46.9934904
   6.2610515  61.5077429  46.6681392   5.3883704  61.0780395  47.8281663
   5.9941165  57.1916684  42.5135800   6.2742919  56.5239874  43.1396227
   6.7791772  57.3845780  42.0010464   3.7974633  76.3675678  34.0760827
   3.2248600  76.9865865  33.6231298   4.3707427  76.9175040  34.6100749
   9.8650023  65.6134318  46.2607375  10.8167446  65.7132416  46.2819599
   9.6953474  64.8212587  46.7705460   7.8864403  62.6989902  46.4466776
   7.2914335  62.9794914  45.7513265   7.6014099  63.1883803  47.2183517
   7.0171893  76.6512828  35.2069409   7.9502566  76.5858390  35.4102284
   6.9295106  77.4869095  34.7483942   9.6459910  75.9678699  32.1673356
   9.5673541  75.6338562  33.0609114  10.4669577  76.4600467  32.1664829
  12.3438101  68.8340438  45.3749675  12.3114421  67.8956439  45.5609359
  12.9538725  68.9124475  44.6415500   4.1821432  67.7036491  31.4176879
   5.1280537  67.5742699  31.4865297   3.8035677  66.9651153  31.8946307
  12.4932590  65.6251482  45.4207958  11.9771638  64.8409938  45.2337887
  13.3772538  65.2970198  45.5854478  10.1543316  59.3692497  41.3803771
   9.9568138  59.0607585  42.2647103  10.7643022  60.0954136  41.5101701
  18.1614651  69.8956445  44.5155712  18.8918039  69.6341733  45.0763415
  17.5521596  69.1585167  44.5557780  16.2429948  68.0364308  45.1130163
  15.5163112  67.9020272  44.5046655  15.8277235  68.3441136  45.9186881
   4.0660124  71.7554237  52.8777536   4.9863134  71.9332836  53.0717583
   4.0309707  70.8110283  52.7257235   2.3664349  65.6286467  31.3531764
   1.4595804  65.3319580  31.4294478   2.6440330  65.3316286  30.4866051
   3.9826415  60.1723357  37.5076006   3.1727143  59.8270442  37.8831252
   4.6710832  59.8630901  38.0963617   5.9116963  59.2501404  39.1300302
   6.4648002  59.6696857  39.7890325   6.1487049  58.3237152  39.1723258
   1.9350062  65.2388478  54.9103066   1.8346789  66.1882835  54.8415157
   1.7171604  64.9106717  54.0379136   1.1363134  62.4873403  31.4943744
   1.9982298  62.8128301  31.7539561   1.3213478  61.7004899  30.9816809
   9.2895770  61.3601929  38.6378967   8.7094439  62.0186733  38.2557019
   9.0231703  60.5379274  38.2266384   7.7399337  60.7606987  40.8400287
   8.2399115  60.8723521  40.0314606   8.3834944  60.4568040  41.4801095
   1.7981332  68.6685617  53.7268128   1.3148414  69.4685977  53.9332017
   1.8842271  68.6793561  52.7735572   8.0720648  63.5202020  37.6935315
   7.1846503  63.8051670  37.4755510   8.4874637  63.3595783  36.8462592
  11.4235184  63.5448541  41.4089654  12.1995574  64.0344993  41.6814271
  10.6983318  63.9706595  41.8661524  13.8607743  64.2576160  42.4663595
  14.4552234  64.0171896  41.7556903  13.9334327  63.5383290  43.0937131
   7.2163862  73.2846694  31.7883335   7.9199712  73.4896697  32.4040990
   6.4926510  73.8523456  32.0532418   8.0461672  69.0356555  37.9085605
   7.9896873  69.4925107  37.0693237   8.5990014  68.2747240  37.7308448
  11.8566478  64.8246287  38.7335724  11.6003412  64.4242923  39.5643932
  11.2319346  65.5390081  38.6085864  16.1678816  67.5642361  41.2407016
  15.6078374  67.6335550  42.0138578  15.5622319  67.3883345  40.5206512
   9.1250559  73.7229223  33.8381795   9.9596163  73.2910422  33.6559270
   8.9634902  73.5511237  34.7658689   8.7796451  70.2261337  35.2038134
   8.7245255  70.0605608  34.2626578   8.1542507  70.9337370  35.3600324
   6.0942358  72.5310249  54.5291697   6.9633518  72.7050901  54.1678332
   5.6149110  73.3504665  54.4067426   2.0892577  59.7269446  34.7823453
   2.0771247  60.6711286  34.9391723   2.9815999  59.5439591  34.4882914
   2.0182141  78.4038336  42.8691209   1.0677772  78.4040198  42.7555581
   2.3214627  77.6571071  42.3527244   5.9044696  56.3212222  39.0369389
   5.1377092  55.7670709  39.1826072   6.3155401  56.3934091  39.8983541
  17.7534834  84.2398875  43.9336972  18.3913244  84.1205622  43.2300312
  17.6355677  85.1879718  43.9924924  14.5624540  84.1926303  43.8698496
  14.2243052  84.0767367  42.9819031  15.4314309  83.7917468  43.8499502
  10.4211356  86.0461779  39.8595387   9.8576221  85.9551716  39.0911675
  10.3063751  85.2261684  40.3397880  15.0444323  85.3461154  49.8284702
  15.0332964  84.9513953  48.9565205  15.2064963  84.6127227  50.4218473
   7.9675788  87.5412971  42.6979608   8.7597080  87.2003795  42.2825907
   8.2072438  87.6507946  43.6181761  16.0010915  89.7132747  35.1709852
  15.3498895  90.2986827  34.7843866  16.7955278  90.2438942  35.2304890
   9.9266542  86.8021884  35.5696986  10.6997418  86.2550871  35.4309862
  10.2791941  87.6666133  35.7811448  11.7651585  88.1298266  48.7763886
  11.4741451  89.0343897  48.6610552  12.4008569  88.1714794  49.4907955
  12.6907791  85.5075115  45.3665245  13.2871364  85.2831137  44.6522208
  12.7482763  84.7659860  45.9690693  12.2632820  82.9614550  33.2015436
  12.5158340  82.4396071  32.4398899  11.3257379  82.7980695  33.3042120
  17.3076103  81.9650328  41.0090180  18.0939192  81.5469752  40.6580597
  17.5714807  82.8696421  41.1771828  17.4786180  87.4023179  35.7078836
  16.8432013  87.4757805  36.4199741  17.1483586  87.9916778  35.0297916
  22.7084530  81.9025562  41.9123158  23.4409702  81.3324778  42.1460988
  21.9523885  81.5147162  42.3529664  11.9829109  84.8642656  35.4039811
  11.8665367  84.1887559  36.0720896  12.0931368  84.3775030  34.5871964
  14.3260649  84.3252803  39.1086501  13.9618857  83.7983424  39.8199422
  15.1827765  83.9351272  38.9352986  20.2309950  75.6147136  46.3717767
  19.8993275  76.4842547  46.1478982  19.6355564  75.2983420  47.0511797
  13.9666136  79.3542703  34.1047849  14.1340539  80.2222939  34.4718320
  13.7763306  79.5169984  33.1809138  16.7241470  87.8159682  45.7713679
  16.4242193  88.7184720  45.6629487  16.3792529  87.5491865  46.6234832
  10.1753951  84.2673479  41.8050384   9.2504448  84.1349693  42.0128076
  10.4238364  85.0467698  42.3020326  20.1238613  80.3342222  43.4511117
  19.2155491  80.2657630  43.1569878  20.0726209  80.8114167  44.2792942
  13.9455357  81.8100360  35.0894516  13.8254983  82.2557411  35.9279996
  13.2507946  82.1585678  34.5308054   7.5362762  83.9106752  42.6394173
   7.6655143  84.1641231  43.5533585   6.8560213  84.5034460  42.3198828
  11.7062249  94.5804002  38.7384647  11.6286279  95.5311827  38.8173128
  11.1023893  94.2349875  39.3959573  14.1979479  81.7531867  51.3946014
  13.4212813  82.3125788  51.3848879  14.8370042  82.2388650  51.9160884
  21.9900260  78.5358660  45.2288991  21.3474640  78.8291193  44.5828785
  21.4855188  78.4211581  46.0342187  19.6440423  82.2821833  35.9174850
  20.5558280  82.5149220  35.7422548  19.1350071  82.8658878  35.3549929
  12.4525852  84.5617321  50.9563981  13.1940536  85.1002365  50.6798805
  11.7462837  85.1883610  51.1135533  17.9281191  86.7046461  49.5536143
  18.3364547  86.2628872  48.8090775  17.2058453  86.1299089  49.8070335
  14.2812261  81.6419068  46.9269699  15.1273456  82.0658482  47.0704348
  14.2210899  80.9852692  47.6208263  18.2510006  87.2647652  43.3088431
  17.6218868  87.4293366  42.6064499  17.8635668  87.6789261  44.0799395
  22.1299238  88.2002090  40.6632795  21.4450276  88.5800991  40.1129829
  22.2143087  88.8097416  41.3964743  17.4311707  79.3023436  48.5850873
  17.1872638  80.0565497  48.0485149  17.7071637  79.6808784  49.4198120
  19.3850169  85.8462049  47.2628139  19.5967065  86.4893809  46.5862520
  19.3379918  85.0124365  46.7950069  16.9876398  78.4579869  44.1664711
  16.1260877  78.7561123  44.4581448  17.0138833  78.6750268  43.2345743
  13.8037968  87.0022060  40.5738517  14.2676313  87.2809763  39.7843139
  13.5394766  86.1005505  40.3911607  10.6962049  86.5493542  43.5118280
  11.2663406  86.9780810  42.8735764  11.2870161  86.2676126  44.2102465
  12.7406854  83.1245212  37.3828082  13.4430897  83.5766256  37.8502008
  12.4087482  82.4829031  38.0107975  11.1887215  81.7156969  51.7579291
  10.5585876  82.3973250  51.9914688  11.0823303  81.6040051  50.8132429
   6.4832188  81.3828765  42.6845215   5.6931242  81.6386294  42.2085326
   6.9743435  82.1977103  42.7897256  20.4995997  88.7234004  45.4350496
  21.3213441  88.3214191  45.1533178  20.4958400  88.6202238  46.3866612
   8.4346933  81.7473344  39.6428692   7.6378096  81.8592039  40.1612188
   8.2072525  82.0859996  38.7769582  14.2652601  88.2718048  47.5911207
  14.3297033  88.7338455  48.4269378  13.5563525  87.6415412  47.7193516
   4.7669891  81.6359255  45.1160206   5.0177929  82.5206265  45.3817782
   5.3029439  81.4563857  44.3435298  28.5901990  85.0672753  41.7835468
  27.8365699  84.4980151  41.6279472  28.7249532  85.0335417  42.7306102
  13.9800618  89.9386155  37.4590187  13.8446293  90.7837691  37.8875035
  14.5210431  90.1405433  36.6956121  10.4667958  76.0177735  54.1204542
  10.0734904  75.4643933  54.7952186  11.2834098  76.3288313  54.5111060
   7.4330016  87.4561593  38.0318112   7.9454536  88.2504843  38.1823677
   8.0852729  86.7587883  37.9651713   9.2424900  90.5727349  40.1140865
   9.4191529  91.4945314  39.9261849  10.0381734  90.2585769  40.5435245
  13.3835919  77.4335614  51.7124799  14.1245632  78.0342767  51.6329261
  13.6153842  76.6913252  51.1542841   8.5277257  82.6191981  49.9903028
   8.4130772  81.7177238  50.2910127   7.6721775  82.8655678  49.6387845
  15.6069095  90.5609722  51.5890529  15.1632949  89.7746100  51.2711433
  16.2686308  90.7488872  50.9234420  10.3656216  92.0905523  46.1151207
  10.9163641  91.9622586  45.3428201   9.5267692  92.3900412  45.7646100
  17.7050333  90.8412521  49.6171930  17.6868808  91.6621402  49.1252199
  18.6270253  90.7166597  49.8422071  14.1623387  88.3556651  50.4595439
  14.6951724  87.5944939  50.2294747  13.6337468  88.0630303  51.2019593
  17.3293082  73.4616717  45.9889080  16.9857351  74.3518359  45.9128191
  17.6972045  73.2718375  45.1258665   5.3978933  85.7850247  38.8077683
   6.2354155  86.1947256  38.5911390   5.5757200  84.8449689  38.7777876
  17.2943365  83.4525328  34.4961515  16.7789988  84.2229933  34.7349903
  17.0220673  82.7790464  35.1194577  14.8790476  78.2975029  39.5546754
  14.0232072  77.9081879  39.3752393  15.2917427  78.3766990  38.6946539
  16.4089622  75.8321372  43.9538314  15.9054418  75.7951507  43.1406119
  16.7020229  76.7414115  44.0134970  12.6532508  75.9160102  42.9604495
  13.5185505  75.7202910  42.6010385  12.7210017  75.6870454  43.8873852
  22.2677639  86.2057683  36.4314689  21.4907082  85.8668842  35.9869851
  22.9469120  86.2110306  35.7569654  17.0829668  81.3252420  36.3221297
  16.7779803  81.6398569  37.1731440  18.0360110  81.4033840  36.3648630
  15.5276100  87.4842643  37.9714251  14.9997461  86.7495403  37.6587488
  15.0263602  88.2617320  37.7254219  20.5068946  85.6791664  43.0881297
  19.8492620  86.3690925  43.1761426  21.3109345  86.0688096  43.4315283
  10.2594827  78.1462310  40.3320862  10.8338579  77.9237491  39.5994055
  10.8465810  78.2151004  41.0849463  19.3174404  84.0336037  41.1385239
  19.8306286  84.6666028  41.6406948  19.9675628  83.4337232  40.7728599
  10.5864414  80.1766771  34.3516747   9.7501727  80.5141457  34.6726022
  10.4469184  80.0415750  33.4143884  12.5617495  75.0203559  39.0595932
  11.9081907  74.7052576  38.4352546  12.5197969  74.3979299  39.7855755
  13.6728700  85.3022854  30.9749224  12.7655762  85.0712107  31.1740373
  14.1699732  84.5060473  31.1623205  16.5796779  94.0120361  33.8945910
  15.9058477  94.3152058  34.5030868  16.9662601  94.8149441  33.5451367
  15.7955235  81.5085492  43.3843579  14.8777797  81.7300439  43.2265267
  16.2115379  81.5831803  42.5255287  16.5790283  82.9076908  38.5146259
  17.3262102  83.4198305  38.2053382  16.8481873  82.5860961  39.3750653
  14.8516933  85.4035449  35.4973214  13.9428153  85.1194481  35.5945683
  14.8812017  85.8234527  34.6376521  20.0836201  89.0142038  39.2664381
  19.6298528  88.1732948  39.3229572  19.4530167  89.6503436  39.6039161
  19.0269120  79.9434024  40.4965049  18.2891877  79.4311410  40.8275291
  19.2795894  79.5034406  39.6848326  18.5269140  90.8518535  40.2014199
  18.8192114  91.4123592  39.4826565  19.0367761  91.1447096  40.9567359
  19.1280748  72.7210276  41.0906818  19.4339624  71.8607639  40.8032733
  19.8533352  73.3127896  40.8905812   5.4205104  83.1240963  39.4788416
   5.2229503  82.5310323  38.7539483   4.8651768  82.8193173  40.1964355
  13.4001827  83.0164069  41.5983009  13.4550437  82.0637906  41.5225486
  12.5893029  83.1723508  42.0824308  14.5493021  86.9444192  32.8361292
  14.1112451  86.2280051  32.3766930  15.2903462  87.1720307  32.2746384
  11.3394187  81.6341129  39.3573388  10.5262053  81.9335299  39.7638580
  11.8353181  81.2396818  40.0747870  13.4902765  91.6298886  41.2907653
  13.4478944  91.8559732  40.3616185  14.4065464  91.3962260  41.4393454
  16.9368399  82.0982953  48.1888282  17.2917787  82.3254426  49.0482748
  17.5840530  82.4301330  47.5665537  22.6666136  85.2201389  38.8937611
  22.5284034  85.4102985  37.9658800  22.3102355  85.9820772  39.3505662
  10.8308262  79.2059484  44.9734623  11.4707641  79.0648243  44.2757586
   9.9985793  78.9193998  44.5973225  22.6935515  87.2877916  43.9048882
  23.1272022  87.1953205  44.7531936  23.4067096  87.2635417  43.2668898
  11.6068566  88.5061915  41.0869615  12.4009164  88.0112235  40.8852190
  10.8960258  87.9779778  40.7237321  16.4263410  90.8880010  45.4381983
  16.4800433  91.4570947  46.2059699  15.5578192  91.0581895  45.0736020
   7.9151329  82.6504997  37.1629368   6.9848917  82.5889452  37.3799330
   8.0108801  82.1280949  36.3666009   7.8336878  79.1759809  39.7507610
   8.0943696  80.0905143  39.6416770   8.6554051  78.7084252  39.9004223
   9.3061804  80.5897567  46.9206434   9.9784857  80.3814929  46.2719083
   8.4791590  80.3919653  46.4811667  23.5551065  87.3301617  46.4381768
  23.7486955  88.2347427  46.6841043  23.4551683  86.8709036  47.2720353
  15.2087376  77.2159507  48.9372095  14.5615291  77.9149457  48.8436572
  15.9788391  77.6495651  49.3048343  18.6166174  87.4808360  52.0122648
  18.4651680  87.2518911  51.0952732  18.6070853  88.4378961  52.0253993
  15.3851510  85.0540272  46.9968915  16.3143570  85.2051432  46.8237882
  14.9642540  85.1424293  46.1417561  14.1839842  89.0790937  44.7667452
  14.0450928  88.7109721  45.6393391  13.3954438  89.5938576  44.5951410
  14.7787994  94.1800033  36.1092989  14.9539750  93.7088076  36.9238612
  14.0920782  94.8065799  36.3374250  15.7345057  88.4572539  42.1556290
  15.3994890  88.4173309  43.0513940  15.2349003  87.7917255  41.6826700
   9.7089301  83.8640170  47.6808871   9.5709099  83.1320408  48.2820410
  10.6194224  83.7749070  47.3993059  18.6704249  85.8028574  32.4293350
  18.0533419  85.0775402  32.3326403  18.2020737  86.5637934  32.0860424
  12.3371602  83.5760129  47.1692551  13.0471220  82.9353321  47.1279169
  12.2940910  83.8273024  48.0918732  20.3258380  90.5127482  50.0899130
  20.2670927  89.8286702  49.4229713  20.7277899  91.2546472  49.6379756
  11.0500536  80.5625347  48.9888191  10.5137893  80.1116085  49.6409787
  10.4617244  80.6971256  48.2458655   9.3449079  97.3289396  42.8832849
   9.5845677  97.9607920  43.5611868   8.5018276  96.9777436  43.1698208
  10.4602795  80.0213998  31.5514654   9.5832261  79.9002799  31.1876901
  10.9360548  79.2300076  31.2993543  20.3275788  88.4767066  48.3213110
  19.4402566  88.1392988  48.4439509  20.8974339  87.7450097  48.5581875
   1.9804935  84.8091158  41.6456161   2.6675975  84.4952888  41.0577177
   1.8253063  85.7132523  41.3723413   6.7839657  79.6981354  46.0741185
   6.6997846  79.0907024  45.3391595   5.9622363  80.1890373  46.0750681
  13.8576941  93.1368518  45.2874353  13.7847113  93.9423490  45.7993658
  13.4154334  93.3360484  44.4622375  13.6466721  92.3740289  38.7977175
  12.8634243  92.9161969  38.8915399  14.3459466  92.8914268  39.1971416
  16.9563371  78.1834918  41.4411380  17.4532070  77.4304880  41.1212450
  16.1850352  78.2199235  40.8754589  24.8093128  83.8875283  43.0829672
  24.7983004  84.7699999  42.7123605  23.9410508  83.5346834  42.8884209
  16.3175625  93.0355353  47.4432512  17.0303597  93.6702817  47.3708413
  15.8265653  93.1319218  46.6272514  18.0393151  86.9406605  39.0149803
  17.1049430  87.0608068  38.8454508  18.2169820  86.0379072  38.7509813
  13.5398340  80.3252301  41.1683065  13.1696127  79.7723341  41.8563970
  14.0357432  79.7210434  40.6158065  21.4265703  82.7823924  39.5499838
  21.8926155  83.6151916  39.4760140  21.8773203  82.3168906  40.2545096
  11.3687538  90.7849796  48.2638083  12.0696998  91.4186279  48.4167477
  10.8982653  91.1264528  47.5033722  19.4941934  89.1267746  36.5485990
  19.7701778  89.0124340  37.4579864  18.6246433  88.7285231  36.5098163
  19.3982366  75.1504511  43.5890739  18.4845445  75.3808738  43.7572946
  19.8275467  75.2342956  44.4404771  19.1688824  83.3394403  46.0890633
  18.5160274  83.5870311  45.4343086  19.5469204  82.5258542  45.7553110
  16.1295998  93.3754097  40.1918803  16.3118392  92.5575753  40.6546556
  16.9528984  93.5921789  39.7543693  16.4638163  92.3022282  37.4533852
  16.9925930  91.7914736  36.8404014  16.7266383  91.9864812  38.3179385
  15.2176397  84.0814214  52.5756670  14.5417034  83.9808344  53.2459045
  16.0404031  83.9253428  53.0392667   6.9655256  90.3186151  45.1969185
   7.5508693  89.5729839  45.3297090   6.7680095  90.6290108  46.0805849
   9.8193911  93.3537398  40.2131628   9.1504287  93.8383526  39.7295668
   9.6806781  93.6006619  41.1275006   1.5572911  82.8891751  43.9173628
   1.5957010  82.3555342  44.7110747   1.0513204  82.3626957  43.2984606
  13.9599180  95.3881142  46.8114286  14.5117488  95.5512763  47.5763371
  14.3005373  95.9785580  46.1394311   8.9363673  77.7356292  47.4136171
   9.0005000  78.5971123  47.0013568   8.8730793  77.1230293  46.6808529
   8.4115946  79.8079424  51.0609205   9.0387985  79.4256502  51.6746729
   7.5543865  79.5893626  51.4264898  18.8110054  90.2142399  52.6662940
  19.3549958  90.8272358  52.1717895  18.2296899  90.7721978  53.1829953
   5.1881488  81.6155853  36.9927560   5.4834930  80.7066532  36.9394614
   4.2869524  81.5943593  36.6708562  17.0967567  93.3363117  43.7977968
  16.9718707  92.5352857  43.2888914  17.7546658  93.8309311  43.3091938
   8.7175735  79.6911850  42.9755108   7.9962321  80.3047818  42.8362582
   9.5068991  80.2269615  42.8971754  19.1602476  91.1372138  45.4257518
  18.2132811  91.0177489  45.3535845  19.5085249  90.2494636  45.5083780
  11.5202049  77.0266276  49.2495760  12.0436451  77.2728573  50.0122070
  11.3014382  77.8586311  48.8298898   6.9169330  79.2969951  37.1166885
   6.5882036  78.4167330  36.9341991   7.2708701  79.2417620  38.0043274
  16.1648909  90.9324854  41.6261871  16.0173871  90.0041561  41.8069441
  16.9902402  90.9544944  41.1418946  10.0311153  79.5842921  37.4842363
  10.3707226  80.1128842  36.7620971  10.4783274  79.9223327  38.2600929
  19.7683031  91.7553412  42.7126743  20.6929578  91.5496274  42.5751194
  19.5998334  91.5069814  43.6216085  12.7254594  77.9679972  46.9345431
  12.3851414  77.1687785  47.3366111  12.0193600  78.2681682  46.3622264
  13.3771066  75.0529284  45.3872754  14.1997135  74.5789762  45.2651644
  13.6209129  75.8319768  45.8871440  12.0179300  78.0817542  35.6835655
  12.7387663  78.4598795  35.1799372  11.3944604  78.8006419  35.7870633
  16.1610423  78.7862691  36.6193988  16.3774038  79.6687329  36.3182816
  15.6804490  78.3948905  35.8899630  10.9009645  81.7448405  43.1964732
  10.7554225  82.0588708  44.0889014  10.4234848  82.3633305  42.6435631
  12.7606027  78.7350953  43.2445622  12.7467596  77.8392046  42.9077920
  13.4778456  78.7421616  43.8783908  14.6132158  79.1688293  45.2898749
  14.3549936  80.0905363  45.2883080  14.0817199  78.7718727  45.9799213
  19.5578347  92.2739080  38.0688835  19.7315224  91.7085502  37.3162687
  20.0507238  93.0739975  37.8868325   5.3755307  84.2853749  46.1352394
   4.8308775  85.0613557  46.2672668   6.2534657  84.6324554  45.9771515
  12.1642923  77.6165333  38.5133192  12.2858835  76.6881979  38.7124080
  11.8744966  77.6304019  37.6011507  15.0334114  75.3020243  41.6499912
  15.0555811  75.3659576  40.6951891  15.4502173  74.4624752  41.8440418
  25.4117738  85.0375503  39.6879134  25.8548884  84.2882828  39.2898258
  24.5344248  85.0285639  39.3052866  20.5453519  91.5905844  35.1685733
  21.2404424  92.2112537  35.3873048  20.8876670  90.7401196  35.4438111
   6.1621329  83.4123645  49.0282550   5.4203065  83.5606281  49.6147181
   5.8414073  83.6731911  48.1649300  22.4444943  89.0405550  36.6973064
  22.9696267  89.3792823  35.9722384  22.3567295  88.1052565  36.5136198
  14.1064991  92.9539624  48.8262940  14.4152118  92.7088770  49.6985640
  14.9040473  93.1586262  48.3381811  14.1285603  95.1077533  41.0568317
  13.6890594  94.6153912  41.7501174  14.8793720  94.5650501  40.8160392
   6.6077942  91.2989074  41.0592945   7.4335962  90.9992846  40.6791589
   6.2571994  90.5296696  41.5082734  11.5759475  90.6515542  43.1290619
  10.9539485  89.9886247  42.8292847  12.2464342  90.6776674  42.4464266
   4.8086547  89.2175400  42.0181879   3.9718456  88.7897575  41.8365880
   4.7810193  89.4107844  42.9552670  11.6484003  79.1297330  52.7223125
  11.6972158  80.0059453  52.3400894  12.1906517  78.5874723  52.1494768
  22.1338849  89.6738454  52.0024262  21.3434392  89.6562592  51.4628761
  21.8972203  90.2126747  52.7573298  22.2536724  86.5230920  49.3156990
  22.3034729  86.3580927  50.2572513  22.1450647  85.6558179  48.9254871
  11.1372982  89.2019466  36.6049079  11.2861103  89.8854930  35.9515752
  11.9439426  89.1824556  37.1198535  19.5440486  82.5061848  50.6316297
  20.4450349  82.3668313  50.3400295  19.6188461  82.6716303  51.5714474
  13.8783291  79.8828703  49.4769483  13.0086601  80.1762269  49.2052072
  14.1142772  80.4669148  50.1976747  23.7554921  88.9427861  49.5599012
  23.4639729  89.3057842  50.3962473  23.1427052  88.2294870  49.3812344
  24.9550603  86.5080741  42.0801582  25.7897494  86.9470545  42.2439142
  25.0909732  86.0319394  41.2609828  22.0042109  84.0660476  48.0279070
  22.4796230  84.2588122  47.2197921  21.0807674  84.1219662  47.7822453
   8.8925615  85.2284643  37.6110148   8.6471657  84.3246973  37.8090358
   9.0621530  85.2301794  36.6689626  16.5822325  76.1008320  46.9934904
  17.1004269  76.8369347  46.6681392  16.2277458  76.4072313  47.8281663
   8.1621263  80.9613001  35.1096310   7.4690508  81.0357356  34.4536346
   7.9173015  80.1973344  35.6317826  16.8334919  72.5208602  42.5135800
  17.1136673  71.8531791  43.1396227  17.6185526  72.7137698  42.0010464
  14.6368388  91.6967596  34.0760827  14.0642355  92.3157783  33.6231298
  15.2101182  92.2466958  34.6100749  20.7043778  80.9426236  46.2607375
  21.6561201  81.0424334  46.2819599  20.5347228  80.1504505  46.7705460
  18.7258157  78.0281819  46.4466776  18.1308089  78.3086832  45.7513265
  18.4407854  78.5175720  47.2183517  17.8565648  91.9804746  35.2069409
  18.7896321  91.9150308  35.4102284  17.7688861  92.8161013  34.7483942
  20.4853664  91.2970617  32.1673356  20.4067296  90.9630480  33.0609114
  21.3063331  91.7892384  32.1664829  23.1831856  84.1632356  45.3749675
  23.1508176  83.2248357  45.5609359  23.7932479  84.2416393  44.6415500
  15.0215186  83.0328409  31.4176879  15.9674291  82.9034617  31.4865297
  14.6429431  82.2943071  31.8946307  23.3326344  80.9543399  45.4207958
  22.8165393  80.1701856  45.2337887  24.2166293  80.6262116  45.5854478
  20.9937071  74.6984415  41.3803771  20.7961892  74.3899503  42.2647103
  21.6036777  75.4246054  41.5101701  29.0008405  85.2248363  44.5155712
  29.7311794  84.9633651  45.0763415  28.3915351  84.4877085  44.5557780
  27.0823703  83.3656225  45.1130163  26.3556866  83.2312190  44.5046655
  26.6670989  83.6733054  45.9186881  14.9053879  87.0846155  52.8777536
  15.8256888  87.2624754  53.0717583  14.8703462  86.1402200  52.7257235
  13.2058104  80.9578385  31.3531764  12.2989559  80.6611498  31.4294478
  13.4834085  80.6608203  30.4866051   4.1236044  82.2784749  41.8030811
   3.8038828  81.4250057  41.5105185   3.5769472  82.4933327  42.5588778
   7.9015951  84.9947190  45.5200317   8.1201961  85.9264297  45.5388351
   8.3141725  84.6355164  46.3055121  14.8220169  75.5015275  37.5076006
  14.0120898  75.1562360  37.8831252  15.5104586  75.1922819  38.0963617
  16.7510718  74.5793322  39.1300302  17.3041756  74.9988775  39.7890325
  16.9880804  73.6529070  39.1723258  12.7743817  80.5680395  54.9103066
  12.6740544  81.5174752  54.8415157  12.5565359  80.2398634  54.0379136
  11.9756888  77.8165320  31.4943744  12.8376052  78.1420219  31.7539561
  12.1607232  77.0296816  30.9816809   3.9924304  85.8987660  43.7723932
   3.2987775  85.4841613  43.2593887   4.7397295  85.9408197  43.1757351
  20.1289525  76.6893847  38.6378967  19.5488194  77.3478651  38.2557019
  19.8625457  75.8671191  38.2266384  18.5793091  76.0898905  40.8400287
  19.0792869  76.2015439  40.0314606  19.2228699  75.7859957  41.4801095
  12.6375087  83.9977534  53.7268128  12.1542169  84.7977894  53.9332017
  12.7236026  84.0085479  52.7735572   5.9061046  85.8305914  41.6489947
   5.8831735  85.9293601  40.6971830   6.2161683  86.6771065  41.9707113
   8.5648424  87.8882069  45.7636562   9.5191678  87.8566011  45.6966493
   8.3660948  87.4272693  46.5786788   9.1547806  86.4583185  48.3307359
   9.9740695  86.9527264  48.3542197   9.4284614  85.5415153  48.3024927
  18.9114403  78.8493937  37.6935315  18.0240258  79.1343588  37.4755510
  19.3268392  78.6887701  36.8462592  22.2628939  78.8740458  41.4089654
  23.0389329  79.3636911  41.6814271  21.5377073  79.2998512  41.8661524
  24.7001497  79.5868077  42.4663595  25.2945988  79.3463813  41.7556903
  24.7728081  78.8675208  43.0937131   6.9198653  93.4301688  42.7806759
   6.7853121  92.6702089  42.2144758   6.5030715  94.1542588  42.3135548
  18.0557616  88.6138612  31.7883335  18.7593466  88.8188614  32.4040990
  17.3320265  89.1815374  32.0532418  18.8855426  84.3648473  37.9085605
  18.8290628  84.8217025  37.0693237  19.4383769  83.6039158  37.7308448
  22.6960232  80.1538205  38.7335724  22.4397167  79.7534841  39.5643932
  22.0713100  80.8681999  38.6085864  27.0072570  82.8934278  41.2407016
  26.4472128  82.9627468  42.0138578  26.4016074  82.7175263  40.5206512
  10.0767779  94.3271005  42.9925202   9.9600163  95.2716438  42.8903892
   9.2560225  94.0244567  43.3811001  19.9644314  89.0521141  33.8381795
  20.7989917  88.6202340  33.6559270  19.8028656  88.8803155  34.7658689
  19.6190206  85.5553254  35.2038134  19.5639010  85.3897526  34.2626578
  18.9936261  86.2629287  35.3600324   4.4082721  80.7921319  49.0299556
   5.0541584  80.2820273  49.5186782   4.1999872  81.5290000  49.6042982
  16.9336113  87.8602166  54.5291697  17.8027273  88.0342819  54.1678332
  16.4542864  88.6796583  54.4067426  12.9286331  75.0561363  34.7823453
  12.9165001  76.0003203  34.9391723  13.8209753  74.8731509  34.4882914
  11.1022293  94.9799267  46.2081131  12.0049540  95.0122878  46.5247626
  10.8759663  94.0499718  46.2227466  12.8575895  93.7330254  42.8691209
  11.9071526  93.7332115  42.7555581  13.1608381  92.9862988  42.3527244
  16.7438451  71.6504140  39.0369389  15.9770846  71.0962627  39.1826072
  17.1549156  71.7226009  39.8983541   8.7480212  77.9388936  53.1274571
   9.6111673  77.5825741  53.3377895   8.1745622  77.6002831  53.8149975
  28.5928589  99.5690792  43.9336972  29.2306999  99.4497540  43.2300312
  28.4749432 100.5171636  43.9924924  25.4018295  99.5218220  43.8698496
  25.0636806  99.4059285  42.9819031  26.2708063  99.1209385  43.8499502
  21.2605111 101.3753697  39.8595387  20.6969976 101.2843634  39.0911675
  21.1457506 100.5553601  40.3397880  25.8838078 100.6753072  49.8284702
  25.8726719 100.2805870  48.9565205  26.0458717  99.9419145  50.4218473
  18.8069543 102.8704888  42.6979608  19.5990834 102.5295713  42.2825907
  19.0466193 102.9799863  43.6181761  26.8404669 105.0424664  35.1709852
  26.1892649 105.6278745  34.7843866  27.6349032 105.5730859  35.2304890
  20.7660296 102.1313802  35.5696986  21.5391172 101.5842789  35.4309862
  21.1185695 102.9958051  35.7811448  22.6045339 103.4590184  48.7763886
  22.3135205 104.3635815  48.6610552  23.2402323 103.5006711  49.4907955
  23.5301546 100.8367032  45.3665245  24.1265118 100.6123055  44.6522208
  23.5876517 100.0951778  45.9690693  23.1026574  98.2906468  33.2015436
  23.3552095  97.7687989  32.4398899  22.1651133  98.1272613  33.3042120
  28.1469857  97.2942246  41.0090180  28.9332946  96.8761669  40.6580597
  28.4108561  98.1988338  41.1771828  28.3179934 102.7315096  35.7078836
  27.6825767 102.8049723  36.4199741  27.9877341 103.3208695  35.0297916
  33.5478284  97.2317479  41.9123158  34.2803456  96.6616696  42.1460988
  32.7917640  96.8439080  42.3529664  22.8222863 100.1934574  35.4039811
  22.7059121  99.5179477  36.0720896  22.9325123  99.7066948  34.5871964
  25.1654404  99.6544721  39.1086501  24.8012611  99.1275342  39.8199422
  26.0221520  99.2643190  38.9352986  31.0703705  90.9439053  46.3717767
  30.7387029  91.8134464  46.1478982  30.4749318  90.6275337  47.0511797
  24.8059891  94.6834620  34.1047849  24.9734293  95.5514857  34.4718320
  24.6157060  94.8461902  33.1809138  27.5635224 103.1451599  45.7713679
  27.2635947 104.0476638  45.6629487  27.2186284 102.8783783  46.6234832
  21.0147706  99.5965396  41.8050384  20.0898202  99.4641610  42.0128076
  21.2632119 100.3759615  42.3020326  30.9632368  95.6634140  43.4511117
  30.0549245  95.5949548  43.1569878  30.9119964  96.1406084  44.2792942
  24.7849112  97.1392278  35.0894516  24.6648737  97.5849329  35.9279996
  24.0901700  97.4877596  34.5308054  18.3756517  99.2398670  42.6394173
  18.5048898  99.4933149  43.5533585  17.6953968  99.8326378  42.3198828
  22.5456004 109.9095920  38.7384647  22.4680034 110.8603745  38.8173128
  21.9417648 109.5641792  39.3959573  25.0373234  97.0823785  51.3946014
  24.2606568  97.6417705  51.3848879  25.6763797  97.5680568  51.9160884
  32.8294014  93.8650578  45.2288991  32.1868395  94.1583111  44.5828785
  32.3248943  93.7503498  46.0342187  30.4834178  97.6113751  35.9174850
  31.3952034  97.8441138  35.7422548  29.9743825  98.1950795  35.3549929
  23.2919606  99.8909239  50.9563981  24.0334290 100.4294282  50.6798805
  22.5856591 100.5175527  51.1135533  28.7674946 102.0338379  49.5536143
  29.1758302 101.5920789  48.8090775  28.0452207 101.4591006  49.8070335
  25.1206016  96.9710986  46.9269699  25.9667211  97.3950399  47.0704348
  25.0604653  96.3144610  47.6208263  29.0903760 102.5939570  43.3088431
  28.4612623 102.7585284  42.6064499  28.7029422 103.0081179  44.0799395
  32.9692992 103.5294007  40.6632795  32.2844030 103.9092909  40.1129829
  33.0536842 104.1389334  41.3964743  28.2705461  94.6315354  48.5850873
  28.0266393  95.3857415  48.0485149  28.5465392  95.0100702  49.4198120
  30.2243924 101.1753966  47.2628139  30.4360819 101.8185726  46.5862520
  30.1773672 100.3416283  46.7950069  27.8270153  93.7871787  44.1664711
  26.9654632  94.0853041  44.4581448  27.8532587  94.0042186  43.2345743
  24.6431722 102.3313978  40.5738517  25.1070068 102.6101681  39.7843139
  24.3788520 101.4297422  40.3911607  21.5355803 101.8785459  43.5118280
  22.1057160 102.3072728  42.8735764  22.1263915 101.5968044  44.2102465
  23.5800608  98.4537130  37.3828082  24.2824652  98.9058174  37.8502008
  23.2481237  97.8120949  38.0107975  22.0280970  97.0448887  51.7579291
  21.3979630  97.7265168  51.9914688  21.9217058  96.9331968  50.8132429
  17.3225942  96.7120683  42.6845215  16.5324996  96.9678211  42.2085326
  17.8137190  97.5269021  42.7897256  31.3389752 104.0525922  45.4350496
  32.1607195 103.6506109  45.1533178  31.3352155 103.9494156  46.3866612
  19.2740688  97.0765262  39.6428692  18.4771851  97.1883956  40.1612188
  19.0466280  97.4151914  38.7769582  25.1046355 103.6009965  47.5911207
  25.1690788 104.0630372  48.4269378  24.3957279 102.9707330  47.7193516
  15.6063645  96.9651173  45.1160206  15.8571684  97.8498183  45.3817782
  16.1423194  96.7855775  44.3435298  39.4295745 100.3964670  41.7835468
  38.6759453  99.8272068  41.6279472  39.5643286 100.3627335  42.7306102
  24.8194373 105.2678073  37.4590187  24.6840048 106.1129608  37.8875035
  25.3604185 105.4697350  36.6956121  21.3061712  91.3469653  54.1204542
  20.9128658  90.7935851  54.7952186  22.1227853  91.6580231  54.5111060
  18.2723770 102.7853511  38.0318112  18.7848291 103.5796761  38.1823677
  18.9246483 102.0879801  37.9651713  20.0818655 105.9019267  40.1140865
  20.2585283 106.8237232  39.9261849  20.8775488 105.5877686  40.5435245
  24.2229673  92.7627532  51.7124799  24.9639387  93.3634685  51.6329261
  24.4547596  92.0205169  51.1542841  19.3671011  97.9483899  49.9903028
  19.2524527  97.0469156  50.2910127  18.5115529  98.1947596  49.6387845
  26.4462849 105.8901639  51.5890529  26.0026703 105.1038018  51.2711433
  27.1080063 106.0780790  50.9234420  21.2049970 107.4197441  46.1151207
  21.7557396 107.2914504  45.3428201  20.3661446 107.7192330  45.7646100
  28.5444087 106.1704439  49.6171930  28.5262563 106.9913320  49.1252199
  29.4664007 106.0458514  49.8422071  25.0017141 103.6848569  50.4595439
  25.5345478 102.9236857  50.2294747  24.4731223 103.3922220  51.2019593
  28.1686836  88.7908635  45.9889080  27.8251106  89.6810276  45.9128191
  28.5365799  88.6010292  45.1258665  16.2372687 101.1142165  38.8077683
  17.0747909 101.5239173  38.5911390  16.4150955 100.1741607  38.7777876
  28.1337119  98.7817246  34.4961515  27.6183743  99.5521850  34.7349903
  27.8614428  98.1082382  35.1194577  25.7184230  93.6266946  39.5546754
  24.8625827  93.2373797  39.3752393  26.1311182  93.7058907  38.6946539
  27.2483377  91.1613290  43.9538314  26.7448172  91.1243425  43.1406119
  27.5413984  92.0706032  44.0134970  23.4926263  91.2452019  42.9604495
  24.3579259  91.0494828  42.6010385  23.5603772  91.0162371  43.8873852
  33.1071393 101.5349600  36.4314689  32.3300836 101.1960760  35.9869851
  33.7862874 101.5402223  35.7569654  27.9223422  96.6544338  36.3221297
  27.6173558  96.9690487  37.1731440  28.8753864  96.7325758  36.3648630
  26.3669854 102.8134561  37.9714251  25.8391216 102.0787321  37.6587488
  25.8657357 103.5909237  37.7254219  31.3462700 101.0083582  43.0881297
  30.6886375 101.6982843  43.1761426  32.1503099 101.3980013  43.4315283
  21.0988582  93.4754227  40.3320862  21.6732334  93.2529409  39.5994055
  21.6859564  93.5442922  41.0849463  30.1568159  99.3627954  41.1385239
  30.6700041  99.9957946  41.6406948  30.8069383  98.7629150  40.7728599
  21.4258169  95.5058688  34.3516747  20.5895481  95.8433375  34.6726022
  21.2862939  95.3707668  33.4143884  23.4011249  90.3495476  39.0595932
  22.7475662  90.0344493  38.4352546  23.3591724  89.7271217  39.7855755
  24.5122454 100.6314771  30.9749224  23.6049516 100.4004025  31.1740373
  25.0093486  99.8352391  31.1623205  27.4190533 109.3412279  33.8945910
  26.7452232 109.6443975  34.5030868  27.8056355 110.1441359  33.5451367
  26.6348990  96.8377410  43.3843579  25.7171551  97.0592357  43.2265267
  27.0509133  96.9123720  42.5255287  27.4184038  98.2368825  38.5146259
  28.1655857  98.7490223  38.2053382  27.6875627  97.9152878  39.3750653
  25.6910688 100.7327366  35.4973214  24.7821907 100.4486399  35.5945683
  25.7205772 101.1526445  34.6376521  30.9229955 104.3433956  39.2664381
  30.4692282 103.5024866  39.3229572  30.2923922 104.9795354  39.6039161
  29.8662875  95.2725942  40.4965049  29.1285632  94.7603328  40.8275291
  30.1189648  94.8326323  39.6848326  29.3662894 106.1810452  40.2014199
  29.6585869 106.7415509  39.4826565  29.8761515 106.4739013  40.9567359
  29.9674502  88.0502194  41.0906818  30.2733379  87.1899557  40.8032733
  30.6927107  88.6419814  40.8905812  16.2598858  98.4532880  39.4788416
  16.0623258  97.8602241  38.7539483  15.7045522  98.1485091  40.1964355
  24.2395582  98.3455987  41.5983009  24.2944192  97.3929823  41.5225486
  23.4286784  98.5015426  42.0824308  25.3886776 102.2736110  32.8361292
  24.9506206 101.5571969  32.3766930  26.1297216 102.5012225  32.2746384
  22.1787942  96.9633047  39.3573388  21.3655807  97.2627217  39.7638580
  22.6746936  96.5688735  40.0747870  24.3296520 106.9590803  41.2907653
  24.2872698 107.1851650  40.3616185  25.2459218 106.7254178  41.4393454
  27.7762153  97.4274871  48.1888282  28.1311541  97.6546344  49.0482748
  28.4234285  97.7593248  47.5665537  33.5059890 100.5493307  38.8937611
  33.3677789 100.7394903  37.9658800  33.1496109 101.3112690  39.3505662
  21.6702016  94.5351402  44.9734623  22.3101396  94.3940161  44.2757586
  20.8379547  94.2485915  44.5973225  33.5329270 102.6169834  43.9048882
  33.9665777 102.5245123  44.7531936  34.2460851 102.5927334  43.2668898
  22.4462320 103.8353832  41.0869615  23.2402919 103.3404153  40.8852190
  21.7354013 103.3071696  40.7237321  27.2657165 106.2171928  45.4381983
  27.3194187 106.7862864  46.2059699  26.3971946 106.3873813  45.0736020
  18.7545084  97.9796914  37.1629368  17.8242672  97.9181370  37.3799330
  18.8502556  97.4572867  36.3666009  18.6730633  94.5051727  39.7507610
  18.9337450  95.4197060  39.6416770  19.4947805  94.0376170  39.9004223
  20.1455558  95.9189484  46.9206434  20.8178612  95.7106846  46.2719083
  19.3185345  95.7211570  46.4811667  34.3944820 102.6593535  46.4381768
  34.5880710 103.5639345  46.6841043  34.2945438 102.2000954  47.2720353
  26.0481130  92.5451425  48.9372095  25.4009045  93.2441375  48.8436572
  26.8182146  92.9787569  49.3048343  29.4559928 102.8100277  52.0122648
  29.3045435 102.5810829  51.0952732  29.4464608 103.7670879  52.0253993
  26.2245265 100.3832190  46.9968915  27.1537325 100.5343350  46.8237882
  25.8036295 100.4716211  46.1417561  25.0233596 104.4082854  44.7667452
  24.8844682 104.0401639  45.6393391  24.2348193 104.9230494  44.5951410
  25.6181748 109.5091951  36.1092989  25.7933504 109.0379994  36.9238612
  24.9314536 110.1357717  36.3374250  26.5738812 103.7864457  42.1556290
  26.2388644 103.7465227  43.0513940  26.0742757 103.1209173  41.6826700
  20.5483056  99.1932087  47.6808871  20.4102853  98.4612326  48.2820410
  21.4587979  99.1040987  47.3993059  29.5098003 101.1320492  32.4293350
  28.8927174 100.4067320  32.3326403  29.0414492 101.8929852  32.0860424
  23.1765356  98.9052047  47.1692551  23.8864975  98.2645239  47.1279169
  23.1334664  99.1564941  48.0918732  31.1652135 105.8419400  50.0899130
  31.1064681 105.1578620  49.4229713  31.5671653 106.5838390  49.6379756
  21.8894290  95.8917264  48.9888191  21.3531647  95.4408003  49.6409787
  21.3010999  96.0263173  48.2458655  20.1842834 112.6581314  42.8832849
  20.4239432 113.2899838  43.5611868  19.3412030 112.3069354  43.1698208
  21.2996549  95.3505916  31.5514654  20.4226015  95.2294717  31.1876901
  21.7754302  94.5591994  31.2993543  31.1669542 103.8058984  48.3213110
  30.2796321 103.4684906  48.4439509  31.7368093 103.0742015  48.5581875
  12.8198689 100.1383076  41.6456161  13.5069729  99.8244806  41.0577177
  12.6646818 101.0424440  41.3723413  17.6233411  95.0273272  46.0741185
  17.5391600  94.4198942  45.3391595  16.8016118  95.5182290  46.0750681
  24.6970696 108.4660436  45.2874353  24.6240867 109.2715408  45.7993658
  24.2548089 108.6652402  44.4622375  24.4860475 107.7032206  38.7977175
  23.7027997 108.2453886  38.8915399  25.1853220 108.2206186  39.1971416
  27.7957125  93.5126836  41.4411380  28.2925825  92.7596798  41.1212450
  27.0244107  93.5491152  40.8754589  35.6486883  99.2167201  43.0829672
  35.6376759 100.0991917  42.7123605  34.7804262  98.8638752  42.8884209
  27.1569379 108.3647270  47.4432512  27.8697351 108.9994735  47.3708413
  26.6659408 108.4611136  46.6272514  28.8786906 102.2698523  39.0149803
  27.9443185 102.3899985  38.8454508  29.0563574 101.3670990  38.7509813
  24.3792094  95.6544219  41.1683065  24.0089882  95.1015259  41.8563970
  24.8751186  95.0502352  40.6158065  32.2659457  98.1115842  39.5499838
  32.7319909  98.9443834  39.4760140  32.7166958  97.6460824  40.2545096
  22.2081293 106.1141714  48.2638083  22.9090752 106.7478197  48.4167477
  21.7376408 106.4556445  47.5033722  30.3335688 104.4559663  36.5485990
  30.6095532 104.3416258  37.4579864  29.4640187 104.0577148  36.5098163
  30.2376120  90.4796429  43.5890739  29.3239200  90.7100656  43.7572946
  30.6669222  90.5634873  44.4404771  30.0082579  98.6686321  46.0890633
  29.3554029  98.9162229  45.4343086  30.3862958  97.8550459  45.7553110
  26.9689752 108.7046014  40.1918803  27.1512147 107.8867670  40.6546556
  27.7922738 108.9213707  39.7543693  27.3031918 107.6314199  37.4533852
  27.8319684 107.1206654  36.8404014  27.5660137 107.3156730  38.3179385
  26.0570152  99.4106132  52.5756670  25.3810789  99.3100261  53.2459045
  26.8797785  99.2545346  53.0392667  17.8049011 105.6478069  45.1969185
  18.3902447 104.9021757  45.3297090  17.6073849 105.9582025  46.0805849
  20.6587666 108.6829316  40.2131628  19.9898041 109.1675444  39.7295668
  20.5200536 108.9298537  41.1275006  12.3966665  98.2183669  43.9173628
  12.4350765  97.6847260  44.7110747  11.8906958  97.6918874  43.2984606
  24.7992934 110.7173060  46.8114286  25.3511242 110.8804681  47.5763371
  25.1399128 111.3077497  46.1394311  19.7757428  93.0648209  47.4136171
  19.8398754  93.9263040  47.0013568  19.7124548  92.4522211  46.6808529
  19.2509700  95.1371342  51.0609205  19.8781739  94.7548419  51.6746729
  18.3937619  94.9185544  51.4264898  29.6503809 105.5434317  52.6662940
  30.1943713 106.1564275  52.1717895  29.0690654 106.1013896  53.1829953
  16.0275243  96.9447771  36.9927560  16.3228684  96.0358449  36.9394614
  15.1263279  96.9235511  36.6708562  27.9361322 108.6655035  43.7977968
  27.8112461 107.8644775  43.2888914  28.5940413 109.1601229  43.3091938
  19.5569490  95.0203768  42.9755108  18.8356076  95.6339735  42.8362582
  20.3462746  95.5561532  42.8971754  29.9996230 106.4664055  45.4257518
  29.0526566 106.3469406  45.3535845  30.3479003 105.5786553  45.5083780
  22.3595803  92.3558194  49.2495760  22.8830205  92.6020491  50.0122070
  22.1408137  93.1878229  48.8298898  17.7563085  94.6261869  37.1166885
  17.4275791  93.7459248  36.9341991  18.1102455  94.5709537  38.0043274
  27.0042663 106.2616771  41.6261871  26.8567626 105.3333479  41.8069441
  27.8296157 106.2836862  41.1418946  20.8704908  94.9134839  37.4842363
  21.2100980  95.4420760  36.7620971  21.3177028  95.2515245  38.2600929
  30.6076785 107.0845330  42.7126743  31.5323333 106.8788192  42.5751194
  30.4392089 106.8361731  43.6216085  23.5648349  93.2971889  46.9345431
  23.2245169  92.4979702  47.3366111  22.8587355  93.5973600  46.3622264
  24.2164820  90.3821202  45.3872754  25.0390890  89.9081680  45.2651644
  24.4602884  91.1611685  45.8871440  22.8573055  93.4109460  35.6835655
  23.5781417  93.7890713  35.1799372  22.2338359  94.1298337  35.7870633
  27.0004178  94.1154609  36.6193988  27.2167792  94.9979247  36.3182816
  26.5198245  93.7240822  35.8899630  21.7403399  97.0740322  43.1964732
  21.5947980  97.3880625  44.0889014  21.2628603  97.6925223  42.6435631
  23.5999782  94.0642870  43.2445622  23.5861351  93.1683964  42.9077920
  24.3172210  94.0713534  43.8783908  25.4525913  94.4980210  45.2898749
  25.1943691  95.4197281  45.2883080  24.9210953  94.1010645  45.9799213
  30.3972101 107.6030998  38.0688835  30.5708979 107.0377420  37.3162687
  30.8900993 108.4031893  37.8868325  16.2149061  99.6145667  46.1352394
  15.6702529 100.3905475  46.2672668  17.0928411  99.9616471  45.9771515
  23.0036678  92.9457251  38.5133192  23.1252589  92.0173897  38.7124080
  22.7138720  92.9595937  37.6011507  25.8727868  90.6312161  41.6499912
  25.8949565  90.6951494  40.6951891  26.2895927  89.7916670  41.8440418
  36.2511493 100.3667421  39.6879134  36.6942639  99.6174746  39.2898258
  35.3738003 100.3577557  39.3052866  31.3847274 106.9197762  35.1685733
  32.0798179 107.5404455  35.3873048  31.7270424 106.0693113  35.4438111
  17.0015083  98.7415563  49.0282550  16.2596819  98.8898198  49.6147181
  16.6807827  99.0023829  48.1649300  33.2838697 104.3697468  36.6973064
  33.8090021 104.7084740  35.9722384  33.1961050 103.4344483  36.5136198
  24.9458746 108.2831541  48.8262940  25.2545872 108.0380688  49.6985640
  25.7434228 108.4878180  48.3381811  24.9679358 110.4369451  41.0568317
  24.5284348 109.9445830  41.7501174  25.7187475 109.8942418  40.8160392
  17.4471697 106.6280992  41.0592945  18.2729717 106.3284764  40.6791589
  17.0965749 105.8588614  41.5082734  22.4153230 105.9807460  43.1290619
  21.7933239 105.3178165  42.8292847  23.0858097 106.0068592  42.4464266
  15.6480302 104.5467318  42.0181879  14.8112210 104.1189493  41.8365880
  15.6203947 104.7399761  42.9552670  22.4877757  94.4589248  52.7223125
  22.5365913  95.3351371  52.3400894  23.0300272  93.9166641  52.1494768
  32.9732603 105.0030371  52.0024262  32.1828147 104.9854510  51.4628761
  32.7365958 105.5418665  52.7573298  33.0930478 101.8522838  49.3156990
  33.1428483 101.6872845  50.2572513  32.9844402 100.9850097  48.9254871
  21.9766737 104.5311383  36.6049079  22.1254857 105.2146848  35.9515752
  22.7833180 104.5116473  37.1198535  30.3834241  97.8353766  50.6316297
  31.2844103  97.6960230  50.3400295  30.4582215  98.0008220  51.5714474
  24.7177046  95.2120620  49.4769483  23.8480355  95.5054186  49.2052072
  24.9536526  95.7961065  50.1976747  34.5948675 104.2719779  49.5599012
  34.3033483 104.6349760  50.3962473  33.9820806 103.5586787  49.3812344
  35.7944357 101.8372659  42.0801582  36.6291249 102.2762463  42.2439142
  35.9303486 101.3611312  41.2609828  32.8435863  99.3952394  48.0279070
  33.3189985  99.5880040  47.2197921  31.9201429  99.4511580  47.7822453
  19.7319370 100.5576561  37.6110148  19.4865412  99.6538891  37.8090358
  19.9015284 100.5593711  36.6689626  27.4216080  91.4300237  46.9934904
  27.9398024  92.1661264  46.6681392  27.0671213  91.7364231  47.8281663
  19.0015017  96.2904918  35.1096310  18.3084262  96.3649273  34.4536346
  18.7566769  95.5265262  35.6317826  27.6728674  87.8500520  42.5135800
  27.9530428  87.1823709  43.1396227  28.4579281  88.0429615  42.0010464
  25.4762142 107.0259514  34.0760827  24.9036109 107.6449701  33.6231298
  26.0494936 107.5758875  34.6100749  31.5437532  96.2718154  46.2607375
  32.4954955  96.3716251  46.2819599  31.3740983  95.4796422  46.7705460
  29.5651912  93.3573737  46.4466776  28.9701844  93.6378750  45.7513265
  29.2801608  93.8467638  47.2183517  28.6959402 107.3096664  35.2069409
  29.6290075 107.2442226  35.4102284  28.6082615 108.1452931  34.7483942
  31.3247419 106.6262534  32.1673356  31.2461050 106.2922398  33.0609114
  32.1457086 107.1184302  32.1664829  34.0225610  99.4924273  45.3749675
  33.9901930  98.5540274  45.5609359  34.6326234  99.5708310  44.6415500
  25.8608941  98.3620326  31.4176879  26.8068046  98.2326535  31.4865297
  25.4823186  97.6234988  31.8946307  34.1720099  96.2835317  45.4207958
  33.6559147  95.4993774  45.2337887  35.0560047  95.9554034  45.5854478
  31.8330825  90.0276332  41.3803771  31.6355647  89.7191421  42.2647103
  32.4430531  90.7537971  41.5101701  39.8402160 100.5540280  44.5155712
  40.5705548 100.2925568  45.0763415  39.2309105  99.8169002  44.5557780
  37.9217457  98.6948143  45.1130163  37.1950621  98.5604108  44.5046655
  37.5064744  99.0024972  45.9186881  25.7447633 102.4138073  52.8777536
  26.6650643 102.5916672  53.0717583  25.7097216 101.4694118  52.7257235
  24.0451858  96.2870303  31.3531764  23.1383313  95.9903416  31.4294478
  24.3227839  95.9900121  30.4866051  14.9629798  97.6076666  41.8030811
  14.6432583  96.7541974  41.5105185  14.4163227  97.8225244  42.5588778
  18.7409706 100.3239107  45.5200317  18.9595716 101.2556215  45.5388351
  19.1535480  99.9647082  46.3055121  25.6613924  90.8307193  37.5076006
  24.8514652  90.4854278  37.8831252  26.3498341  90.5214736  38.0963617
  27.5904472  89.9085239  39.1300302  28.1435511  90.3280693  39.7890325
  27.8274558  88.9820987  39.1723258  23.6137571  95.8972313  54.9103066
  23.5134298  96.8466670  54.8415157  23.3959113  95.5690552  54.0379136
  22.8150643  93.1457238  31.4943744  23.6769807  93.4712136  31.7539561
  23.0000987  92.3588734  30.9816809  14.8318058 101.2279578  43.7723932
  14.1381530 100.8133531  43.2593887  15.5791049 101.2700114  43.1757351
  30.9683279  92.0185765  38.6378967  30.3881948  92.6770569  38.2557019
  30.7019212  91.1963109  38.2266384  29.4186846  91.4190822  40.8400287
  29.9186624  91.5307357  40.0314606  30.0622453  91.1151875  41.4801095
  23.4768841  99.3269452  53.7268128  22.9935923 100.1269812  53.9332017
  23.5629780  99.3377397  52.7735572  16.7454801 101.1597832  41.6489947
  16.7225489 101.2585519  40.6971830  17.0555437 102.0062982  41.9707113
  19.4042179 103.2173987  45.7636562  20.3585432 103.1857929  45.6966493
  19.2054702 102.7564610  46.5786788  19.9941561 101.7875103  48.3307359
  20.8134450 102.2819181  48.3542197  20.2678369 100.8707071  48.3024927
  29.7508157  94.1785855  37.6935315  28.8634012  94.4635506  37.4755510
  30.1662146  94.0179618  36.8462592  33.1022693  94.2032376  41.4089654
  33.8783083  94.6928828  41.6814271  32.3770827  94.6290430  41.8661524
  35.5395252  94.9159995  42.4663595  36.1339743  94.6755731  41.7556903
  35.6121836  94.1967126  43.0937131  17.7592408 108.7593606  42.7806759
  17.6246876 107.9994007  42.2144758  17.3424470 109.4834506  42.3135548
  28.8951371 103.9430530  31.7883335  29.5987221 104.1480532  32.4040990
  28.1714019 104.5107291  32.0532418  29.7249181  99.6940391  37.9085605
  29.6684382 100.1508942  37.0693237  30.2777523  98.9331075  37.7308448
  33.5353987  95.4830123  38.7335724  33.2790921  95.0826758  39.5643932
  32.9106855  96.1973917  38.6085864  37.8466325  98.2226196  41.2407016
  37.2865883  98.2919385  42.0138578  37.2409828  98.0467181  40.5206512
  20.9161533 109.6562923  42.9925202  20.7993918 110.6008356  42.8903892
  20.0953980 109.3536485  43.3811001  30.8038068 104.3813059  33.8381795
  31.6383672 103.9494257  33.6559270  30.6422411 104.2095072  34.7658689
  30.4583960 100.8845172  35.2038134  30.4032764 100.7189444  34.2626578
  29.8330015 101.5921205  35.3600324  15.2476475  96.1213236  49.0299556
  15.8935339  95.6112190  49.5186782  15.0393626  96.8581918  49.6042982
  27.7729867 103.1894084  54.5291697  28.6421027 103.3634736  54.1678332
  27.2936619 104.0088501  54.4067426  23.7680086  90.3853281  34.7823453
  23.7558756  91.3295121  34.9391723  24.6603508  90.2023427  34.4882914
  21.9416048 110.3091185  46.2081131  22.8443294 110.3414795  46.5247626
  21.7153418 109.3791636  46.2227466  23.6969650 109.0622172  42.8691209
  22.7465281 109.0624033  42.7555581  24.0002136 108.3154906  42.3527244
  27.5832205  86.9796058  39.0369389  26.8164601  86.4254544  39.1826072
  27.9942910  87.0517926  39.8983541  19.5873966  93.2680854  53.1274571
  20.4505428  92.9117658  53.3377895  19.0139377  92.9294748  53.8149975
  39.4322343 114.8982710  43.9336972  40.0700753 114.7789457  43.2300312
  39.3143186 115.8463554  43.9924924  36.2412049 114.8510138  43.8698496
  35.9030561 114.7351203  42.9819031  37.1101818 114.4501303  43.8499502
  32.0998865 116.7045614  39.8595387  31.5363730 116.6135551  39.0911675
  31.9851260 115.8845519  40.3397880  36.7231832 116.0044990  49.8284702
  36.7120473 115.6097788  48.9565205  36.8852472 115.2711062  50.4218473
  29.6463297 118.1996806  42.6979608  30.4384589 117.8587631  42.2825907
  29.8859947 118.3091781  43.6181761  37.6798424 120.3716582  35.1709852
  37.0286404 120.9570663  34.7843866  38.4742787 120.9022777  35.2304890
  31.6054051 117.4605719  35.5696986  32.3784927 116.9134706  35.4309862
  31.9579450 118.3249969  35.7811448  33.4439094 118.7882102  48.7763886
  33.1528960 119.6927732  48.6610552  34.0796078 118.8298629  49.4907955
  34.3695300 116.1658950  45.3665245  34.9658873 115.9414972  44.6522208
  34.4270272 115.4243696  45.9690693  33.9420329 113.6198385  33.2015436
  34.1945849 113.0979907  32.4398899  33.0044888 113.4564531  33.3042120
  38.9863612 112.6234164  41.0090180  39.7726701 112.2053587  40.6580597
  39.2502316 113.5280256  41.1771828  39.1573689 118.0607014  35.7078836
  38.5219522 118.1341641  36.4199741  38.8271095 118.6500613  35.0297916
  44.3872039 112.5609397  41.9123158  45.1197211 111.9908614  42.1460988
  43.6311394 112.1730997  42.3529664  33.6616618 115.5226491  35.4039811
  33.5452876 114.8471395  36.0720896  33.7718877 115.0358865  34.5871964
  36.0048158 114.9836638  39.1086501  35.6406366 114.4567259  39.8199422
  36.8615274 114.5935107  38.9352986  41.9097459 106.2730971  46.3717767
  41.5780784 107.1426382  46.1478982  41.3143072 105.9567255  47.0511797
  35.6453645 110.0126538  34.1047849  35.8128048 110.8806775  34.4718320
  35.4550815 110.1753820  33.1809138  38.4028979 118.4743517  45.7713679
  38.1029702 119.3768556  45.6629487  38.0580038 118.2075700  46.6234832
  31.8541460 114.9257314  41.8050384  30.9291957 114.7933528  42.0128076
  32.1025873 115.7051533  42.3020326  41.8026122 110.9926057  43.4511117
  40.8943000 110.9241466  43.1569878  41.7513718 111.4698002  44.2792942
  35.6242866 112.4684196  35.0894516  35.5042492 112.9141246  35.9279996
  34.9295455 112.8169513  34.5308054  29.2150271 114.5690587  42.6394173
  29.3442652 114.8225066  43.5533585  28.5347722 115.1618295  42.3198828
  33.3849758 125.2387837  38.7384647  33.3073788 126.1895662  38.8173128
  32.7811402 124.8933710  39.3959573  35.8766988 112.4115703  51.3946014
  35.1000322 112.9709623  51.3848879  36.5157551 112.8972486  51.9160884
  43.6687769 109.1942496  45.2288991  43.0262149 109.4875029  44.5828785
  43.1642697 109.0795416  46.0342187  41.3227932 112.9405669  35.9174850
  42.2345789 113.1733056  35.7422548  40.8137580 113.5242713  35.3549929
  34.1313361 115.2201156  50.9563981  34.8728045 115.7586200  50.6798805
  33.4250346 115.8467445  51.1135533  39.6068700 117.3630297  49.5536143
  40.0152056 116.9212707  48.8090775  38.8845962 116.7882924  49.8070335
  35.9599770 112.3002903  46.9269699  36.8060965 112.7242317  47.0704348
  35.8998408 111.6436528  47.6208263  39.9297515 117.9231487  43.3088431
  39.3006377 118.0877201  42.6064499  39.5423177 118.3373097  44.0799395
  43.8086747 118.8585925  40.6632795  43.1237785 119.2384826  40.1129829
  43.8930596 119.4681252  41.3964743  39.1099216 109.9607272  48.5850873
  38.8660147 110.7149332  48.0485149  39.3859146 110.3392619  49.4198120
  41.0637678 116.5045884  47.2628139  41.2754574 117.1477644  46.5862520
  41.0167427 115.6708201  46.7950069  38.6663907 109.1163705  44.1664711
  37.8048386 109.4144958  44.4581448  38.6926342 109.3334104  43.2345743
  35.4825477 117.6605895  40.5738517  35.9463822 117.9393598  39.7843139
  35.2182275 116.7589340  40.3911607  32.3749558 117.2077377  43.5118280
  32.9450915 117.6364645  42.8735764  32.9657670 116.9259962  44.2102465
  34.4194363 113.7829048  37.3828082  35.1218406 114.2350091  37.8502008
  34.0874991 113.1412867  38.0107975  32.8674724 112.3740804  51.7579291
  32.2373385 113.0557085  51.9914688  32.7610812 112.2623886  50.8132429
  28.1619697 112.0412600  42.6845215  27.3718751 112.2970129  42.2085326
  28.6530944 112.8560938  42.7897256  42.1783506 119.3817840  45.4350496
  43.0000950 118.9798027  45.1533178  42.1745909 119.2786074  46.3866612
  30.1134442 112.4057180  39.6428692  29.3165605 112.5175874  40.1612188
  29.8860034 112.7443832  38.7769582  35.9440110 118.9301883  47.5911207
  36.0084542 119.3922290  48.4269378  35.2351034 118.2999248  47.7193516
  26.4457400 112.2943091  45.1160206  26.6965438 113.1790101  45.3817782
  26.9816948 112.1147692  44.3435298  50.2689499 115.7256588  41.7835468
  49.5153208 115.1563986  41.6279472  50.4037040 115.6919253  42.7306102
  35.6588127 120.5969990  37.4590187  35.5233802 121.4421526  37.8875035
  36.1997940 120.7989268  36.6956121  32.1455467 106.6761570  54.1204542
  31.7522413 106.1227769  54.7952186  32.9621607 106.9872149  54.5111060
  29.1117525 118.1145428  38.0318112  29.6242045 118.9088679  38.1823677
  29.7640238 117.4171719  37.9651713  30.9212409 121.2311185  40.1140865
  31.0979038 122.1529149  39.9261849  31.7169243 120.9169604  40.5435245
  35.0623428 108.0919449  51.7124799  35.8033141 108.6926602  51.6329261
  35.2941351 107.3497087  51.1542841  30.2064766 113.2775817  49.9903028
  30.0918281 112.3761074  50.2910127  29.3509284 113.5239513  49.6387845
  37.2856604 121.2193557  51.5890529  36.8420458 120.4329935  51.2711433
  37.9473817 121.4072707  50.9234420  32.0443725 122.7489358  46.1151207
  32.5951150 122.6206422  45.3428201  31.2055201 123.0484247  45.7646100
  39.3837842 121.4996357  49.6171930  39.3656317 122.3205238  49.1252199
  40.3057762 121.3750432  49.8422071  35.8410896 119.0140486  50.4595439
  36.3739233 118.2528774  50.2294747  35.3124977 118.7214138  51.2019593
  39.0080591 104.1200552  45.9889080  38.6644860 105.0102194  45.9128191
  39.3759554 103.9302210  45.1258665  27.0766442 116.4434083  38.8077683
  27.9141664 116.8531091  38.5911390  27.2544709 115.5033525  38.7777876
  38.9730874 114.1109163  34.4961515  38.4577497 114.8813768  34.7349903
  38.7008182 113.4374299  35.1194577  36.5577985 108.9558864  39.5546754
  35.7019581 108.5665715  39.3752393  36.9704936 109.0350825  38.6946539
  38.0877131 106.4905207  43.9538314  37.5841927 106.4535343  43.1406119
  38.3807738 107.3997950  44.0134970  34.3320017 106.5743937  42.9604495
  35.1973014 106.3786746  42.6010385  34.3997526 106.3454289  43.8873852
  43.9465148 116.8641518  36.4314689  43.1694591 116.5252677  35.9869851
  44.6256629 116.8694141  35.7569654  38.7617177 111.9836255  36.3221297
  38.4567312 112.2982405  37.1731440  39.7147619 112.0617675  36.3648630
  37.2063609 118.1426479  37.9714251  36.6784970 117.4079238  37.6587488
  36.7051111 118.9201155  37.7254219  42.1856455 116.3375499  43.0881297
  41.5280129 117.0274761  43.1761426  42.9896854 116.7271931  43.4315283
  31.9382336 108.8046145  40.3320862  32.5126088 108.5821327  39.5994055
  32.5253319 108.8734840  41.0849463  40.9961913 114.6919872  41.1385239
  41.5093795 115.3249864  41.6406948  41.6463137 114.0921067  40.7728599
  32.2651923 110.8350606  34.3516747  31.4289236 111.1725293  34.6726022
  32.1256693 110.6999586  33.4143884  34.2405004 105.6787394  39.0595932
  33.5869416 105.3636411  38.4352546  34.1985478 105.0563134  39.7855755
  35.3516209 115.9606689  30.9749224  34.4443271 115.7295942  31.1740373
  35.8487241 115.1644308  31.1623205  38.2584288 124.6704196  33.8945910
  37.5845986 124.9735893  34.5030868  38.6450110 125.4733277  33.5451367
  37.4742744 112.1669327  43.3843579  36.5565306 112.3884274  43.2265267
  37.8902888 112.2415638  42.5255287  38.2577792 113.5660743  38.5146259
  39.0049611 114.0782140  38.2053382  38.5269382 113.2444796  39.3750653
  36.5304442 116.0619284  35.4973214  35.6215662 115.7778317  35.5945683
  36.5599526 116.4818362  34.6376521  41.7623710 119.6725873  39.2664381
  41.3086037 118.8316783  39.3229572  41.1317676 120.3087272  39.6039161
  40.7056629 110.6017859  40.4965049  39.9679386 110.0895246  40.8275291
  40.9583403 110.1618241  39.6848326  40.2056649 121.5102370  40.2014199
  40.4979623 122.0707427  39.4826565  40.7155269 121.8030931  40.9567359
  40.8068257 103.3794111  41.0906818  41.1127133 102.5191475  40.8032733
  41.5320861 103.9711732  40.8905812  27.0992613 113.7824798  39.4788416
  26.9017012 113.1894159  38.7539483  26.5439277 113.4777008  40.1964355
  35.0789336 113.6747904  41.5983009  35.1337946 112.7221741  41.5225486
  34.2680538 113.8307344  42.0824308  36.2280530 117.6028028  32.8361292
  35.7899960 116.8863886  32.3766930  36.9690971 117.8304142  32.2746384
  33.0181696 112.2924964  39.3573388  32.2049562 112.5919135  39.7638580
  33.5140690 111.8980653  40.0747870  35.1690274 122.2882721  41.2907653
  35.1266453 122.5143567  40.3616185  36.0852973 122.0546096  41.4393454
  38.6155908 112.7566789  48.1888282  38.9705296 112.9838262  49.0482748
  39.2628039 113.0885165  47.5665537  44.3453645 115.8785225  38.8937611
  44.2071543 116.0686821  37.9658800  43.9889864 116.6404607  39.3505662
  32.5095771 109.8643320  44.9734623  33.1495150 109.7232079  44.2757586
  31.6773302 109.5777833  44.5973225  44.3723024 117.9461752  43.9048882
  44.8059531 117.8537041  44.7531936  45.0854605 117.9219252  43.2668898
  33.2856075 119.1645750  41.0869615  34.0796673 118.6696070  40.8852190
  32.5747767 118.6363613  40.7237321  38.1050919 121.5463846  45.4381983
  38.1587942 122.1154782  46.2059699  37.2365701 121.7165731  45.0736020
  29.5938838 113.3088832  37.1629368  28.6636426 113.2473287  37.3799330
  29.6896310 112.7864785  36.3666009  29.5124387 109.8343645  39.7507610
  29.7731205 110.7488978  39.6416770  30.3341560 109.3668087  39.9004223
  30.9849313 111.2481402  46.9206434  31.6572366 111.0398764  46.2719083
  30.1579099 111.0503488  46.4811667  45.2338574 117.9885452  46.4381768
  45.4274464 118.8931263  46.6841043  45.1339192 117.5292871  47.2720353
  36.8874885 107.8743343  48.9372095  36.2402800 108.5733292  48.8436572
  37.6575900 108.3079487  49.3048343  40.2953683 118.1392195  52.0122648
  40.1439189 117.9102747  51.0952732  40.2858362 119.0962796  52.0253993
  37.0639019 115.7124108  46.9968915  37.9931079 115.8635267  46.8237882
  36.6430049 115.8008129  46.1417561  35.8627351 119.7374772  44.7667452
  35.7238437 119.3693557  45.6393391  35.0741947 120.2522412  44.5951410
  36.4575503 124.8383869  36.1092989  36.6327259 124.3671912  36.9238612
  35.7708291 125.4649635  36.3374250  37.4132566 119.1156375  42.1556290
  37.0782399 119.0757145  43.0513940  36.9136512 118.4501091  41.6826700
  31.3876810 114.5224005  47.6808871  31.2496608 113.7904244  48.2820410
  32.2981733 114.4332905  47.3993059  40.3491758 116.4612409  32.4293350
  39.7320928 115.7359237  32.3326403  39.8808246 117.2221769  32.0860424
  34.0159111 114.2343964  47.1692551  34.7258729 113.5937156  47.1279169
  33.9728419 114.4856859  48.0918732  42.0045889 121.1711318  50.0899130
  41.9458435 120.4870538  49.4229713  42.4065408 121.9130308  49.6379756
  32.7288045 111.2209182  48.9888191  32.1925402 110.7699921  49.6409787
  32.1404753 111.3555091  48.2458655  32.1390304 110.6797834  31.5514654
  31.2619770 110.5586634  31.1876901  32.6148057 109.8883912  31.2993543
  42.0063297 119.1350901  48.3213110  41.1190075 118.7976823  48.4439509
  42.5761848 118.4033933  48.5581875  23.6592444 115.4674993  41.6456161
  24.3463484 115.1536723  41.0577177  23.5040572 116.3716358  41.3723413
  28.4627166 110.3565190  46.0741185  28.3785355 109.7490859  45.3391595
  27.6409872 110.8474208  46.0750681  35.5364450 123.7952354  45.2874353
  35.4634621 124.6007325  45.7993658  35.0941843 123.9944320  44.4622375
  35.3254230 123.0324124  38.7977175  34.5421752 123.5745804  38.8915399
  36.0246975 123.5498104  39.1971416  38.6350880 108.8418753  41.4411380
  39.1319579 108.0888716  41.1212450  37.8637861 108.8783070  40.8754589
  46.4880637 114.5459119  43.0829672  46.4770513 115.4283834  42.7123605
  45.6198017 114.1930670  42.8884209  37.9963134 123.6939188  47.4432512
  38.7091106 124.3286653  47.3708413  37.5053162 123.7903054  46.6272514
  39.7180660 117.5990441  39.0149803  38.7836939 117.7191903  38.8454508
  39.8957329 116.6962907  38.7509813  35.2185848 110.9836136  41.1683065
  34.8483636 110.4307177  41.8563970  35.7144941 110.3794270  40.6158065
  43.1053212 113.4407760  39.5499838  43.5713664 114.2735751  39.4760140
  43.5560712 112.9752741  40.2545096  33.0475047 121.4433631  48.2638083
  33.7484507 122.0770114  48.4167477  32.5770162 121.7848363  47.5033722
  41.1729443 119.7851581  36.5485990  41.4489287 119.6708176  37.4579864
  40.3033942 119.3869066  36.5098163  41.0769875 105.8088347  43.5890739
  40.1632954 106.0392574  43.7572946  41.5062976 105.8926791  44.4404771
  40.8476333 113.9978239  46.0890633  40.1947783 114.2454146  45.4343086
  41.2256713 113.1842377  45.7553110  37.8083507 124.0337932  40.1918803
  37.9905901 123.2159588  40.6546556  38.6316493 124.2505624  39.7543693
  38.1425672 122.9606117  37.4533852  38.6713439 122.4498572  36.8404014
  38.4053892 122.6448647  38.3179385  36.8963906 114.7398050  52.5756670
  36.2204543 114.6392179  53.2459045  37.7191540 114.5837264  53.0392667
  28.6442765 120.9769986  45.1969185  29.2296202 120.2313674  45.3297090
  28.4467604 121.2873943  46.0805849  31.4981420 124.0121234  40.2131628
  30.8291796 124.4967361  39.7295668  31.3594290 124.2590454  41.1275006
  23.2360420 113.5475587  43.9173628  23.2744519 113.0139177  44.7110747
  22.7300713 113.0210792  43.2984606  35.6386689 126.0464977  46.8114286
  36.1904997 126.2096599  47.5763371  35.9792882 126.6369415  46.1394311
  30.6151182 108.3940127  47.4136171  30.6792509 109.2554958  47.0013568
  30.5518302 107.7814129  46.6808529  30.0903455 110.4663260  51.0609205
  30.7175493 110.0840337  51.6746729  29.2331374 110.2477462  51.4264898
  40.4897563 120.8726235  52.6662940  41.0337467 121.4856193  52.1717895
  39.9084408 121.4305813  53.1829953  26.8668997 112.2739689  36.9927560
  27.1622439 111.3650367  36.9394614  25.9657033 112.2527428  36.6708562
  38.7755076 123.9946953  43.7977968  38.6506216 123.1936693  43.2888914
  39.4334167 124.4893146  43.3091938  30.3963244 110.3495685  42.9755108
  29.6749830 110.9631653  42.8362582  31.1856500 110.8853450  42.8971754
  40.8389985 121.7955973  45.4257518  39.8920320 121.6761324  45.3535845
  41.1872758 120.9078471  45.5083780  33.1989558 107.6850112  49.2495760
  33.7223960 107.9312408  50.0122070  32.9801891 108.5170147  48.8298898
  28.5956839 109.9553786  37.1166885  28.2669545 109.0751165  36.9341991
  28.9496210 109.9001455  38.0043274  37.8436418 121.5908689  41.6261871
  37.6961380 120.6625397  41.8069441  38.6689911 121.6128780  41.1418946
  31.7098662 110.2426756  37.4842363  32.0494735 110.7712677  36.7620971
  32.1570783 110.5807162  38.2600929  41.4470540 122.4137248  42.7126743
  42.3717087 122.2080109  42.5751194  41.2785843 122.1653649  43.6216085
  34.4042103 108.6263807  46.9345431  34.0638923 107.8271620  47.3366111
  33.6981109 108.9265518  46.3622264  35.0558575 105.7113119  45.3872754
  35.8784644 105.2373598  45.2651644  35.2996638 106.4903603  45.8871440
  33.6966809 108.7401378  35.6835655  34.4175172 109.1182631  35.1799372
  33.0732113 109.4590255  35.7870633  37.8397932 109.4446527  36.6193988
  38.0561547 110.3271165  36.3182816  37.3591999 109.0532740  35.8899630
  32.5797154 112.4032240  43.1964732  32.4341734 112.7172543  44.0889014
  32.1022357 113.0217140  42.6435631  34.4393536 109.3934788  43.2445622
  34.4255105 108.4975881  42.9077920  35.1565965 109.4005452  43.8783908
  36.2919667 109.8272128  45.2898749  36.0337445 110.7489199  45.2883080
  35.7604708 109.4302563  45.9799213  41.2365856 122.9322915  38.0688835
  41.4102733 122.3669338  37.3162687  41.7294747 123.7323810  37.8868325
  27.0542816 114.9437584  46.1352394  26.5096284 115.7197392  46.2672668
  27.9322166 115.2908389  45.9771515  33.8430432 108.2749168  38.5133192
  33.9646344 107.3465814  38.7124080  33.5532475 108.2887854  37.6011507
  36.7121623 105.9604079  41.6499912  36.7343320 106.0243412  40.6951891
  37.1289682 105.1208587  41.8440418  47.0905247 115.6959338  39.6879134
  47.5336393 114.9466663  39.2898258  46.2131757 115.6869475  39.3052866
  42.2241028 122.2489680  35.1685733  42.9191933 122.8696372  35.3873048
  42.5664179 121.3985031  35.4438111  27.8408838 114.0707481  49.0282550
  27.0990574 114.2190116  49.6147181  27.5201582 114.3315746  48.1649300
  44.1232452 119.6989385  36.6973064  44.6483776 120.0376658  35.9722384
  44.0354804 118.7636401  36.5136198  35.7852500 123.6123459  48.8262940
  36.0939627 123.3672606  49.6985640  36.5827982 123.8170097  48.3381811
  35.8073112 125.7661369  41.0568317  35.3678103 125.2737747  41.7501174
  36.5581229 125.2234336  40.8160392  28.2865451 121.9572909  41.0592945
  29.1123471 121.6576681  40.6791589  27.9359503 121.1880532  41.5082734
  33.2546984 121.3099378  43.1290619  32.6326994 120.6470083  42.8292847
  33.9251851 121.3360509  42.4464266  26.4874056 119.8759236  42.0181879
  25.6505965 119.4481410  41.8365880  26.4597702 120.0691679  42.9552670
  33.3271512 109.7881166  52.7223125  33.3759667 110.6643288  52.3400894
  33.8694026 109.2458559  52.1494768  43.8126358 120.3322289  52.0024262
  43.0221901 120.3146428  51.4628761  43.5759712 120.8710583  52.7573298
  43.9324233 117.1814755  49.3156990  43.9822238 117.0164763  50.2572513
  43.8238156 116.3142014  48.9254871  32.8160491 119.8603301  36.6049079
  32.9648612 120.5438765  35.9515752  33.6226935 119.8408391  37.1198535
  41.2227995 113.1645683  50.6316297  42.1237858 113.0252148  50.3400295
  41.2975970 113.3300138  51.5714474  35.5570800 110.5412538  49.4769483
  34.6874110 110.8346104  49.2052072  35.7930281 111.1252983  50.1976747
  45.4342429 119.6011697  49.5599012  45.1427238 119.9641677  50.3962473
  44.8214561 118.8878705  49.3812344  46.6338112 117.1664577  42.0801582
  47.4685003 117.6054381  42.2439142  46.7697241 116.6903230  41.2609828
  43.6829618 114.7244311  48.0279070  44.1583739 114.9171958  47.2197921
  42.7595183 114.7803497  47.7822453  30.5713124 115.8868479  37.6110148
  30.3259166 114.9830809  37.8090358  30.7409039 115.8885629  36.6689626
  38.2609834 106.7592155  46.9934904  38.7791778 107.4953182  46.6681392
  37.9064967 107.0656148  47.8281663  29.8408772 111.6196836  35.1096310
  29.1478017 111.6941191  34.4536346  29.5960524 110.8557180  35.6317826
  38.5122428 103.1792437  42.5135800  38.7924182 102.5115627  43.1396227
  39.2973035 103.3721533  42.0010464  36.3155897 122.3551431  34.0760827
  35.7429864 122.9741619  33.6231298  36.8888691 122.9050793  34.6100749
  42.3831287 111.6010071  46.2607375  43.3348710 111.7008169  46.2819599
  42.2134737 110.8088340  46.7705460  40.4045666 108.6865655  46.4466776
  39.8095598 108.9670667  45.7513265  40.1195363 109.1759556  47.2183517
  39.5353157 122.6388582  35.2069409  40.4683830 122.5734143  35.4102284
  39.4476369 123.4744848  34.7483942  42.1641173 121.9554452  32.1673356
  42.0854805 121.6214315  33.0609114  42.9850840 122.4476220  32.1664829
  44.8619365 114.8216191  45.3749675  44.8295685 113.8832192  45.5609359
  45.4719988 114.9000228  44.6415500  36.7002695 113.6912244  31.4176879
  37.6461800 113.5618452  31.4865297  36.3216940 112.9526906  31.8946307
  45.0113853 111.6127235  45.4207958  44.4952902 110.8285691  45.2337887
  45.8953802 111.2845951  45.5854478  42.6724580 105.3568250  41.3803771
  42.4749401 105.0483338  42.2647103  43.2824286 106.0829889  41.5101701
  50.6795914 115.8832198  44.5155712  51.4099303 115.6217486  45.0763415
  50.0702860 115.1460920  44.5557780  48.7611211 114.0240061  45.1130163
  48.0344375 113.8896026  44.5046655  48.3458498 114.3316889  45.9186881
  36.5841388 117.7429990  52.8777536  37.5044397 117.9208589  53.0717583
  36.5490971 116.7986036  52.7257235  34.8845613 111.6162221  31.3531764
  33.9777068 111.3195333  31.4294478  35.1621594 111.3192039  30.4866051
  25.8023553 112.9368584  41.8030811  25.4826337 112.0833892  41.5105185
  25.2556981 113.1517162  42.5588778  29.5803460 115.6531025  45.5200317
  29.7989470 116.5848133  45.5388351  29.9929234 115.2938999  46.3055121
  36.5007678 106.1599110  37.5076006  35.6908407 105.8146195  37.8831252
  37.1892095 105.8506654  38.0963617  38.4298227 105.2377157  39.1300302
  38.9829265 105.6572610  39.7890325  38.6668313 104.3112905  39.1723258
  34.4531326 111.2264231  54.9103066  34.3528053 112.1758588  54.8415157
  34.2352868 110.8982470  54.0379136  33.6544397 108.4749156  31.4943744
  34.5163561 108.8004054  31.7539561  33.8394741 107.6880652  30.9816809
  25.6711813 116.5571495  43.7723932  24.9775284 116.1425448  43.2593887
  26.4184804 116.5992032  43.1757351  41.8077034 107.3477682  38.6378967
  41.2275703 108.0062486  38.2557019  41.5412966 106.5255027  38.2266384
  40.2580600 106.7482740  40.8400287  40.7580378 106.8599274  40.0314606
  40.9016208 106.4443793  41.4801095  34.3162596 114.6561370  53.7268128
  33.8329678 115.4561730  53.9332017  34.4023535 114.6669314  52.7735572
  27.5848555 116.4889749  41.6489947  27.5619244 116.5877436  40.6971830
  27.8949192 117.3354900  41.9707113  30.2435933 118.5465904  45.7636562
  31.1979187 118.5149847  45.6966493  30.0448457 118.0856528  46.5786788
  30.8335315 117.1167020  48.3307359  31.6528204 117.6111099  48.3542197
  31.1072123 116.1998988  48.3024927  40.5901912 109.5077773  37.6935315
  39.7027767 109.7927423  37.4755510  41.0055901 109.3471536  36.8462592
  43.9416448 109.5324294  41.4089654  44.7176838 110.0220746  41.6814271
  43.2164582 109.9582348  41.8661524  46.3789006 110.2451913  42.4663595
  46.9733497 110.0047649  41.7556903  46.4515590 109.5259043  43.0937131
  28.5986162 124.0885524  42.7806759  28.4640630 123.3285925  42.2144758
  28.1818224 124.8126424  42.3135548  39.7345125 119.2722447  31.7883335
  40.4380975 119.4772450  32.4040990  39.0107774 119.8399209  32.0532418
  40.5642935 115.0232309  37.9085605  40.5078137 115.4800860  37.0693237
  41.1171278 114.2622993  37.7308448  44.3747741 110.8122040  38.7335724
  44.1184676 110.4118676  39.5643932  43.7500609 111.5265834  38.6085864
  48.6860079 113.5518114  41.2407016  48.1259637 113.6211303  42.0138578
  48.0803583 113.3759098  40.5206512  31.7555288 124.9854841  42.9925202
  31.6387672 125.9300273  42.8903892  30.9347734 124.6828402  43.3811001
  41.6431823 119.7104976  33.8381795  42.4777426 119.2786175  33.6559270
  41.4816165 119.5386990  34.7658689  41.2977715 116.2137090  35.2038134
  41.2426519 116.0481361  34.2626578  40.6723770 116.9213123  35.3600324
  26.0870230 111.4505154  49.0299556  26.7329093 110.9404108  49.5186782
  25.8787381 112.1873836  49.6042982  38.6123622 118.5186002  54.5291697
  39.4814782 118.6926654  54.1678332  38.1330373 119.3380418  54.4067426
  34.6073840 105.7145199  34.7823453  34.5952510 106.6587039  34.9391723
  35.4997262 105.5315344  34.4882914  32.7809802 125.6383103  46.2081131
  33.6837049 125.6706713  46.5247626  32.5547172 124.7083554  46.2227466
  34.5363404 124.3914089  42.8691209  33.5859035 124.3915951  42.7555581
  34.8395890 123.6446824  42.3527244  38.4225960 102.3087975  39.0369389
  37.6558355 101.7546462  39.1826072  38.8336665 102.3809844  39.8983541
  30.4267721 108.5972771  53.1274571  31.2899182 108.2409576  53.3377895
  29.8533131 108.2586666  53.8149975  50.2716098 130.2274628  43.9336972
  50.9094508 130.1081375  43.2300312  50.1536941 131.1755472  43.9924924
  47.0805804 130.1802056  43.8698496  46.7424315 130.0643120  42.9819031
  47.9495572 129.7793221  43.8499502  42.9392620 132.0337532  39.8595387
  42.3757485 131.9427469  39.0911675  42.8245015 131.2137437  40.3397880
  47.5625587 131.3336907  49.8284702  47.5514228 130.9389706  48.9565205
  47.7246226 130.6002980  50.4218473  45.2089055 131.4950868  45.3665245
  45.8052627 131.2706890  44.6522208  45.2664026 130.7535613  45.9690693
  44.7814083 128.9490303  33.2015436  45.0339604 128.4271824  32.4398899
  43.8438642 128.7856449  33.3042120  49.8257366 127.9526081  41.0090180
  50.6120455 127.5345505  40.6580597  50.0896070 128.8572174  41.1771828
  49.9967443 133.3898932  35.7078836  49.3613276 133.4633558  36.4199741
  49.6664850 133.9792531  35.0297916  55.2265793 127.8901315  41.9123158
  55.9590965 127.3200531  42.1460988  54.4705149 127.5022915  42.3529664
  44.5010372 130.8518409  35.4039811  44.3846630 130.1763312  36.0720896
  44.6112632 130.3650783  34.5871964  46.8441913 130.3128556  39.1086501
  46.4800120 129.7859177  39.8199422  47.7009029 129.9227025  38.9352986
  52.7491214 121.6022889  46.3717767  52.4174538 122.4718300  46.1478982
  52.1536827 121.2859173  47.0511797  46.4847400 125.3418456  34.1047849
  46.6521802 126.2098692  34.4718320  46.2944569 125.5045738  33.1809138
  49.2422733 133.8035435  45.7713679  48.9423456 134.7060474  45.6629487
  48.8973793 133.5367618  46.6234832  42.6935215 130.2549232  41.8050384
  41.7685711 130.1225446  42.0128076  42.9419628 131.0343451  42.3020326
  52.6419877 126.3217975  43.4511117  51.7336754 126.2533383  43.1569878
  52.5907473 126.7989920  44.2792942  46.4636621 127.7976113  35.0894516
  46.3436246 128.2433164  35.9279996  45.7689209 128.1461431  34.5308054
  40.0544026 129.8982505  42.6394173  40.1836407 130.1516984  43.5533585
  39.3741477 130.4910213  42.3198828  46.7160743 127.7407620  51.3946014
  45.9394077 128.3001541  51.3848879  47.3551306 128.2264403  51.9160884
  54.5081523 124.5234413  45.2288991  53.8655904 124.8166946  44.5828785
  54.0036452 124.4087334  46.0342187  52.1621687 128.2697586  35.9174850
  53.0739543 128.5024973  35.7422548  51.6531334 128.8534631  35.3549929
  44.9707115 130.5493074  50.9563981  45.7121799 131.0878118  50.6798805
  44.2644100 131.1759363  51.1135533  50.4462455 132.6922214  49.5536143
  50.8545811 132.2504625  48.8090775  49.7239716 132.1174842  49.8070335
  46.7993525 127.6294821  46.9269699  47.6454720 128.0534235  47.0704348
  46.7392162 126.9728445  47.6208263  50.7691269 133.2523405  43.3088431
  50.1400132 133.4169119  42.6064499  50.3816931 133.6665014  44.0799395
  54.6480501 134.1877843  40.6632795  53.9631539 134.5676744  40.1129829
  54.7324350 134.7973169  41.3964743  49.9492970 125.2899189  48.5850873
  49.7053902 126.0441250  48.0485149  50.2252901 125.6684537  49.4198120
  51.9031433 131.8337802  47.2628139  52.1148328 132.4769562  46.5862520
  51.8561181 131.0000118  46.7950069  49.5057662 124.4455622  44.1664711
  48.6442141 124.7436876  44.4581448  49.5320096 124.6626021  43.2345743
  46.3219231 132.9897813  40.5738517  46.7857577 133.2685516  39.7843139
  46.0576029 132.0881258  40.3911607  45.2588117 129.1120965  37.3828082
  45.9612161 129.5642009  37.8502008  44.9268746 128.4704784  38.0107975
  43.7068479 127.7032722  51.7579291  43.0767139 128.3849003  51.9914688
  43.6004567 127.5915804  50.8132429  39.0013451 127.3704518  42.6845215
  38.2112505 127.6262047  42.2085326  39.4924699 128.1852856  42.7897256
  53.0177261 134.7109757  45.4350496  53.8394704 134.3089945  45.1533178
  53.0139664 134.6077991  46.3866612  40.9528197 127.7349097  39.6428692
  40.1559360 127.8467792  40.1612188  40.7253789 128.0735750  38.7769582
  37.2851154 127.6235009  45.1160206  37.5359193 128.5082018  45.3817782
  37.8210703 127.4439610  44.3435298  61.1083254 131.0548506  41.7835468
  60.3546962 130.4855904  41.6279472  61.2430795 131.0211170  42.7306102
  42.9849221 122.0053488  54.1204542  42.5916167 121.4519686  54.7952186
  43.8015362 122.3164066  54.5111060  45.9017182 123.4211367  51.7124799
  46.6426896 124.0218520  51.6329261  46.1335105 122.6789005  51.1542841
  41.0458520 128.6067734  49.9903028  40.9312036 127.7052991  50.2910127
  40.1903038 128.8531431  49.6387845  49.8474345 119.4492470  45.9889080
  49.5038615 120.3394112  45.9128191  50.2153308 119.2594128  45.1258665
  49.8124628 129.4401081  34.4961515  49.2971252 130.2105686  34.7349903
  49.5401937 128.7666217  35.1194577  47.3971739 124.2850782  39.5546754
  46.5413335 123.8957632  39.3752393  47.8098691 124.3642743  38.6946539
  48.9270886 121.8197125  43.9538314  48.4235681 121.7827260  43.1406119
  49.2201493 122.7289868  44.0134970  45.1713772 121.9035855  42.9604495
  46.0366768 121.7078663  42.6010385  45.2391281 121.6746207  43.8873852
  54.7858902 132.1933436  36.4314689  54.0088345 131.8544595  35.9869851
  55.4650383 132.1986059  35.7569654  49.6010931 127.3128173  36.3221297
  49.2961067 127.6274322  37.1731440  50.5541373 127.3909593  36.3648630
  53.0250209 131.6667417  43.0881297  52.3673884 132.3566678  43.1761426
  53.8290608 132.0563849  43.4315283  42.7776091 124.1338063  40.3320862
  43.3519843 123.9113244  39.5994055  43.3647073 124.2026757  41.0849463
  51.8355668 130.0211790  41.1385239  52.3487550 130.6541781  41.6406948
  52.4856892 129.4212985  40.7728599  43.1045678 126.1642524  34.3516747
  42.2682990 126.5017210  34.6726022  42.9650448 126.0291504  33.4143884
  45.0798758 121.0079312  39.0595932  44.4263171 120.6928329  38.4352546
  45.0379233 120.3855052  39.7855755  46.1909963 131.2898607  30.9749224
  45.2837025 131.0587860  31.1740373  46.6880995 130.4936226  31.1623205
  48.3136499 127.4961245  43.3843579  47.3959060 127.7176192  43.2265267
  48.7296642 127.5707556  42.5255287  49.0971547 128.8952661  38.5146259
  49.8443366 129.4074058  38.2053382  49.3663136 128.5736714  39.3750653
  47.3698197 131.3911202  35.4973214  46.4609416 131.1070234  35.5945683
  47.3993281 131.8110280  34.6376521  52.6017464 135.0017791  39.2664381
  52.1479791 134.1608701  39.3229572  51.9711431 135.6379189  39.6039161
  51.5450384 125.9309777  40.4965049  50.8073141 125.4187163  40.8275291
  51.7977157 125.4910159  39.6848326  51.6462011 118.7086029  41.0906818
  51.9520888 117.8483393  40.8032733  52.3714616 119.3003649  40.8905812
  37.9386367 129.1116716  39.4788416  37.7410767 128.5186076  38.7539483
  37.3833031 128.8068926  40.1964355  45.9183091 129.0039822  41.5983009
  45.9731701 128.0513659  41.5225486  45.1074293 129.1599261  42.0824308
  47.0674285 132.9319945  32.8361292  46.6293714 132.2155804  32.3766930
  47.8084725 133.1596060  32.2746384  43.8575451 127.6216882  39.3573388
  43.0443316 127.9211052  39.7638580  44.3534445 127.2272571  40.0747870
  49.4549662 128.0858706  48.1888282  49.8099050 128.3130180  49.0482748
  50.1021794 128.4177083  47.5665537  55.1847399 131.2077142  38.8937611
  55.0465298 131.3978738  37.9658800  54.8283618 131.9696525  39.3505662
  43.3489525 125.1935237  44.9734623  43.9888905 125.0523997  44.2757586
  42.5167056 124.9069751  44.5973225  55.2116779 133.2753669  43.9048882
  55.6453286 133.1828958  44.7531936  55.9248360 133.2511170  43.2668898
  40.4332593 128.6380750  37.1629368  39.5030181 128.5765205  37.3799330
  40.5290065 128.1156702  36.3666009  40.3518142 125.1635562  39.7507610
  40.6124959 126.0780896  39.6416770  41.1735314 124.6960005  39.9004223
  41.8243067 126.5773320  46.9206434  42.4966121 126.3690682  46.2719083
  40.9972854 126.3795406  46.4811667  56.0732329 133.3177370  46.4381768
  56.2668219 134.2223180  46.6841043  55.9732947 132.8584789  47.2720353
  47.7268639 123.2035261  48.9372095  47.0796554 123.9025210  48.8436572
  48.4969655 123.6371404  49.3048343  51.1347437 133.4684113  52.0122648
  50.9832944 133.2394664  51.0952732  51.1252117 134.4254714  52.0253993
  47.9032774 131.0416025  46.9968915  48.8324834 131.1927185  46.8237882
  47.4823804 131.1300046  46.1417561  42.2270564 129.8515923  47.6808871
  42.0890362 129.1196161  48.2820410  43.1375488 129.7624823  47.3993059
  51.1885512 131.7904327  32.4293350  50.5714683 131.0651155  32.3326403
  50.7202001 132.5513687  32.0860424  44.8552865 129.5635882  47.1692551
  45.5652484 128.9229074  47.1279169  44.8122173 129.8148777  48.0918732
  43.5681799 126.5501100  48.9888191  43.0319156 126.0991838  49.6409787
  42.9798508 126.6847009  48.2458655  42.9784058 126.0089751  31.5514654
  42.1013524 125.8878552  31.1876901  43.4541811 125.2175829  31.2993543
  52.8457051 134.4642819  48.3213110  51.9583830 134.1268741  48.4439509
  53.4155602 133.7325850  48.5581875  39.3020920 125.6857107  46.0741185
  39.2179109 125.0782777  45.3391595  38.4803627 126.1766126  46.0750681
  49.4744634 124.1710671  41.4411380  49.9713334 123.4180633  41.1212450
  48.7031616 124.2074988  40.8754589  57.3274392 129.8751037  43.0829672
  57.3164268 130.7575752  42.7123605  56.4591771 129.5222587  42.8884209
  50.5574415 132.9282358  39.0149803  49.6230694 133.0483821  38.8454508
  50.7351083 132.0254825  38.7509813  46.0579603 126.3128054  41.1683065
  45.6877391 125.7599094  41.8563970  46.5538695 125.7086187  40.6158065
  53.9446966 128.7699677  39.5499838  54.4107418 129.6027669  39.4760140
  54.3954467 128.3044659  40.2545096  52.0123197 135.1143499  36.5485990
  52.2883041 135.0000093  37.4579864  51.1427696 134.7160984  36.5098163
  51.9163629 121.1380264  43.5890739  51.0026709 121.3684491  43.7572946
  52.3456730 121.2218709  44.4404771  51.6870088 129.3270156  46.0890633
  51.0341538 129.5746064  45.4343086  52.0650467 128.5134295  45.7553110
  47.7357661 130.0689968  52.5756670  47.0598298 129.9684097  53.2459045
  48.5585294 129.9129181  53.0392667  34.0754174 128.8767504  43.9173628
  34.1138274 128.3431095  44.7110747  33.5694467 128.3502710  43.2984606
  41.4544937 123.7232045  47.4136171  41.5186263 124.5846876  47.0013568
  41.3912057 123.1106046  46.6808529  40.9297209 125.7955177  51.0609205
  41.5569248 125.4132255  51.6746729  40.0725128 125.5769379  51.4264898
  37.7062752 127.6031606  36.9927560  38.0016193 126.6942285  36.9394614
  36.8050788 127.5819346  36.6708562  41.2356999 125.6787603  42.9755108
  40.5143585 126.2923571  42.8362582  42.0250255 126.2145368  42.8971754
  44.0383312 123.0142029  49.2495760  44.5617714 123.2604326  50.0122070
  43.8195646 123.8462064  48.8298898  39.4350594 125.2845704  37.1166885
  39.1063300 124.4043083  36.9341991  39.7889964 125.2293373  38.0043274
  42.5492417 125.5718674  37.4842363  42.8888489 126.1004595  36.7620971
  42.9964537 125.9099080  38.2600929  45.2435857 123.9555725  46.9345431
  44.9032678 123.1563538  47.3366111  44.5374864 124.2557435  46.3622264
  45.8952329 121.0405037  45.3872754  46.7178399 120.5665515  45.2651644
  46.1390393 121.8195521  45.8871440  44.5360564 124.0693295  35.6835655
  45.2568926 124.4474548  35.1799372  43.9125868 124.7882172  35.7870633
  48.6791687 124.7738444  36.6193988  48.8955301 125.6563082  36.3182816
  48.1985754 124.3824658  35.8899630  43.4190908 127.7324158  43.1964732
  43.2735489 128.0464461  44.0889014  42.9416112 128.3509058  42.6435631
  45.2787291 124.7226706  43.2445622  45.2648860 123.8267799  42.9077920
  45.9959719 124.7297369  43.8783908  47.1313422 125.1564046  45.2898749
  46.8731199 126.0781116  45.2883080  46.5998462 124.7594480  45.9799213
  44.6824187 123.6041086  38.5133192  44.8040098 122.6757732  38.7124080
  44.3926229 123.6179772  37.6011507  47.5515377 121.2895996  41.6499912
  47.5737074 121.3535329  40.6951891  47.9683436 120.4500505  41.8440418
  57.9299002 131.0251256  39.6879134  58.3730148 130.2758581  39.2898258
  57.0525512 131.0161392  39.3052866  38.6802592 129.3999398  49.0282550
  37.9384328 129.5482034  49.6147181  38.3595336 129.6607664  48.1649300
  54.9626206 135.0281303  36.6973064  55.4877530 135.3668576  35.9722384
  54.8748559 134.0928318  36.5136198  44.1665266 125.1173083  52.7223125
  44.2153422 125.9935206  52.3400894  44.7087781 124.5750476  52.1494768
  54.6520112 135.6614207  52.0024262  53.8615656 135.6438345  51.4628761
  54.4153467 136.2002500  52.7573298  54.7717987 132.5106673  49.3156990
  54.8215992 132.3456680  50.2572513  54.6631911 131.6433932  48.9254871
  52.0621750 128.4937601  50.6316297  52.9631612 128.3544066  50.3400295
  52.1369724 128.6592056  51.5714474  46.3964555 125.8704456  49.4769483
  45.5267864 126.1638022  49.2052072  46.6324035 126.4544901  50.1976747
  56.2736184 134.9303614  49.5599012  55.9820992 135.2933595  50.3962473
  55.6608315 134.2170623  49.3812344  57.4731866 132.4956494  42.0801582
  58.3078758 132.9346298  42.2439142  57.6090995 132.0195147  41.2609828
  54.5223372 130.0536229  48.0279070  54.9977494 130.2463875  47.2197921
  53.5988938 130.1095415  47.7822453  41.4106879 131.2160396  37.6110148
  41.1652921 130.3122726  37.8090358  41.5802793 131.2177547  36.6689626
  49.1003589 122.0884073  46.9934904  49.6185533 122.8245100  46.6681392
  48.7458721 122.3948066  47.8281663  40.6802526 126.9488754  35.1096310
  39.9871771 127.0233109  34.4536346  40.4354278 126.1849097  35.6317826
  49.3516183 118.5084355  42.5135800  49.6317937 117.8407544  43.1396227
  50.1366790 118.7013451  42.0010464  53.2225041 126.9301989  46.2607375
  54.1742464 127.0300087  46.2819599  53.0528492 126.1380258  46.7705460
  51.2439421 124.0157572  46.4466776  50.6489353 124.2962585  45.7513265
  50.9589117 124.5051473  47.2183517  55.7013119 130.1508109  45.3749675
  55.6689439 129.2124110  45.5609359  56.3113743 130.2292146  44.6415500
  47.5396450 129.0204162  31.4176879  48.4855555 128.8910370  31.4865297
  47.1610695 128.2818824  31.8946307  55.8507607 126.9419152  45.4207958
  55.3346656 126.1577609  45.2337887  56.7347556 126.6137869  45.5854478
  53.5118334 120.6860168  41.3803771  53.3143156 120.3775256  42.2647103
  54.1218040 121.4121807  41.5101701  61.5189669 131.2124116  44.5155712
  62.2493057 130.9509404  45.0763415  60.9096614 130.4752838  44.5557780
  59.6004966 129.3531978  45.1130163  58.8738130 129.2187943  44.5046655
  59.1852253 129.6608807  45.9186881  47.4235142 133.0721908  52.8777536
  48.3438152 133.2500507  53.0717583  47.3884725 132.1277953  52.7257235
  45.7239367 126.9454138  31.3531764  44.8170822 126.6487251  31.4294478
  46.0015348 126.6483956  30.4866051  36.6417307 128.2660502  41.8030811
  36.3220092 127.4125810  41.5105185  36.0950736 128.4809080  42.5588778
  47.3401433 121.4891028  37.5076006  46.5302161 121.1438113  37.8831252
  48.0285850 121.1798572  38.0963617  49.2691981 120.5669075  39.1300302
  49.8223020 120.9864528  39.7890325  49.5062067 119.6404823  39.1723258
  45.2925080 126.5556148  54.9103066  45.1921807 127.5050505  54.8415157
  45.0746622 126.2274387  54.0379136  44.4938152 123.8041073  31.4943744
  45.3557316 124.1295972  31.7539561  44.6788496 123.0172569  30.9816809
  52.6470788 122.6769600  38.6378967  52.0669457 123.3354404  38.2557019
  52.3806721 121.8546944  38.2266384  51.0974354 122.0774658  40.8400287
  51.5974133 122.1891192  40.0314606  51.7409962 121.7735710  41.4801095
  45.1556350 129.9853287  53.7268128  44.6723432 130.7853647  53.9332017
  45.2417289 129.9961232  52.7735572  51.4295666 124.8369690  37.6935315
  50.5421521 125.1219341  37.4755510  51.8449655 124.6763454  36.8462592
  54.7810202 124.8616211  41.4089654  55.5570592 125.3512664  41.6814271
  54.0558336 125.2874265  41.8661524  57.2182761 125.5743830  42.4663595
  57.8127252 125.3339566  41.7556903  57.2909345 124.8550961  43.0937131
  51.4036690 130.3524226  37.9085605  51.3471891 130.8092778  37.0693237
  51.9565032 129.5914911  37.7308448  55.2141496 126.1413958  38.7335724
  54.9578430 125.7410594  39.5643932  54.5894364 126.8557752  38.6085864
  59.5253834 128.8810031  41.2407016  58.9653392 128.9503221  42.0138578
  58.9197337 128.7051016  40.5206512  52.4825577 135.0396894  33.8381795
  53.3171181 134.6078093  33.6559270  52.3209920 134.8678908  34.7658689
  52.1371469 131.5429007  35.2038134  52.0820273 131.3773279  34.2626578
  51.5117524 132.2505040  35.3600324  36.9263984 126.7797072  49.0299556
  37.5722848 126.2696026  49.5186782  36.7181135 127.5165753  49.6042982
  49.4517376 133.8477919  54.5291697  50.3208536 134.0218572  54.1678332
  48.9724128 134.6672336  54.4067426  45.4467595 121.0437116  34.7823453
  45.4346264 121.9878956  34.9391723  46.3391017 120.8607262  34.4882914
  49.2619714 117.6379893  39.0369389  48.4952110 117.0838380  39.1826072
  49.6730419 117.7101762  39.8983541  41.2661475 123.9264689  53.1274571
  42.1292937 123.5701494  53.3377895  40.6926886 123.5878584  53.8149975
  63.5884968 136.9314806  46.3717767  63.2568293 137.8010217  46.1478982
  62.9930581 136.6151090  47.0511797  65.3475278 139.8526331  45.2288991
  64.7049658 140.1458864  44.5828785  64.8430206 139.7379251  46.0342187
  60.6868100 134.7784388  45.9889080  60.3432369 135.6686029  45.9128191
  61.0547062 134.5886045  45.1258665  59.7664640 137.1489043  43.9538314
  59.2629436 137.1119178  43.1406119  60.0595247 138.0581785  44.0134970
  55.9192513 136.3371229  39.0595932  55.2656925 136.0220246  38.4352546
  55.8772987 135.7146970  39.7855755  62.4855766 134.0377947  41.0906818
  62.7914642 133.1775310  40.8032733  63.2108370 134.6295567  40.8905812
  62.7557384 136.4672182  43.5890739  61.8420463 136.6976409  43.7572946
  63.1850485 136.5510626  44.4404771  56.7346084 136.3696955  45.3872754
  57.5572153 135.8957433  45.2651644  56.9784147 137.1487438  45.8871440
  58.3909132 136.6187914  41.6499912  58.4130829 136.6827247  40.6951891
  58.8077191 135.7792423  41.8440418  59.9397343 137.4175990  46.9934904
  60.4579287 138.1537017  46.6681392  59.5852476 137.7239984  47.8281663
  60.1909937 133.8376273  42.5135800  60.4711691 133.1699462  43.1396227
  60.9760544 134.0305368  42.0010464  64.3512089 136.0152086  41.3803771
  64.1536910 135.7067174  42.2647103  64.9611794 136.7413724  41.5101701
  58.1795187 136.8182946  37.5076006  57.3695916 136.4730031  37.8831252
  58.8679604 136.5090489  38.0963617  60.1085736 135.8960992  39.1300302
  60.6616774 136.3156446  39.7890325  60.3455822 134.9696741  39.1723258
  63.4864543 138.0061518  38.6378967  62.9063212 138.6646322  38.2557019
  63.2200475 137.1838862  38.2266384  61.9368109 137.4066575  40.8400287
  62.4367887 137.5183110  40.0314606  62.5803717 137.1027628  41.4801095
  68.0576515 140.9035748  42.4663595  68.6521006 140.6631484  41.7556903
  68.1303099 140.1842879  43.0937131  60.1013469 132.9671811  39.0369389
  59.3345864 132.4130297  39.1826072  60.5124174 133.0393680  39.8983541
   1.8763557  33.6779904  33.1627074   2.0699447  34.5825715  33.4086349
   1.7764175  33.2187323  33.9965659   0.5749216  32.8709207  36.0402297
   0.6247221  32.7059215  36.9817820   0.4663139  32.0036466  35.6500178
   2.0767413  35.2906149  36.2844318   1.7852221  35.6536129  37.1207779
   1.4639544  34.5773157  36.1057651   6.9141081  45.9169079  30.6582278
   7.5519491  45.7975827  29.9545618   6.7961924  46.8649923  30.7170230
   3.7230787  45.8696508  30.5943803   3.3849299  45.7537572  29.7064338
   4.5920555  45.4687673  30.5744809   4.2050570  47.0231359  36.5530008
   4.1939211  46.6284158  35.6810512   4.3671210  46.2897432  37.1463780
   5.1617162  51.3902952  21.8955159   4.5105141  51.9757032  21.5089173
   5.9561524  51.9209147  21.9550196   0.9257831  49.8068471  35.5009192
   0.6347697  50.7114102  35.3855859   1.5614816  49.8484999  36.2153262
   1.8514038  47.1845320  32.0910552   2.4477610  46.9601342  31.3767515
   1.9089010  46.4430065  32.6936000   6.4682349  43.6420533  27.7335486
   7.2545439  43.2239956  27.3825903   6.7321054  44.5466625  27.9017135
  11.8690777  43.5795767  28.6368465  12.6015948  43.0094983  28.8706294
  11.1130132  43.1917367  29.0774970   3.4866896  46.0023008  25.8331807
   3.1225103  45.4753629  26.5444729   4.3434012  45.6121477  25.6598293
   9.3916197  37.2917341  33.0963073   9.0599522  38.1612752  32.8724288
   8.7961810  36.9753625  33.7757104   5.8847716  49.4929887  32.4958986
   5.5848440  50.3954925  32.3874793   5.5398776  49.2262070  33.3480139
   9.2844860  42.0112427  30.1756423   8.3761738  41.9427835  29.8815184
   9.2332456  42.4884372  31.0038249   3.3585726  43.4302072  38.1191321
   2.5819060  43.9895993  38.1094185   3.9976289  43.9158855  38.6406191
  11.1506507  40.2128865  31.9534297  10.5080887  40.5061398  31.3074092
  10.6461435  40.0981786  32.7587494   1.6132098  46.2387526  37.6809288
   2.3546783  46.7772570  37.4044111   0.9069084  46.8653814  37.8380839
   7.0887438  48.3816666  36.2781449   7.4970794  47.9399077  35.5336082
   6.3664699  47.8069294  36.5315642   3.4418508  43.3189273  33.6515006
   4.2879703  43.7428687  33.7949655   3.3817146  42.6622897  34.3453569
   7.4116253  48.9417857  30.0333738   6.7825115  49.1063571  29.3309806
   7.0241915  49.3559466  30.8044702  11.2905484  49.8772295  27.3878102
  10.6056523  50.2571196  26.8375135  11.3749334  50.4867621  28.1210050
   6.5917953  40.9793641  35.3096180   6.3478885  41.7335702  34.7730455
   6.8677884  41.3578989  36.1443427   8.5456416  47.5232254  33.9873445
   8.7573311  48.1664014  33.3107826   8.4986164  46.6894570  33.5195375
   6.1482645  40.1350074  30.8910017   5.2867124  40.4331328  31.1826755
   6.1745080  40.3520473  29.9591050   2.9644214  48.6792265  27.2983823
   3.4282560  48.9579968  26.5088446   2.7001013  47.7775709  27.1156914
   9.6602244  50.4004209  32.1595803  10.4819688  49.9984396  31.8778484
   9.6564647  50.2972443  33.1111918   3.4258847  49.9488252  34.3156513
   3.4903280  50.4108660  35.1514685   2.7169771  49.3185617  34.4438823
  17.7508237  46.7442958  28.5080774  16.9971945  46.1750356  28.3524779
  17.8855778  46.7105622  29.4551409   3.1406865  51.6156360  24.1835494
   3.0052540  52.4607896  24.6120341   3.6816678  51.8175638  23.4201427
   2.5442166  39.1105819  38.4370105   3.2851879  39.7112972  38.3574568
   2.7760089  38.3683457  37.8788148   4.7675342  52.2379926  38.3135836
   4.3239196  51.4516305  37.9956740   5.4292555  52.4259077  37.6479726
   6.8656580  52.5182726  36.3417237   6.8475055  53.3391607  35.8497506
   7.7876500  52.3936802  36.5667378   3.3229634  50.0326856  37.1840745
   3.8557971  49.2715144  36.9540053   2.7943715  49.7400508  37.9264900
   6.4899329  35.1386922  32.7134387   6.1463598  36.0288563  32.6373498
   6.8578291  34.9488579  31.8503972   5.5695869  37.5091577  30.6783620
   5.0660665  37.4721712  29.8651426   5.8626476  38.4184320  30.7380277
  11.4283886  47.8827888  23.1559996  10.6513328  47.5439047  22.7115158
  12.1075367  47.8880511  22.4814961   4.6882346  49.1612848  24.6959557
   4.1603708  48.4265608  24.3832795   4.1869849  49.9387525  24.4499526
   9.6675192  47.3561869  29.8126604   9.0098867  48.0461130  29.9006732
  10.4715592  47.7458301  30.1560590   8.4780651  45.7106241  27.8630545
   8.9912533  46.3436233  28.3652255   9.1281875  45.1107437  27.4973905
   5.7403025  55.6890566  20.6191216   5.0664724  55.9922263  21.2276174
   6.1268847  56.4919646  20.2696674   4.9561482  43.1855697  30.1088886
   4.0384043  43.4070644  29.9510574   5.3721626  43.2602008  29.2500593
   5.7396530  44.5847113  25.2391566   6.4868349  45.0968510  24.9298688
   6.0088119  44.2631165  26.0995960   9.2442447  50.6912243  25.9909688
   8.7904775  49.8503153  26.0474878   8.6136414  51.3273641  26.3284468
   8.1875367  41.6204229  27.2210355   7.4498124  41.1081615  27.5520598
   8.4402141  41.1804611  26.4093632   7.6875387  52.5288740  26.9259506
   7.9798361  53.0893797  26.2071872   8.1974007  52.8217301  27.6812665
   2.5608074  44.6934274  28.3228316   2.6156684  43.7408110  28.2470792
   1.7499276  44.8493713  28.8069614   2.6509012  53.3069091  28.0152959
   2.6085191  53.5329937  27.0861491   3.5671711  53.0732465  28.1638760
   6.0974646  43.7753158  34.9133588   6.4524033  44.0024631  35.7728054
   6.7446777  44.1071535  34.2910844  11.8272383  46.8971594  25.6182918
  11.6890281  47.0873190  24.6904107  11.4708601  47.6590977  26.0750969
  11.8541762  48.9648121  30.6294189  12.2878269  48.8723410  31.4777243
  12.5673343  48.9405622  29.9914205   5.5869657  52.5650215  32.1627290
   5.6406679  53.1341152  32.9305006   4.7184439  52.7352100  31.7981327
  12.7157312  49.0071822  33.1627074  12.9093202  49.9117632  33.4086349
  12.6157930  48.5479241  33.9965659   4.3693623  38.8929712  35.6617402
   3.7221538  39.5919662  35.5681878   5.1394638  39.3265856  36.0293650
   7.7772420  49.1578565  38.7367955   7.6257927  48.9289116  37.8198039
   7.7677100  50.1149166  38.7499300   4.5457757  46.7310477  33.7214221
   5.4749817  46.8821637  33.5483189   4.1248787  46.8194498  32.8662868
   3.3446089  50.7561142  31.4912759   3.2057174  50.3879926  32.3638697
   2.5560685  51.2708781  31.3196717   3.9394241  55.8570238  22.8338296
   4.1145996  55.3858281  23.6483918   3.2527029  56.4836004  23.0619556
   4.8951304  50.1342744  28.8801597   4.5601136  50.0943514  29.7759247
   4.3955249  49.4687460  28.4072007   1.4977848  45.2530334  33.8937858
   2.2077467  44.6123526  33.8524476   1.4547157  45.5043229  34.8164038
   9.4864627  52.1897687  36.8144437   9.4277173  51.5056907  36.1475020
   9.8884146  52.9316677  36.3625063   9.4882034  50.1537271  35.0458417
   8.6008813  49.8163193  35.1684815  10.0580585  49.4220302  35.2827182
   3.0183188  54.8138723  32.0119660   2.9453359  55.6193695  32.5238964
   2.5760581  55.0130689  31.1867681   2.8072967  54.0510493  25.5222481
   2.0240489  54.5932174  25.6160706   3.5065713  54.5684473  25.9216723
  13.9699375  45.5645488  29.8074978  13.9589251  46.4470204  29.4368911
  13.1016754  45.2117039  29.6129515   5.4781871  54.7125557  34.1677818
   6.1909844  55.3473022  34.0953720   4.9871900  54.8089423  33.3517820
   7.1999398  48.6176810  25.7395110   6.2655677  48.7378273  25.5699814
   7.3776067  47.7149277  25.4755120  10.5871950  44.4594129  26.2745144
  11.0532402  45.2922121  26.2005447  11.0379450  43.9939111  26.9790403
   8.6548181  50.8037951  23.2731296   8.9308025  50.6894545  24.1825170
   7.7852679  50.4055436  23.2343469   8.5588612  36.8274716  30.3136046
   7.6451692  37.0578943  30.4818253   8.9881714  36.9113160  31.1650078
   8.3295071  45.0164608  32.8135940   7.6766521  45.2640516  32.1588392
   8.7075451  44.2028747  32.4798417   5.2902245  55.0524302  26.9164110
   5.4724639  54.2345957  27.3791862   6.1135231  55.2691994  26.4789000
   5.6244410  53.9792487  24.1779158   6.1532177  53.4684941  23.5649321
   5.8872630  53.6635017  25.0424691   4.3782644  45.7584419  39.3001977
   3.7023281  45.6578549  39.9704352   5.2010278  45.6023633  39.7637974
   3.1205427  57.0651347  33.5359593   3.6723735  57.2282968  34.3008678
   3.4611620  57.6555785  32.8639618   7.9716301  51.8912604  39.3908247
   8.5156205  52.5042563  38.8963202   7.3903146  52.4492183  39.9075260
   6.2573814  55.0133322  30.5223275   6.1324953  54.2123062  30.0134220
   6.9152905  55.5079516  30.0337245   8.3208722  52.8142342  32.1502825
   7.3739058  52.6947694  32.0781152   8.6691495  51.9264841  32.2329086
   0.6808296  38.7036481  35.9741067   1.2042698  38.9498778  36.7367376
   0.4620629  39.5356516  35.5544204   5.3255156  52.6095059  28.3507177
   5.1780118  51.6811766  28.5314747   6.1508649  52.6315149  27.8664252
   8.9289278  53.4323617  29.4372050   9.8535825  53.2266479  29.2996501
   8.7604581  53.1840019  30.3461391   1.8860841  39.6450176  33.6590737
   1.5457661  38.8457990  34.0611417   1.1799847  39.9451887  33.0867571
   2.5377313  36.7299489  32.1118060   3.3603382  36.2559967  31.9896951
   2.7815376  37.5089973  32.6116747   1.9212274  40.4121158  29.9690929
   1.9073843  39.5162251  29.6323227   2.6384702  40.4191821  30.6029215
   3.7738405  40.8458498  32.0144056   3.5156183  41.7675568  32.0128386
   3.2423445  40.4488932  32.7044520   8.7184594  53.9509285  24.7934141
   8.8921471  53.3855707  24.0407994   9.2113485  54.7510180  24.6113631
  14.5723985  46.7145708  26.4124441  15.0155131  45.9653033  26.0143564
  13.6950495  46.7055844  26.0298173   9.7059766  53.2676049  21.8931040
  10.4010671  53.8882742  22.1118354  10.0482916  52.4171400  22.1683418
  11.6051189  50.7175755  23.4218370  12.1302513  51.0563028  22.6967690
  11.5173542  49.7822770  23.2381505   3.2671238  54.6309828  35.5508247
   3.5758364  54.3858975  36.4230947   4.0646720  54.8356467  35.0627117
   3.2891850  56.7847738  27.7813624   2.8496840  56.2924117  28.4746480
   4.0399967  56.2420706  27.5405699   0.8090250  40.8067535  39.4468431
   0.8578405  41.6829658  39.0646201   1.3512764  40.2644928  38.8740075
  11.2945095  51.3508658  38.7269568  10.5040639  51.3332797  38.1874068
  11.0578450  51.8896952  39.4818605  11.4142970  48.2001125  36.0402297
  11.4640975  48.0351132  36.9817820  11.3056894  47.3328384  35.6500178
   8.7046733  44.1832053  37.3561604   9.6056596  44.0438518  37.0645601
   8.7794707  44.3486508  38.2959781   3.0389538  41.5598908  36.2014790
   2.1692848  41.8532474  35.9297378   3.2749019  42.1439353  36.9222054
  12.9161167  50.6198066  36.2844318  12.6245976  50.9828047  37.1207779
  12.3033299  49.9065075  36.1057651  14.1156850  48.1850946  28.8046889
  14.9503741  48.6240750  28.9684449  14.2515978  47.7089599  27.9855134
  11.1648356  45.7430681  34.7524376  11.6402477  45.9358327  33.9443228
  10.2413921  45.7989867  34.5067760   5.7428572  37.7778525  33.7180210
   6.2610516  38.5139551  33.3926699   5.3883705  38.0842518  34.5526969
   9.8650025  42.6196441  32.9852682  10.8167447  42.7194539  33.0064906
   9.6953475  41.8274710  33.4950766   7.8864404  39.7052024  33.1712083
   7.2914336  39.9857037  32.4758572   7.6014101  40.1945925  33.9428824
   7.0171894  53.6574951  21.9314716   7.9502568  53.5920513  22.1347591
   6.9295107  54.4931218  21.4729248   9.6459911  52.9740821  18.8918663
   9.5673543  52.6400685  19.7854421  10.4669578  53.4662589  18.8910135
  12.3438102  45.8402561  32.0994982  12.3114422  44.9018561  32.2854666
  12.9538726  45.9186597  31.3660807  12.4932591  42.6313604  32.1453265
  11.9771639  41.8472061  31.9583194  13.3772539  42.3032321  32.3099784
  10.1543318  36.3754620  28.1049078   9.9568139  36.0669708  28.9892410
  10.7643023  37.1016259  28.2347007  18.1614652  46.9018568  31.2401018
  18.8918041  46.6403856  31.8008722  17.5521598  46.1647290  31.2803086
  16.2429949  45.0426430  31.8375470  15.5163113  44.9082395  31.2291961
  15.8277236  45.3503259  32.6432188   4.0660126  48.7616360  39.6022843
   4.9863135  48.9394959  39.7962889   4.0309709  47.8172405  39.4502542
   1.9350064  42.2450600  41.6348373   1.8346790  43.1944957  41.5660464
   1.7171606  41.9168839  40.7624443   1.7981334  45.6747739  40.4513434
   1.3148415  46.4748099  40.6577323   1.8842273  45.6855684  39.4980878
  11.4235186  40.5510663  28.1334961  12.1995576  41.0407116  28.4059577
  10.6983320  40.9768717  28.5906830  13.8607744  41.2638282  29.1908901
  14.4552235  41.0234018  28.4802210  13.9334328  40.5445413  29.8182438
   8.0461673  46.0418678  24.6330912   7.9896875  46.4987230  23.7938544
   8.5990016  45.2809363  24.4553754  11.8566479  41.8308410  25.4581031
  11.6003413  41.4305046  26.2889239  11.2319347  42.5452204  25.3331170
  16.1678817  44.5704483  27.9652322  15.6078375  44.6397673  28.7383885
  15.5622320  44.3945468  27.2451819   9.1250560  50.7291346  20.5627101
   9.9596164  50.2972545  20.3804576   8.9634903  50.5573360  21.4903996
   6.0942360  49.5372371  41.2537004   6.9633519  49.7113023  40.8923638
   5.6149111  50.3566788  41.1312733   2.0182142  55.4100459  29.5936516
   1.0677773  55.4102320  29.4800888   2.3214628  54.6633193  29.0772550
  17.7534835  61.2460997  30.6582278  18.3913245  61.1267744  29.9545618
  17.6355678  62.1941841  30.7170230  14.5624542  61.1988425  30.5943803
  14.2243053  61.0829490  29.7064338  15.4314310  60.7979590  30.5744809
  10.4211357  63.0523902  26.5840694   9.8576223  62.9613839  25.8156982
  10.3063752  62.2323806  27.0643186  15.0444325  62.3523277  36.5530008
  15.0332965  61.9576075  35.6810512  15.2064964  61.6189350  37.1463780
   7.9675789  64.5475093  29.4224914   8.7597081  64.2065918  29.0071214
   8.2072439  64.6570068  30.3427068  16.0010916  66.7194869  21.8955159
  15.3498896  67.3048950  21.5089173  16.7955279  67.2501064  21.9550196
   9.9266543  63.8084007  22.2942293  10.6997419  63.2612994  22.1555169
  10.2791942  64.6728256  22.5056754  11.7651586  65.1360389  35.5009192
  11.4741452  66.0406020  35.3855859  12.4008570  65.1776916  36.2153262
  12.6907793  62.5137237  32.0910552  13.2871365  62.2893260  31.3767515
  12.7482764  61.7721983  32.6936000  12.2632821  59.9676673  19.9260743
  12.5158342  59.4458194  19.1644206  11.3257380  59.8042818  20.0287427
  17.3076104  58.9712451  27.7335486  18.0939193  58.5531874  27.3825903
  17.5714808  59.8758543  27.9017135  17.4786181  64.4085301  22.4324143
  16.8432014  64.4819928  23.1445048  17.1483588  64.9978900  21.7543222
  22.7084531  58.9087684  28.6368465  23.4409703  58.3386901  28.8706294
  21.9523887  58.5209285  29.0774970  11.9829110  61.8704779  22.1285118
  11.8665368  61.1949682  22.7966202  12.0931370  61.3837153  21.3117271
  14.3260651  61.3314926  25.8331807  13.9618858  60.8045547  26.5444729
  15.1827767  60.9413395  25.6598293  20.2309951  52.6209258  33.0963073
  19.8993276  53.4904669  32.8724288  19.6355565  52.3045542  33.7757104
  13.9666138  56.3604825  20.8293156  14.1340540  57.2285062  21.1963627
  13.7763307  56.5232107  19.9054445  16.7241471  64.8221804  32.4958986
  16.4242194  65.7246843  32.3874793  16.3792530  64.5553987  33.3480139
  10.1753952  61.2735601  28.5295691   9.2504449  61.1411815  28.7373382
  10.4238366  62.0529820  29.0265633  20.1238615  57.3404344  30.1756423
  19.2155492  57.2719753  29.8815184  20.0726210  57.8176289  31.0038249
  13.9455359  58.8162483  21.8139823  13.8254984  59.2619534  22.6525303
  13.2507947  59.1647801  21.2553361   7.5362763  60.9168875  29.3639480
   7.6655145  61.1703354  30.2778891   6.8560215  61.5096583  29.0444135
  11.7062251  71.5866125  25.4629954  11.6286280  72.5373950  25.5418434
  11.1023894  71.2411997  26.1204880  14.1979480  58.7593990  38.1191321
  13.4212815  59.3187910  38.1094185  14.8370044  59.2450773  38.6406191
  21.9900261  55.5420783  31.9534297  21.3474641  55.8353316  31.3074092
  21.4855190  55.4273703  32.7587494  19.6440425  59.2883956  22.6420157
  20.5558281  59.5211343  22.4667854  19.1350072  59.8721000  22.0795235
  12.4525853  61.5679443  37.6809288  13.1940537  62.1064487  37.4044111
  11.7462838  62.1945732  37.8380839  17.9281192  63.7108584  36.2781449
  18.3364548  63.2690994  35.5336082  17.2058454  63.1361211  36.5315642
  14.2812262  58.6481191  33.6515006  15.1273458  59.0720604  33.7949655
  14.2210900  57.9914815  34.3453569  18.2510007  64.2709775  30.0333738
  17.6218870  64.4355489  29.3309806  17.8635669  64.6851384  30.8044702
  22.1299239  65.2064212  27.3878102  21.4450277  65.5863114  26.8375135
  22.2143088  65.8159539  28.1210050  17.4311708  56.3085559  35.3096180
  17.1872640  57.0627620  34.7730455  17.7071638  56.6870907  36.1443427
  19.3850171  62.8524171  33.9873445  19.5967066  63.4955931  33.3107826
  19.3379919  62.0186488  33.5195375  16.9876400  55.4641992  30.8910017
  16.1260879  55.7623246  31.1826755  17.0138834  55.6812391  29.9591050
  13.8037969  64.0084183  27.2983823  14.2676314  64.2871886  26.5088446
  13.5394767  63.1067627  27.1156914  10.6962050  63.5555664  30.2363586
  11.2663407  63.9842933  29.5981071  11.2870162  63.2738249  30.9347772
  12.7406855  60.1307335  24.1073388  13.4430898  60.5828379  24.5747315
  12.4087483  59.4891154  24.7353281  11.1887217  58.7219092  38.4824598
  10.5585877  59.4035372  38.7159995  11.0823304  58.6102173  37.5377736
   6.4832189  58.3890888  29.4090522   5.6931243  58.6448416  28.9330632
   6.9743436  59.2039225  29.5142562  20.4995999  65.7296127  32.1595803
  21.3213442  65.3276314  31.8778484  20.4958401  65.6264361  33.1111918
   8.4346934  58.7535467  26.3673999   7.6378098  58.8654161  26.8857494
   8.2072527  59.0922119  25.5014889  14.2652602  65.2780170  34.3156513
  14.3297034  65.7400577  35.1514685  13.5563526  64.6477535  34.4438823
   4.7669892  58.6421378  31.8405513   5.0177930  59.5268388  32.1063089
   5.3029440  58.4625980  31.0680604  28.5901992  62.0734875  28.5080774
  27.8365700  61.5042273  28.3524779  28.7249533  62.0397540  29.4551409
  13.9800620  66.9448278  24.1835494  13.8446294  67.7899813  24.6120341
  14.5210432  67.1467555  23.4201427  10.4667959  53.0239857  40.8449849
  10.0734905  52.4706056  41.5197493  11.2834100  53.3350436  41.2356366
   7.4330017  64.4623716  24.7563419   7.9454538  65.2566966  24.9068983
   8.0852730  63.7650006  24.6897020   9.2424902  67.5789472  26.8386172
   9.4191530  68.5007437  26.6507156  10.0381735  67.2647891  27.2680552
  13.3835920  54.4397737  38.4370105  14.1245634  55.0404890  38.3574568
  13.6153843  53.6975374  37.8788148   8.5277258  59.6254104  36.7148335
   8.4130773  58.7239361  37.0155434   7.6721776  59.8717801  36.3633152
  15.6069096  67.5671844  38.3135836  15.1632950  66.7808223  37.9956740
  16.2686310  67.7550995  37.6479726  10.3656217  69.0967646  32.8396514
  10.9163642  68.9684709  32.0673508   9.5267693  69.3962535  32.4891407
  17.7050334  67.8474644  36.3417237  17.6868809  68.6683525  35.8497506
  18.6270254  67.7228719  36.5667378  14.1623388  65.3618774  37.1840745
  14.6951725  64.6007062  36.9540053  13.6337469  65.0692425  37.9264900
  17.3293083  50.4678839  32.7134387  16.9857353  51.3580481  32.6373498
  17.6972046  50.2780497  31.8503972   5.3978934  62.7912370  25.5322989
   6.2354156  63.2009378  25.3156697   5.5757201  61.8511812  25.5023183
  17.2943366  60.4587451  21.2206822  16.7789989  61.2292055  21.4595210
  17.0220674  59.7852587  21.8439884  14.8790477  55.3037151  26.2792060
  14.0232073  54.9144002  26.0997699  15.2917429  55.3829112  25.4191846
  16.4089624  52.8383495  30.6783620  15.9054419  52.8013630  29.8651426
  16.7020230  53.7476237  30.7380277  12.6532509  52.9222224  29.6849802
  13.5185506  52.7265033  29.3255691  12.7210018  52.6932576  30.6119159
  22.2677640  63.2119805  23.1559996  21.4907083  62.8730965  22.7115158
  22.9469121  63.2172428  22.4814961  17.0829669  58.3314543  23.0466603
  16.7779805  58.6460692  23.8976746  18.0360111  58.4095963  23.0893936
  15.5276101  64.4904766  24.6959557  14.9997462  63.7557526  24.3832795
  15.0263604  65.2679442  24.4499526  20.5068947  62.6853786  29.8126604
  19.8492621  63.3753048  29.9006732  21.3109346  63.0750218  30.1560590
  10.2594829  55.1524432  27.0566169  10.8338580  54.9299614  26.3239362
  10.8465811  55.2213127  27.8094770  19.3174406  61.0398159  27.8630545
  19.8306287  61.6728151  28.3652255  19.9675630  60.4399355  27.4973905
  10.5864416  57.1828893  21.0762054   9.7501728  57.5203580  21.3971329
  10.4469185  57.0477873  20.1389191  12.5617496  52.0265681  25.7841238
  11.9081909  51.7114698  25.1597853  12.5197970  51.4041422  26.5101061
  13.6728701  62.3084976  17.6994530  12.7655763  62.0774230  17.8985679
  14.1699733  61.5122596  17.8868512  16.5796780  71.0182483  20.6191216
  15.9058479  71.3214180  21.2276174  16.9662602  71.8211564  20.2696674
  15.7955237  58.5147615  30.1088886  14.8777798  58.7362562  29.9510574
  16.2115380  58.5893925  29.2500593  16.5790284  59.9139030  25.2391566
  17.3262103  60.4260428  24.9298688  16.8481874  59.5923083  26.0995960
  14.8516935  62.4097571  22.2218520  13.9428154  62.1256604  22.3190990
  14.8812018  62.8296650  21.3621827  20.0836202  66.0204161  25.9909688
  19.6298529  65.1795071  26.0474878  19.4530169  66.6565559  26.3284468
  19.0269122  56.9496147  27.2210355  18.2891878  56.4373533  27.5520598
  19.2795895  56.5096528  26.4093632  18.5269141  67.8580657  26.9259506
  18.8192116  68.4185714  26.2071872  19.0367762  68.1509218  27.6812665
  19.1280749  49.7272399  27.8152125  19.4339626  48.8669762  27.5278040
  19.8533354  50.3190019  27.6151119   5.4205105  60.1303085  26.2033723
   5.2229505  59.5372446  25.4784789   4.8651769  59.8255295  26.9209661
  13.4001829  60.0226192  28.3228316  13.4550438  59.0700028  28.2470792
  12.5893031  60.1785631  28.8069614  14.5493022  63.9506315  19.5606599
  14.1112452  63.2342174  19.1012236  15.2903463  64.1782430  18.9991690
  11.3394189  58.6403251  26.0818695  10.5262054  58.9397422  26.4883887
  11.8353183  58.2458940  26.7993177  13.4902766  68.6361008  28.0152959
  13.4478945  68.8621855  27.0861491  14.4065465  68.4024383  28.1638760
  16.9368400  59.1045076  34.9133588  17.2917788  59.3316549  35.7728054
  17.5840531  59.4363453  34.2910844  22.6666137  62.2263512  25.6182918
  22.5284036  62.4165108  24.6904107  22.3102356  62.9882895  26.0750969
  10.8308263  56.2121607  31.6979930  11.4707643  56.0710366  31.0002893
   9.9985794  55.9256120  31.3218532  22.6935517  64.2940039  30.6294189
  23.1272023  64.2015328  31.4777243  23.4067097  64.2697539  29.9914205
  11.6068567  65.5124037  27.8114922  12.4009166  65.0174358  27.6097497
  10.8960260  64.9841901  27.4482628  16.4263412  67.8942133  32.1627290
  16.4800434  68.4633069  32.9305006  15.5578193  68.0644018  31.7981327
   7.9151331  59.6567119  23.8874675   6.9848919  59.5951575  24.1044637
   8.0108803  59.1343072  23.0911316   7.8336880  56.1821932  26.4752916
   8.0943697  57.0967265  26.3662077   8.6554052  55.7146375  26.6249529
   9.3061805  57.5959689  33.6451741   9.9784858  57.3877051  32.9964390
   8.4791592  57.3981775  33.2056973  23.5551066  64.3363739  33.1627074
  23.7486956  65.2409550  33.4086349  23.4551684  63.8771159  33.9965659
  15.2087377  54.2221630  35.6617402  14.5615292  54.9211580  35.5681878
  15.9788392  54.6557774  36.0293650  18.6166175  64.4870482  38.7367955
  18.4651681  64.2581034  37.8198039  18.6070854  65.4441084  38.7499300
  15.3851511  62.0602395  33.7214221  16.3143571  62.2113555  33.5483189
  14.9642541  62.1486416  32.8662868  14.1839843  66.0853059  31.4912759
  14.0450929  65.7171844  32.3638697  13.3954439  66.6000699  31.3196717
  14.7787995  71.1862156  22.8338296  14.9539751  70.7150199  23.6483918
  14.0920783  71.8127922  23.0619556  15.7345058  65.4634662  28.8801597
  15.3994891  65.4235432  29.7759247  15.2349004  64.7979378  28.4072007
   9.7089302  60.8702292  34.4054178   9.5709100  60.1382531  35.0065717
  10.6194226  60.7811192  34.1238366  18.6704250  62.8090696  19.1538657
  18.0533421  62.0837525  19.0571709  18.2020738  63.5700057  18.8105731
  12.3371603  60.5822251  33.8937858  13.0471221  59.9415444  33.8524476
  12.2940911  60.8335146  34.8164038  20.3258382  67.5189605  36.8144437
  20.2670928  66.8348825  36.1475020  20.7277900  68.2608595  36.3625063
  11.0500537  57.5687469  35.7133497  10.5137894  57.1178208  36.3655094
  10.4617245  57.7033378  34.9703962   9.3449080  74.3351519  29.6078156
   9.5845679  74.9670043  30.2857174   8.5018277  73.9839559  29.8943515
  10.4602796  57.0276121  18.2759961   9.5832262  56.9064922  17.9122207
  10.9360549  56.2362199  18.0238849  20.3275789  65.4829189  35.0458417
  19.4402568  65.1455111  35.1684815  20.8974340  64.7512220  35.2827182
   1.9804936  61.8153280  28.3701468   2.6675976  61.5015011  27.7822483
   1.8253065  62.7194645  28.0968719   6.7839658  56.7043477  32.7986492
   6.6997847  56.0969147  32.0636902   5.9622365  57.1952495  32.7995988
  13.8576942  70.1430641  32.0119660  13.7847114  70.9485613  32.5238964
  13.4154335  70.3422607  31.1867681  13.6466722  69.3802411  25.5222481
  12.8634244  69.9224091  25.6160706  14.3459467  69.8976391  25.9216723
  16.9563372  55.1897041  28.1656687  17.4532072  54.4367003  27.8457757
  16.1850354  55.2261357  27.5999896  24.8093129  60.8937406  29.8074978
  24.7983006  61.7762122  29.4368911  23.9410509  60.5408957  29.6129515
  16.3175626  70.0417475  34.1677818  17.0303598  70.6764940  34.0953720
  15.8265654  70.1381341  33.3517820  18.0393153  63.9468728  25.7395110
  17.1049431  64.0670190  25.5699814  18.2169821  63.0441195  25.4755120
  13.5398341  57.3314424  27.8928371  13.1696128  56.7785464  28.5809277
  14.0357433  56.7272557  27.3403371  21.4265704  59.7886047  26.2745144
  21.8926156  60.6214039  26.2005447  21.8773205  59.3231029  26.9790403
  11.3687539  67.7911919  34.9883389  12.0696999  68.4248402  35.1412783
  10.8982654  68.1326650  34.2279029  19.4941935  66.1329868  23.2731296
  19.7701779  66.0186463  24.1825170  18.6246434  65.7347353  23.2343469
  19.3982367  52.1566634  30.3136046  18.4845447  52.3870861  30.4818253
  19.8275468  52.2405078  31.1650078  19.1688825  60.3456526  32.8135940
  18.5160276  60.5932433  32.1588392  19.5469205  59.5320664  32.4798417
  16.1295999  70.3816219  26.9164110  16.3118394  69.5637875  27.3791862
  16.9528985  70.5983911  26.4789000  16.4638165  69.3084404  24.1779158
  16.9925931  68.7976859  23.5649321  16.7266384  68.9926935  25.0424691
  15.2176398  61.0876337  39.3001977  14.5417035  60.9870466  39.9704352
  16.0404032  60.9315551  39.7637974   6.9655257  67.3248274  31.9214492
   7.5508694  66.5791962  32.0542396   6.7680096  67.6352230  32.8051156
   9.8193913  70.3599521  26.9376934   9.1504288  70.8445649  26.4540974
   9.6806782  70.6068741  27.8520313   1.5572912  59.8953874  30.6418935
   1.5957012  59.3617465  31.4356053   1.0513205  59.3689079  30.0229912
  13.9599181  72.3943265  33.5359593  14.5117489  72.5574886  34.3008678
  14.3005375  72.9847702  32.8639618   8.9363674  54.7418414  34.1381477
   9.0005001  55.6033245  33.7258875   8.8730795  54.1292416  33.4053836
   8.4115947  56.8141547  37.7854512   9.0387986  56.4318624  38.3992036
   7.5543866  56.5955749  38.1510204  18.8110056  67.2204522  39.3908247
  19.3549960  67.8334480  38.8963202  18.2296900  67.7784100  39.9075260
   5.1881490  58.6217976  23.7172866   5.4834931  57.7128654  23.6639920
   4.2869525  58.6005715  23.3953869  17.0967568  70.3425240  30.5223275
  16.9718708  69.5414980  30.0134220  17.7546660  70.8371433  30.0337245
   8.7175737  56.6973973  29.7000415   7.9962322  57.3109940  29.5607888
   9.5068992  57.2331737  29.6217061  19.1602477  68.1434260  32.1502825
  18.2132812  68.0239611  32.0781152  19.5085250  67.2556758  32.2329086
  11.5202050  54.0328399  35.9741067  12.0436452  54.2790696  36.7367376
  11.3014384  54.8648434  35.5544204   6.9169331  56.3032074  23.8412192
   6.5882037  55.4229453  23.6587298   7.2708702  56.2479742  24.7288581
  16.1648910  67.9386976  28.3507177  16.0173873  67.0103684  28.5314747
  16.9902404  67.9607067  27.8664252  10.0311154  56.5905043  24.2087669
  10.3707227  57.1190965  23.4866278  10.4783275  56.9285450  24.9846236
  19.7683032  68.7615535  29.4372050  20.6929579  68.5558396  29.2996501
  19.5998335  68.5131936  30.3461391  12.7254595  54.9742094  33.6590737
  12.3851416  54.1749907  34.0611417  12.0193602  55.2743805  33.0867571
  13.3771067  52.0591407  32.1118060  14.1997136  51.5851885  31.9896951
  13.6209131  52.8381890  32.6116747  12.0179302  55.0879665  22.4080962
  12.7387664  55.4660918  21.9044679  11.3944606  55.8068542  22.5115940
  16.1610424  55.7924814  23.3439294  16.3774039  56.6749452  23.0428123
  15.6804492  55.4011027  22.6144936  10.9009646  58.7510527  29.9210039
  10.7554227  59.0650830  30.8134321  10.4234849  59.3695428  29.3680938
  12.7606029  55.7413075  29.9690929  12.7467598  54.8454169  29.6323227
  13.4778457  55.7483739  30.6029215  14.6132159  56.1750415  32.0144056
  14.3549937  57.0967486  32.0128386  14.0817200  55.7780850  32.7044520
  19.5578348  69.2801203  24.7934141  19.7315226  68.7147625  24.0407994
  20.0507239  70.0802097  24.6113631   5.3755308  61.2915872  32.8597700
   4.8308776  62.0675680  32.9917975   6.2534658  61.6386676  32.7016822
  12.1642925  54.6227455  25.2378499  12.2858836  53.6944102  25.4369386
  11.8744967  54.6366141  24.3256814  15.0334115  52.3082366  28.3745219
  15.0555812  52.3721699  27.4197198  15.4502174  51.4686875  28.5685725
  25.4117739  62.0437625  26.4124441  25.8548885  61.2944951  26.0143564
  24.5344250  62.0347762  26.0298173  20.5453521  68.5967967  21.8931040
  21.2404425  69.2174660  22.1118354  20.8876671  67.7463318  22.1683418
   6.1621330  60.4185768  35.7527857   5.4203066  60.5668403  36.3392487
   5.8414074  60.6794034  34.8894606  22.4444944  66.0467672  23.4218370
  22.9696268  66.3854945  22.6967690  22.3567296  65.1114688  23.2381505
  14.1064993  69.9601746  35.5508247  14.4152119  69.7150893  36.4230947
  14.9040475  70.1648385  35.0627117  14.1285605  72.1139656  27.7813624
  13.6890595  71.6216034  28.4746480  14.8793722  71.5712623  27.5405699
   6.6077944  68.3051197  27.7838252   7.4335963  68.0054968  27.4036895
   6.2571996  67.5358819  28.2328040  11.5759477  67.6577665  29.8535925
  10.9539486  66.9948370  29.5538153  12.2464344  67.6838797  29.1709573
   4.8086549  66.2237523  28.7427185   3.9718457  65.7959697  28.5611187
   4.7810194  66.4169966  29.6797976  11.6484004  56.1359453  39.4468431
  11.6972160  57.0121576  39.0646201  12.1906518  55.5936846  38.8740075
  22.1338850  66.6800576  38.7269568  21.3434394  66.6624715  38.1874068
  21.8972204  67.2188870  39.4818605  22.2536725  63.5293042  36.0402297
  22.3034730  63.3643050  36.9817820  22.1450648  62.6620302  35.6500178
  11.1372984  66.2081588  23.3294386  11.2861104  66.8917053  22.6761059
  11.9439427  66.1886678  23.8443842  19.5440487  59.5123971  37.3561604
  20.4450350  59.3730435  37.0645601  19.6188462  59.6778425  38.2959781
  13.8783293  56.8890825  36.2014790  13.0086602  57.1824391  35.9297378
  14.1142773  57.4731270  36.9222054  23.7554922  65.9489984  36.2844318
  23.4639730  66.3119965  37.1207779  23.1427053  65.2356992  36.1057651
  24.9550604  63.5142864  28.8046889  25.7897495  63.9532668  28.9684449
  25.0909733  63.0381517  27.9855134  22.0042110  61.0722599  34.7524376
  22.4796232  61.2650245  33.9443228  21.0807675  61.1281784  34.5067760
   8.8925617  62.2346766  24.3355455   8.6471659  61.3309096  24.5335665
   9.0621531  62.2363916  23.3934933  16.5822326  53.1070442  33.7180210
  17.1004270  53.8431469  33.3926699  16.2277459  53.4134435  34.5526969
   8.1621264  57.9675123  21.8341616   7.4690509  58.0419478  21.1781652
   7.9173016  57.2035467  22.3563133  16.8334921  49.5270725  29.2381107
  17.1136674  48.8593914  29.8641533  17.6185528  49.7199820  28.7255771
  14.6368389  68.7029719  20.8006133  14.0642356  69.3219906  20.3476605
  15.2101183  69.2529080  21.3346055  20.7043779  57.9488359  32.9852682
  21.6561202  58.0486456  33.0064906  20.5347229  57.1566627  33.4950766
  18.7258158  55.0343942  33.1712083  18.1308091  55.3148955  32.4758572
  18.4407855  55.5237843  33.9428824  17.8565649  68.9866869  21.9314716
  18.7896322  68.9212430  22.1347591  17.7688862  69.8223136  21.4729248
  20.4853666  68.3032739  18.8918663  20.4067297  67.9692603  19.7854421
  21.3063332  68.7954507  18.8910135  23.1831857  61.1694478  32.0994982
  23.1508177  60.2310479  32.2854666  23.7932480  61.2478515  31.3660807
  15.0215188  60.0390531  18.1422186  15.9674292  59.9096739  18.2110604
  14.6429433  59.3005193  18.6191614  23.3326345  57.9605522  32.1453265
  22.8165394  57.1763978  31.9583194  24.2166294  57.6324238  32.3099784
  20.9937072  51.7046537  28.1049078  20.7961893  51.3961626  28.9892410
  21.6036778  52.4308176  28.2347007  29.0008407  62.2310485  31.2401018
  29.7311795  61.9695773  31.8008722  28.3915352  61.4939207  31.2803086
  27.0823704  60.3718348  31.8375470  26.3556867  60.2374313  31.2291961
  26.6670991  60.6795176  32.6432188  14.9053880  64.0908278  39.6022843
  15.8256890  64.2686877  39.7962889  14.8703463  63.1464323  39.4502542
  13.2058105  57.9640508  18.0777071  12.2989560  57.6673620  18.1539785
  13.4834086  57.6670326  17.2111357   4.1236045  59.2846871  28.5276117
   3.8038830  58.4312179  28.2350491   3.5769473  59.4995449  29.2834085
   7.9015953  62.0009312  32.2445624   8.1201963  62.9326420  32.2633658
   8.3141727  61.6417287  33.0300428  14.8220171  52.5077397  24.2321312
  14.0120899  52.1624482  24.6076558  15.5104587  52.1984941  24.8208924
  16.7510719  51.5855444  25.8545609  17.3041757  52.0050898  26.5135632
  16.9880805  50.6591192  25.8968565  12.7743818  57.5742518  41.6348373
  12.6740545  58.5236875  41.5660464  12.5565360  57.2460757  40.7624443
  11.9756889  54.8227443  18.2189050  12.8376053  55.1482341  18.4784868
  12.1607234  54.0358939  17.7062116   3.9924305  62.9049783  30.4969239
   3.2987777  62.4903735  29.9839193   4.7397296  62.9470319  29.9002658
  20.1289526  53.6955969  25.3624273  19.5488195  54.3540773  24.9802326
  19.8625459  52.8733314  24.9511691  18.5793092  53.0961027  27.5645593
  19.0792871  53.2077562  26.7559912  19.2228700  52.7922080  28.2046402
  12.6375088  61.0039657  40.4513434  12.1542170  61.8040017  40.6577323
  12.7236027  61.0147602  39.4980878   5.9061048  62.8368036  28.3735254
   5.8831736  62.9355724  27.4217137   6.2161684  63.6833187  28.6952420
   8.5648426  64.8944191  32.4881868   9.5191679  64.8628134  32.4211800
   8.3660949  64.4334815  33.3032094   9.1547808  63.4645308  35.0552666
   9.9740697  63.9589386  35.0787503   9.4284615  62.5477276  35.0270233
  18.9114404  55.8556060  24.4180621  18.0240259  56.1405710  24.2000816
  19.3268393  55.6949823  23.5707898  22.2628940  55.8802581  28.1334961
  23.0389330  56.3699033  28.4059577  21.5377074  56.3060635  28.5906830
  24.7001499  56.5930200  29.1908901  25.2945989  56.3525936  28.4802210
  24.7728082  55.8737331  29.8182438   6.9198654  70.4363811  29.5052066
   6.7853122  69.6764212  28.9390064   6.5030717  71.1604711  29.0380855
  18.0557617  65.6200734  18.5128641  18.7593468  65.8250737  19.1286297
  17.3320266  66.1877496  18.7777725  18.8855428  61.3710596  24.6330912
  18.8290629  61.8279147  23.7938544  19.4383770  60.6101280  24.4553754
  22.6960234  57.1600328  25.4581031  22.4397168  56.7596963  26.2889239
  22.0713102  57.8744122  25.3331170  27.0072571  59.8996401  27.9652322
  26.4472129  59.9689590  28.7383885  26.4016075  59.7237386  27.2451819
  10.0767780  71.3333128  29.7170509   9.9600164  72.2778560  29.6149199
   9.2560227  71.0306690  30.1056308  19.9644315  66.0583264  20.5627101
  20.7989919  65.6264462  20.3804576  19.8028658  65.8865277  21.4903996
  19.6190207  62.5615377  21.9283441  19.5639011  62.3959648  20.9871885
  18.9936262  63.2691410  22.0845630   4.4082722  57.7983441  35.7544863
   5.0541586  57.2882395  36.2432088   4.1999873  58.5352123  36.3288288
  16.9336114  64.8664289  41.2537004  17.8027274  65.0404941  40.8923638
  16.4542866  65.6858706  41.1312733  12.9286332  52.0623486  21.5068759
  12.9165002  53.0065326  21.6637030  13.8209754  51.8793631  21.2128220
  11.1022294  71.9861390  32.9326437  12.0049541  72.0185000  33.2492932
  10.8759664  71.0561841  32.9472773  12.8575896  70.7392376  29.5936516
  11.9071527  70.7394238  29.4800888  13.1608383  69.9925111  29.0772550
  16.7438452  48.6566263  25.7614696  15.9770848  48.1024749  25.9071378
  17.1549157  48.7288131  26.6228848   8.7480213  54.9451058  39.8519877
   9.6111675  54.5887863  40.0623202   8.1745624  54.6064953  40.5395281
  28.5928590  76.5752915  30.6582278  29.2307000  76.4559662  29.9545618
  28.4749433  77.5233759  30.7170230  25.4018296  76.5280343  30.5943803
  25.0636808  76.4121408  29.7064338  26.2708064  76.1271508  30.5744809
  21.2605112  78.3815819  26.5840694  20.6969977  78.2905756  25.8156982
  21.1457507  77.5615724  27.0643186  25.8838079  77.6815195  36.5530008
  25.8726720  77.2867993  35.6810512  26.0458719  76.9481267  37.1463780
  18.8069544  79.8767011  29.4224914  19.5990836  79.5357836  29.0071214
  19.0466194  79.9861986  30.3427068  26.8404671  82.0486787  21.8955159
  26.1892650  82.6340867  21.5089173  27.6349033  82.5792982  21.9550196
  20.7660298  79.1375924  22.2942293  21.5391174  78.5904911  22.1555169
  21.1185697  80.0020174  22.5056754  22.6045340  80.4652306  35.5009192
  22.3135206  81.3697937  35.3855859  23.2402325  80.5068834  36.2153262
  23.5301547  77.8429155  32.0910552  24.1265119  77.6185177  31.3767515
  23.5876519  77.1013900  32.6936000  23.1026576  75.2968590  19.9260743
  23.3552096  74.7750112  19.1644206  22.1651135  75.1334736  20.0287427
  28.1469858  74.3004369  27.7335486  28.9332948  73.8823792  27.3825903
  28.4108563  75.2050461  27.9017135  28.3179936  79.7377219  22.4324143
  27.6825769  79.8111845  23.1445048  27.9877342  80.3270818  21.7543222
  33.5478286  74.2379602  28.6368465  34.2803457  73.6678819  28.8706294
  32.7917641  73.8501202  29.0774970  22.8222864  77.1996696  22.1285118
  22.7059122  76.5241600  22.7966202  22.9325124  76.7129070  21.3117271
  25.1654405  76.6606843  25.8331807  24.8012612  76.1337464  26.5444729
  26.0221521  76.2705312  25.6598293  31.0703706  67.9501176  33.0963073
  30.7387031  68.8196587  32.8724288  30.4749319  67.6337460  33.7757104
  24.8059892  71.6896743  20.8293156  24.9734295  72.5576979  21.1963627
  24.6157061  71.8524025  19.9054445  27.5635225  80.1513722  32.4958986
  27.2635948  81.0538761  32.3874793  27.2186285  79.8845905  33.3480139
  21.0147707  76.6027519  28.5295691  20.0898203  76.4703733  28.7373382
  21.2632120  77.3821738  29.0265633  30.9632369  72.6696262  30.1756423
  30.0549247  72.6011671  29.8815184  30.9119965  73.1468207  31.0038249
  24.7849113  74.1454401  21.8139823  24.6648738  74.5911451  22.6525303
  24.0901701  74.4939718  21.2553361  18.3756518  76.2460792  29.3639480
  18.5048899  76.4995271  30.2778891  17.6953969  76.8388500  29.0444135
  22.5456005  86.9158042  25.4629954  22.4680035  87.8665867  25.5418434
  21.9417649  86.5703915  26.1204880  25.0373235  74.0885908  38.1191321
  24.2606569  74.6479828  38.1094185  25.6763798  74.5742691  38.6406191
  32.8294016  70.8712701  31.9534297  32.1868396  71.1645234  31.3074092
  32.3248944  70.7565621  32.7587494  30.4834179  74.6175874  22.6420157
  31.3952035  74.8503260  22.4667854  29.9743826  75.2012918  22.0795235
  23.2919607  76.8971361  37.6809288  24.0334292  77.4356405  37.4044111
  22.5856593  77.5237650  37.8380839  28.7674947  79.0400502  36.2781449
  29.1758303  78.5982912  35.5336082  28.0452208  78.4653129  36.5315642
  25.1206017  73.9773108  33.6515006  25.9667212  74.4012522  33.7949655
  25.0604655  73.3206733  34.3453569  29.0903762  79.6001692  30.0333738
  28.4612624  79.7647406  29.3309806  28.7029424  80.0143302  30.8044702
  32.9692993  80.5356130  27.3878102  32.2844032  80.9155031  26.8375135
  33.0536843  81.1451457  28.1210050  28.2705462  71.6377477  35.3096180
  28.0266394  72.3919537  34.7730455  28.5465393  72.0162824  36.1443427
  30.2243925  78.1816089  33.9873445  30.4360820  78.8247849  33.3107826
  30.1773673  77.3478406  33.5195375  27.8270154  70.7933910  30.8910017
  26.9654633  71.0915163  31.1826755  27.8532589  71.0104309  29.9591050
  24.6431723  79.3376100  27.2983823  25.1070069  79.6163803  26.5088446
  24.3788522  78.4359545  27.1156914  21.5355804  78.8847582  30.2363586
  22.1057162  79.3134850  29.5981071  22.1263916  78.6030167  30.9347772
  23.5800609  75.4599253  24.1073388  24.2824653  75.9120296  24.5747315
  23.2481238  74.8183072  24.7353281  22.0280971  74.0511009  38.4824598
  21.3979632  74.7327290  38.7159995  21.9217059  73.9394091  37.5377736
  17.3225943  73.7182805  29.4090522  16.5324997  73.9740334  28.9330632
  17.8137191  74.5331143  29.5142562  31.3389753  81.0588044  32.1595803
  32.1607197  80.6568232  31.8778484  31.3352156  80.9556279  33.1111918
  19.2740689  74.0827385  26.3673999  18.4771852  74.1946079  26.8857494
  19.0466281  74.4214037  25.5014889  25.1046356  80.6072088  34.3156513
  25.1690789  81.0692495  35.1514685  24.3957280  79.9769453  34.4438823
  15.6063646  73.9713296  31.8405513  15.8571685  74.8560306  32.1063089
  16.1423195  73.7917897  31.0680604  39.4295746  77.4026793  28.5080774
  38.6759454  76.8334191  28.3524779  39.5643287  77.3689457  29.4551409
  24.8194374  82.2740195  24.1835494  24.6840049  83.1191731  24.6120341
  25.3604187  82.4759473  23.4201427  21.3061714  68.3531775  40.8449849
  20.9128659  67.7997974  41.5197493  22.1227854  68.6642354  41.2356366
  18.2723772  79.7915633  24.7563419  18.7848292  80.5858884  24.9068983
  18.9246484  79.0941924  24.6897020  20.0818656  82.9081390  26.8386172
  20.2585285  83.8299354  26.6507156  20.8775490  82.5939809  27.2680552
  24.2229675  69.7689654  38.4370105  24.9639388  70.3696807  38.3574568
  24.4547598  69.0267292  37.8788148  19.3671013  74.9546021  36.7148335
  19.2524528  74.0531279  37.0155434  18.5115530  75.2009718  36.3633152
  26.4462850  82.8963762  38.3135836  26.0026705  82.1100140  37.9956740
  27.1080064  83.0842912  37.6479726  21.2049972  84.4259563  32.8396514
  21.7557397  84.2976627  32.0673508  20.3661448  84.7254452  32.4891407
  28.5444089  83.1766562  36.3417237  28.5262564  83.9975443  35.8497506
  29.4664009  83.0520637  36.5667378  25.0017143  80.6910691  37.1840745
  25.5345480  79.9298979  36.9540053  24.4731224  80.3984343  37.9264900
  28.1686838  65.7970757  32.7134387  27.8251107  66.6872399  32.6373498
  28.5365800  65.6072415  31.8503972  16.2372688  78.1204288  25.5322989
  17.0747910  78.5301296  25.3156697  16.4150956  77.1803730  25.5023183
  28.1337120  75.7879368  21.2206822  27.6183744  76.5583973  21.4595210
  27.8614429  75.1144504  21.8439884  25.7184231  70.6329069  26.2792060
  24.8625828  70.2435919  26.0997699  26.1311183  70.7121030  25.4191846
  27.2483378  68.1675412  30.6783620  26.7448174  68.1305547  29.8651426
  27.5413985  69.0768155  30.7380277  23.4926264  68.2514142  29.6849802
  24.3579261  68.0556951  29.3255691  23.5603773  68.0224494  30.6119159
  33.1071395  78.5411723  23.1559996  32.3300837  78.2022882  22.7115158
  33.7862876  78.5464346  22.4814961  27.9223424  73.6606460  23.0466603
  27.6173559  73.9752610  23.8976746  28.8753866  73.7387880  23.0893936
  26.3669855  79.8196684  24.6959557  25.8391217  79.0849443  24.3832795
  25.8657358  80.5971360  24.4499526  31.3462701  78.0145704  29.8126604
  30.6886376  78.7044966  29.9006732  32.1503101  78.4042136  30.1560590
  21.0988583  70.4816350  27.0566169  21.6732335  70.2591531  26.3239362
  21.6859565  70.5505044  27.8094770  30.1568160  76.3690077  27.8630545
  30.6700042  77.0020069  28.3652255  30.8069384  75.7691272  27.4973905
  21.4258170  72.5120811  21.0762054  20.5895482  72.8495498  21.3971329
  21.2862940  72.3769791  20.1389191  23.4011251  67.3557599  25.7841238
  22.7475663  67.0406616  25.1597853  23.3591725  66.7333339  26.5101061
  24.5122456  77.6376894  17.6994530  23.6049517  77.4066147  17.8985679
  25.0093488  76.8414513  17.8868512  27.4190534  86.3474401  20.6191216
  26.7452233  86.6506098  21.2276174  27.8056356  87.1503481  20.2696674
  26.6348991  73.8439532  30.1088886  25.7171552  74.0654479  29.9510574
  27.0509135  73.9185843  29.2500593  27.4184039  75.2430948  25.2391566
  28.1655858  75.7552345  24.9298688  27.6875628  74.9215001  26.0995960
  25.6910689  77.7389489  22.2218520  24.7821908  77.4548522  22.3190990
  25.7205773  78.1588567  21.3621827  30.9229956  81.3496078  25.9909688
  30.4692284  80.5086988  26.0474878  30.2923923  81.9857477  26.3284468
  29.8662876  72.2788064  27.2210355  29.1285633  71.7665451  27.5520598
  30.1189650  71.8388446  26.4093632  29.3662896  83.1872575  26.9259506
  29.6585870  83.7477632  26.2071872  29.8761516  83.4801136  27.6812665
  29.9674503  65.0564316  27.8152125  30.2733380  64.1961680  27.5278040
  30.6927108  65.6481937  27.6151119  16.2598859  75.4595003  26.2033723
  16.0623259  74.8664364  25.4784789  15.7045523  75.1547213  26.9209661
  24.2395583  75.3518109  28.3228316  24.2944193  74.3991946  28.2470792
  23.4286785  75.5077548  28.8069614  25.3886777  79.2798232  19.5606599
  24.9506207  78.5634091  19.1012236  26.1297218  79.5074347  18.9991690
  22.1787943  73.9695169  26.0818695  21.3655809  74.2689340  26.4883887
  22.6746937  73.5750858  26.7993177  24.3296521  83.9652926  28.0152959
  24.2872700  84.1913772  27.0861491  25.2459220  83.7316301  28.1638760
  27.7762155  74.4336994  34.9133588  28.1311542  74.6608467  35.7728054
  28.4234286  74.7655370  34.2910844  33.5059892  77.5555430  25.6182918
  33.3677790  77.7457025  24.6904107  33.1496110  78.3174812  26.0750969
  21.6702018  71.5413525  31.6979930  22.3101397  71.4002284  31.0002893
  20.8379548  71.2548038  31.3218532  33.5329271  79.6231957  30.6294189
  33.9665778  79.5307246  31.4777243  34.2460852  79.5989457  29.9914205
  22.4462322  80.8415955  27.8114922  23.2402920  80.3466275  27.6097497
  21.7354014  80.3133818  27.4482628  27.2657166  83.2234051  32.1627290
  27.3194188  83.7924987  32.9305006  26.3971947  83.3935936  31.7981327
  18.7545085  74.9859037  23.8874675  17.8242673  74.9243492  24.1044637
  18.8502557  74.4634990  23.0911316  18.6730634  71.5113850  26.4752916
  18.9337451  72.4259183  26.3662077  19.4947807  71.0438292  26.6249529
  20.1455560  72.9251607  33.6451741  20.8178613  72.7168969  32.9964390
  19.3185346  72.7273693  33.2056973  34.3944821  79.6655657  33.1627074
  34.5880711  80.5701468  33.4086349  34.2945439  79.2063076  33.9965659
  26.0481132  69.5513548  35.6617402  25.4009047  70.2503497  35.5681878
  26.8182147  69.9849692  36.0293650  29.4559929  79.8162400  38.7367955
  29.3045436  79.5872952  37.8198039  29.4464609  80.7733001  38.7499300
  26.2245266  77.3894313  33.7214221  27.1537326  77.5405472  33.5483189
  25.8036296  77.4778333  32.8662868  25.0233598  81.4144977  31.4912759
  24.8844683  81.0463761  32.3638697  24.2348194  81.9292617  31.3196717
  25.6181750  86.5154074  22.8338296  25.7933505  86.0442117  23.6483918
  24.9314538  87.1419840  23.0619556  26.5738813  80.7926580  28.8801597
  26.2388645  80.7527350  29.7759247  26.0742758  80.1271296  28.4072007
  20.5483057  76.1994210  34.4054178  20.4102855  75.4674449  35.0065717
  21.4587980  76.1103110  34.1238366  29.5098004  78.1382614  19.1538657
  28.8927175  77.4129442  19.0571709  29.0414493  78.8991974  18.8105731
  23.1765357  75.9114169  33.8937858  23.8864976  75.2707361  33.8524476
  23.1334666  76.1627064  34.8164038  31.1652136  82.8481522  36.8144437
  31.1064682  82.1640743  36.1475020  31.5671654  83.5900512  36.3625063
  21.8894291  72.8979387  35.7133497  21.3531648  72.4470125  36.3655094
  21.3011000  73.0325296  34.9703962  20.1842835  89.6643436  29.6078156
  20.4239433  90.2961960  30.2857174  19.3412031  89.3131476  29.8943515
  21.2996550  72.3568038  18.2759961  20.4226017  72.2356839  17.9122207
  21.7754303  71.5654117  18.0238849  31.1669543  80.8121106  35.0458417
  30.2796322  80.4747028  35.1684815  31.7368094  80.0804138  35.2827182
  12.8198690  77.1445198  28.3701468  13.5069730  76.8306928  27.7822483
  12.6646819  78.0486563  28.0968719  17.6233413  72.0335395  32.7986492
  17.5391601  71.4261064  32.0636902  16.8016119  72.5244413  32.7995988
  24.6970697  85.4722559  32.0119660  24.6240868  86.2777530  32.5238964
  24.2548090  85.6714525  31.1867681  24.4860476  84.7094329  25.5222481
  23.7027998  85.2516009  25.6160706  25.1853222  85.2268308  25.9216723
  27.7957127  70.5188958  28.1656687  28.2925826  69.7658921  27.8457757
  27.0244108  70.5553275  27.5999896  35.6486884  76.2229324  29.8074978
  35.6376760  77.1054039  29.4368911  34.7804263  75.8700875  29.6129515
  27.1569380  85.3709393  34.1677818  27.8697352  86.0056858  34.0953720
  26.6659409  85.4673259  33.3517820  28.8786907  79.2760645  25.7395110
  27.9443186  79.3962108  25.5699814  29.0563576  78.3733112  25.4755120
  24.3792095  72.6606341  27.8928371  24.0089883  72.1077382  28.5809277
  24.8751188  72.0564475  27.3403371  32.2659459  75.1177965  26.2745144
  32.7319911  75.9505956  26.2005447  32.7166959  74.6522946  26.9790403
  22.2081294  83.1203836  34.9883389  22.9090753  83.7540319  35.1412783
  21.7376409  83.4618568  34.2279029  30.3335690  81.4621786  23.2731296
  30.6095534  81.3478381  24.1825170  29.4640188  81.0639271  23.2343469
  30.2376121  67.4858552  30.3136046  29.3239201  67.7162779  30.4818253
  30.6669223  67.5696996  31.1650078  30.0082580  75.6748444  32.8135940
  29.3554030  75.9224351  32.1588392  30.3862960  74.8612582  32.4798417
  26.9689754  85.7108137  26.9164110  27.1512148  84.8929793  27.3791862
  27.7922740  85.9275829  26.4789000  27.3031919  84.6376322  24.1779158
  27.8319686  84.1268777  23.5649321  27.5660139  84.3218852  25.0424691
  26.0570153  76.4168255  39.3001977  25.3810790  76.3162384  39.9704352
  26.8797787  76.2607468  39.7637974  17.8049012  82.6540191  31.9214492
  18.3902449  81.9083879  32.0542396  17.6073850  82.9644148  32.8051156
  20.6587667  85.6891439  26.9376934  19.9898042  86.1737566  26.4540974
  20.5200537  85.9360659  27.8520313  12.3966667  75.2245792  30.6418935
  12.4350766  74.6909382  31.4356053  11.8906959  74.6980997  30.0229912
  24.7992936  87.7235182  33.5359593  25.3511244  87.8866804  34.3008678
  25.1399129  88.3139620  32.8639618  19.7757429  70.0710332  34.1381477
  19.8398755  70.9325163  33.7258875  19.7124549  69.4584334  33.4053836
  19.2509701  72.1433465  37.7854512  19.8781740  71.7610542  38.3992036
  18.3937620  71.9247666  38.1510204  29.6503810  82.5496440  39.3908247
  30.1943714  83.1626398  38.8963202  29.0690655  83.1076018  39.9075260
  16.0275244  73.9509894  23.7172866  16.3228685  73.0420572  23.6639920
  15.1263280  73.9297633  23.3953869  27.9361323  85.6717158  30.5223275
  27.8112462  84.8706898  30.0134220  28.5940414  86.1663351  30.0337245
  19.5569491  72.0265890  29.7000415  18.8356077  72.6401858  29.5607888
  20.3462747  72.5623655  29.6217061  29.9996231  83.4726178  32.1502825
  29.0526567  83.3531529  32.0781152  30.3479004  82.5848676  32.2329086
  22.3595805  69.3620317  35.9741067  22.8830207  69.6082613  36.7367376
  22.1408138  70.1940352  35.5544204  17.7563086  71.6323991  23.8412192
  17.4275792  70.7521370  23.6587298  18.1102456  71.5771660  24.7288581
  27.0042665  83.2678894  28.3507177  26.8567627  82.3395601  28.5314747
  27.8296158  83.2898985  27.8664252  20.8704909  71.9196961  24.2087669
  21.2100981  72.4482882  23.4866278  21.3177029  72.2577367  24.9846236
  30.6076786  84.0907453  29.4372050  31.5323334  83.8850314  29.2996501
  30.4392090  83.8423854  30.3461391  23.5648350  70.3034012  33.6590737
  23.2245170  69.5041825  34.0611417  22.8587356  70.6035723  33.0867571
  24.2164822  67.3883324  32.1118060  25.0390891  66.9143802  31.9896951
  24.4602885  68.1673808  32.6116747  22.8573056  70.4171583  22.4080962
  23.5781419  70.7952835  21.9044679  22.2338360  71.1360460  22.5115940
  27.0004179  71.1216732  23.3439294  27.2167793  72.0041370  23.0428123
  26.5198246  70.7302945  22.6144936  21.7403400  74.0802445  29.9210039
  21.5947981  74.3942748  30.8134321  21.2628604  74.6987345  29.3680938
  23.5999783  71.0704993  29.9690929  23.5861352  70.1746086  29.6323227
  24.3172211  71.0775657  30.6029215  25.4525914  71.5042333  32.0144056
  25.1943692  72.4259404  32.0128386  24.9210954  71.1072768  32.7044520
  30.3972103  84.6093120  24.7934141  30.5708980  84.0439543  24.0407994
  30.8900994  85.4094015  24.6113631  16.2149063  76.6207789  32.8597700
  15.6702531  77.3967597  32.9917975  17.0928412  76.9678594  32.7016822
  23.0036679  69.9519373  25.2378499  23.1252590  69.0236019  25.4369386
  22.7138722  69.9658059  24.3256814  25.8727870  67.6374284  28.3745219
  25.8949566  67.7013617  27.4197198  26.2895929  66.7978792  28.5685725
  36.2511494  77.3729543  26.4124441  36.6942640  76.6236868  26.0143564
  35.3738004  77.3639680  26.0298173  31.3847275  83.9259885  21.8931040
  32.0798180  84.5466577  22.1118354  31.7270425  83.0755236  22.1683418
  17.0015084  75.7477686  35.7527857  16.2596820  75.8960321  36.3392487
  16.6807829  76.0085951  34.8894606  33.2838698  81.3759590  23.4218370
  33.8090022  81.7146863  22.6967690  33.1961051  80.4406605  23.2381505
  24.9458747  85.2893664  35.5508247  25.2545873  85.0442811  36.4230947
  25.7434229  85.4940302  35.0627117  24.9679359  87.4431573  27.7813624
  24.5284349  86.9507952  28.4746480  25.7187476  86.9004541  27.5405699
  17.4471698  83.6343114  27.7838252  18.2729718  83.3346886  27.4036895
  17.0965750  82.8650737  28.2328040  22.4153231  82.9869583  29.8535925
  21.7933240  82.3240288  29.5538153  23.0858098  83.0130714  29.1709573
  15.6480303  81.5529441  28.7427185  14.8112211  81.1251615  28.5611187
  15.6203949  81.7461884  29.6797976  22.4877759  71.4651371  39.4468431
  22.5365914  72.3413493  39.0646201  23.0300273  70.9228764  38.8740075
  32.9732604  82.0092494  38.7269568  32.1828148  81.9916633  38.1874068
  32.7365959  82.5480787  39.4818605  33.0930479  78.8584960  36.0402297
  33.1428484  78.6934968  36.9817820  32.9844403  77.9912219  35.6500178
  21.9766738  81.5373506  23.3294386  22.1254858  82.2208970  22.6761059
  22.7833182  81.5178596  23.8443842  30.3834242  74.8415888  37.3561604
  31.2844105  74.7022353  37.0645601  30.4582216  75.0070343  38.2959781
  24.7177047  72.2182743  36.2014790  23.8480357  72.5116309  35.9297378
  24.9536528  72.8023188  36.9222054  34.5948676  81.2781902  36.2844318
  34.3033485  81.6411882  37.1207779  33.9820808  80.5648910  36.1057651
  35.7944359  78.8434781  28.8046889  36.6291250  79.2824586  28.9684449
  35.9303487  78.3673435  27.9855134  32.8435865  76.4014516  34.7524376
  33.3189986  76.5942163  33.9443228  31.9201430  76.4573702  34.5067760
  19.7319371  77.5638683  24.3355455  19.4865413  76.6601013  24.5335665
  19.9015286  77.5655834  23.3934933  27.4216081  68.4362360  33.7180210
  27.9398025  69.1723387  33.3926699  27.0671214  68.7426353  34.5526969
  19.0015019  73.2967041  21.8341616  18.3084264  73.3711396  21.1781652
  18.7566771  72.5327385  22.3563133  27.6728675  64.8562642  29.2381107
  27.9530429  64.1885831  29.8641533  28.4579282  65.0491738  28.7255771
  25.4762144  84.0321636  20.8006133  24.9036111  84.6511823  20.3476605
  26.0494937  84.5820998  21.3346055  31.5437534  73.2780276  32.9852682
  32.4954956  73.3778374  33.0064906  31.3740984  72.4858545  33.4950766
  29.5651913  70.3635860  33.1712083  28.9701845  70.6440872  32.4758572
  29.2801610  70.8529761  33.9428824  28.6959403  84.3158786  21.9314716
  29.6290077  84.2504348  22.1347591  28.6082616  85.1515053  21.4729248
  31.3247420  83.6324657  18.8918663  31.2461052  83.2984520  19.7854421
  32.1457087  84.1246425  18.8910135  34.0225611  76.4986396  32.0994982
  33.9901931  75.5602397  32.2854666  34.6326235  76.5770433  31.3660807
  25.8608942  75.3682449  18.1422186  26.8068047  75.2388657  18.2110604
  25.4823187  74.6297111  18.6191614  34.1720100  73.2897440  32.1453265
  33.6559148  72.5055896  31.9583194  35.0560048  72.9616156  32.3099784
  31.8330827  67.0338455  28.1049078  31.6355648  66.7253543  28.9892410
  32.4430532  67.7600094  28.2347007  39.8402161  77.5602403  31.2401018
  40.5705550  77.2987691  31.8008722  39.2309107  76.8231125  31.2803086
  37.9217458  75.7010266  31.8375470  37.1950622  75.5666230  31.2291961
  37.5064745  76.0087094  32.6432188  25.7447635  79.4200195  39.6022843
  26.6650644  79.5978794  39.7962889  25.7097218  78.4756241  39.4502542
  24.0451859  73.2932425  18.0777071  23.1383315  72.9965538  18.1539785
  24.3227840  72.9962244  17.2111357  14.9629800  74.6138789  28.5276117
  14.6432584  73.7604097  28.2350491  14.4163228  74.8287367  29.2834085
  18.7409707  77.3301230  32.2445624  18.9595717  78.2618338  32.2633658
  19.1535481  76.9709204  33.0300428  25.6613925  67.8369315  24.2321312
  24.8514653  67.4916400  24.6076558  26.3498342  67.5276859  24.8208924
  27.5904473  66.9147362  25.8545609  28.1435512  67.3342815  26.5135632
  27.8274560  65.9883110  25.8968565  23.6137573  72.9034436  41.6348373
  23.5134299  73.8528793  41.5660464  23.3959115  72.5752675  40.7624443
  22.8150644  70.1519361  18.2189050  23.6769808  70.4774259  18.4784868
  23.0000988  69.3650857  17.7062116  14.8318060  78.2341700  30.4969239
  14.1381531  77.8195653  29.9839193  15.5791051  78.2762237  29.9002658
  30.9683280  69.0247887  25.3624273  30.3881949  69.6832691  24.9802326
  30.7019213  68.2025232  24.9511691  29.4186847  68.4252945  27.5645593
  29.9186625  68.5369479  26.7559912  30.0622455  68.1213998  28.2046402
  23.4768843  76.3331574  40.4513434  22.9935924  77.1331935  40.6577323
  23.5629782  76.3439519  39.4980878  16.7454802  78.1659954  28.3735254
  16.7225490  78.2647641  27.4217137  17.0555439  79.0125105  28.6952420
  19.4042180  80.2236109  32.4881868  20.3585434  80.1920051  32.4211800
  19.2054704  79.7626733  33.3032094  19.9941562  78.7937225  35.0552666
  20.8134451  79.2881304  35.0787503  20.2678370  77.8769193  35.0270233
  29.7508158  71.1847978  24.4180621  28.8634013  71.4697628  24.2000816
  30.1662147  71.0241741  23.5707898  33.1022695  71.2094498  28.1334961
  33.8783085  71.6990951  28.4059577  32.3770829  71.6352553  28.5906830
  35.5395253  71.9222118  29.1908901  36.1339744  71.6817854  28.4802210
  35.6121837  71.2029248  29.8182438  17.7592409  85.7655729  29.5052066
  17.6246877  85.0056130  28.9390064  17.3424471  86.4896629  29.0380855
  28.8951372  80.9492652  18.5128641  29.5987222  81.1542655  19.1286297
  28.1714021  81.5169414  18.7777725  29.7249182  76.7002513  24.6330912
  29.6684384  77.1571065  23.7938544  30.2777525  75.9393198  24.4553754
  33.5353988  72.4892245  25.4581031  33.2790922  72.0888881  26.2889239
  32.9106856  73.2036039  25.3331170  37.8466326  75.2288319  27.9652322
  37.2865884  75.2981508  28.7383885  37.2409829  75.0529303  27.2451819
  20.9161535  86.6625046  29.7170509  20.7993919  87.6070478  29.6149199
  20.0953981  86.3598607  30.1056308  30.8038069  81.3875181  20.5627101
  31.6383673  80.9556380  20.3804576  30.6422412  81.2157195  21.4903996
  30.4583961  77.8907295  21.9283441  30.4032765  77.7251566  20.9871885
  29.8330017  78.5983328  22.0845630  15.2476476  73.1275359  35.7544863
  15.8935340  72.6174313  36.2432088  15.0393628  73.8644041  36.3288288
  27.7729869  80.1956207  41.2537004  28.6421028  80.3696859  40.8923638
  27.2936620  81.0150623  41.1312733  23.7680087  67.3915404  21.5068759
  23.7558757  68.3357244  21.6637030  24.6603509  67.2085549  21.2128220
  21.9416049  87.3153308  32.9326437  22.8443296  87.3476918  33.2492932
  21.7153419  86.3853759  32.9472773  23.6969651  86.0684294  29.5936516
  22.7465282  86.0686156  29.4800888  24.0002137  85.3217029  29.0772550
  27.5832206  63.9858180  25.7614696  26.8164602  63.4316667  25.9071378
  27.9942911  64.0580049  26.6228848  19.5873967  70.2742976  39.8519877
  20.4505429  69.9179781  40.0623202  19.0139378  69.9356871  40.5395281
  39.4322344  91.9044832  30.6582278  40.0700754  91.7851580  29.9545618
  39.3143187  92.8525676  30.7170230  36.2412051  91.8572261  30.5943803
  35.9030562  91.7413325  29.7064338  37.1101819  91.4563426  30.5744809
  32.0998866  93.7107737  26.5840694  31.5363731  93.6197674  25.8156982
  31.9851261  92.8907641  27.0643186  36.7231834  93.0107112  36.5530008
  36.7120474  92.6159911  35.6810512  36.8852473  92.2773185  37.1463780
  29.6463298  95.2058929  29.4224914  30.4384590  94.8649753  29.0071214
  29.8859948  95.3153904  30.3427068  37.6798425  97.3778705  21.8955159
  37.0286405  97.9632785  21.5089173  38.4742788  97.9084900  21.9550196
  31.6054052  94.4667842  22.2942293  32.3784928  93.9196829  22.1555169
  31.9579451  95.3312091  22.5056754  33.4439095  95.7944224  35.5009192
  33.1528961  96.6989855  35.3855859  34.0796079  95.8360752  36.2153262
  34.3695302  93.1721073  32.0910552  34.9658874  92.9477095  31.3767515
  34.4270273  92.4305818  32.6936000  33.9420330  90.6260508  19.9260743
  34.1945851  90.1042029  19.1644206  33.0044889  90.4626653  20.0287427
  38.9863613  89.6296286  27.7335486  39.7726702  89.2115710  27.3825903
  39.2502317  90.5342379  27.9017135  39.1573690  95.0669137  22.4324143
  38.5219523  95.1403763  23.1445048  38.8271097  95.6562735  21.7543222
  44.3872040  89.5671520  28.6368465  45.1197212  88.9970736  28.8706294
  43.6311396  89.1793120  29.0774970  33.6616619  92.5288614  22.1285118
  33.5452877  91.8533517  22.7966202  33.7718879  92.0420988  21.3117271
  36.0048160  91.9898761  25.8331807  35.6406367  91.4629382  26.5444729
  36.8615276  91.5997230  25.6598293  41.9097460  83.2793094  33.0963073
  41.5780785  84.1488505  32.8724288  41.3143074  82.9629378  33.7757104
  35.6453647  87.0188661  20.8293156  35.8128049  87.8868897  21.1963627
  35.4550816  87.1815942  19.9054445  38.4028980  95.4805640  32.4958986
  38.1029703  96.3830678  32.3874793  38.0580039  95.2137823  33.3480139
  31.8541461  91.9319436  28.5295691  30.9291958  91.7995651  28.7373382
  32.1025875  92.7113656  29.0265633  41.8026124  87.9988180  30.1756423
  40.8943001  87.9303588  29.8815184  41.7513719  88.4760125  31.0038249
  35.6242868  89.4746318  21.8139823  35.5042493  89.9203369  22.6525303
  34.9295456  89.8231636  21.2553361  29.2150272  91.5752710  29.3639480
  29.3442654  91.8287189  30.2778891  28.5347724  92.1680418  29.0444135
  33.3849760 102.2449960  25.4629954  33.3073789 103.1957785  25.5418434
  32.7811403 101.8995832  26.1204880  35.8766989  89.4177825  38.1191321
  35.1000324  89.9771746  38.1094185  36.5157553  89.9034608  38.6406191
  43.6687770  86.2004618  31.9534297  43.0262150  86.4937151  31.3074092
  43.1642699  86.0857539  32.7587494  41.3227934  89.9467791  22.6420157
  42.2345790  90.1795178  22.4667854  40.8137581  90.5304836  22.0795235
  34.1313362  92.2263279  37.6809288  34.8728046  92.7648323  37.4044111
  33.4250347  92.8529568  37.8380839  39.6068701  94.3692419  36.2781449
  40.0152057  93.9274830  35.5336082  38.8845963  93.7945047  36.5315642
  35.9599771  89.3065026  33.6515006  36.8060967  89.7304440  33.7949655
  35.8998409  88.6498650  34.3453569  39.9297516  94.9293610  30.0333738
  39.3006378  95.0939324  29.3309806  39.5423178  95.3435219  30.8044702
  43.8086748  95.8648048  27.3878102  43.1237786  96.2446949  26.8375135
  43.8930597  96.4743374  28.1210050  39.1099217  86.9669394  35.3096180
  38.8660149  87.7211455  34.7730455  39.3859147  87.3454742  36.1443427
  41.0637680  93.5108007  33.9873445  41.2754575  94.1539767  33.3107826
  41.0167428  92.6770323  33.5195375  38.6663909  86.1225827  30.8910017
  37.8048388  86.4207081  31.1826755  38.6926343  86.3396226  29.9591050
  35.4825478  94.6668018  27.2983823  35.9463823  94.9455721  26.5088446
  35.2182276  93.7651463  27.1156914  32.3749559  94.2139499  30.2363586
  32.9450916  94.6426768  29.5981071  32.9657671  93.9322084  30.9347772
  34.4194364  90.7891170  24.1073388  35.1218407  91.2412214  24.5747315
  34.0874992  90.1474989  24.7353281  32.8674726  89.3802927  38.4824598
  32.2373386  90.0619208  38.7159995  32.7610813  89.2686009  37.5377736
  28.1619698  89.0474723  29.4090522  27.3718752  89.3032252  28.9330632
  28.6530945  89.8623061  29.5142562  42.1783507  96.3879962  32.1595803
  43.0000951  95.9860149  31.8778484  42.1745910  96.2848196  33.1111918
  30.1134443  89.4119302  26.3673999  29.3165607  89.5237996  26.8857494
  29.8860036  89.7505954  25.5014889  35.9440111  95.9364005  34.3156513
  36.0084543  96.3984413  35.1514685  35.2351035  95.3061370  34.4438823
  26.4457401  89.3005213  31.8405513  26.6965439  90.1852223  32.1063089
  26.9816949  89.1209815  31.0680604  50.2689501  92.7318711  28.5080774
  49.5153209  92.1626109  28.3524779  50.4037042  92.6981375  29.4551409
  35.6588129  97.6032113  24.1835494  35.5233803  98.4483649  24.6120341
  36.1997941  97.8051391  23.4201427  32.1455468  83.6823693  40.8449849
  31.7522414  83.1289891  41.5197493  32.9621609  83.9934271  41.2356366
  29.1117526  95.1207551  24.7563419  29.6242047  95.9150801  24.9068983
  29.7640239  94.4233841  24.6897020  30.9212411  98.2373307  26.8386172
  31.0979039  99.1591272  26.6507156  31.7169244  97.9231726  27.2680552
  35.0623429  85.0981572  38.4370105  35.8033143  85.6988725  38.3574568
  35.2941352  84.3559210  37.8788148  30.2064767  90.2837939  36.7148335
  30.0918282  89.3823196  37.0155434  29.3509285  90.5301636  36.3633152
  37.2856605  98.2255679  38.3135836  36.8420459  97.4392058  37.9956740
  37.9473819  98.4134830  37.6479726  32.0443726  99.7551481  32.8396514
  32.5951151  99.6268544  32.0673508  31.2055202 100.0546370  32.4891407
  39.3837843  98.5058479  36.3417237  39.3656318  99.3267360  35.8497506
  40.3057763  98.3812555  36.5667378  35.8410897  96.0202609  37.1840745
  36.3739234  95.2590897  36.9540053  35.3124978  95.7276261  37.9264900
  39.0080592  81.1262675  32.7134387  38.6644862  82.0164317  32.6373498
  39.3759555  80.9364332  31.8503972  27.0766443  93.4496205  25.5322989
  27.9141665  93.8593214  25.3156697  27.2544710  92.5095647  25.5023183
  38.9730875  91.1171286  21.2206822  38.4577498  91.8875891  21.4595210
  38.7008183  90.4436422  21.8439884  36.5577986  85.9620987  26.2792060
  35.7019582  85.5727837  26.0997699  36.9704938  86.0412948  25.4191846
  38.0877133  83.4967330  30.6783620  37.5841928  83.4597465  29.8651426
  38.3807739  84.4060073  30.7380277  34.3320018  83.5806060  29.6849802
  35.1973015  83.3848868  29.3255691  34.3997527  83.3516411  30.6119159
  43.9465149  93.8703641  23.1559996  43.1694592  93.5314800  22.7115158
  44.6256630  93.8756264  22.4814961  38.7617178  88.9898378  23.0466603
  38.4567314  89.3044527  23.8976746  39.7147620  89.0679798  23.0893936
  37.2063610  95.1488601  24.6959557  36.6784971  94.4141361  24.3832795
  36.7051113  95.9263278  24.4499526  42.1856456  93.3437622  29.8126604
  41.5280130  94.0336883  29.9006732  42.9896855  93.7334054  30.1560590
  31.9382338  85.8108268  27.0566169  32.5126089  85.5883449  26.3239362
  32.5253320  85.8796962  27.8094770  40.9961915  91.6981995  27.8630545
  41.5093796  92.3311986  28.3652255  41.6463139  91.0983190  27.4973905
  32.2651925  87.8412729  21.0762054  31.4289237  88.1787415  21.3971329
  32.1256694  87.7061708  20.1389191  34.2405005  82.6849517  25.7841238
  33.5869418  82.3698534  25.1597853  34.1985479  82.0625257  26.5101061
  35.3516210  92.9668812  17.6994530  34.4443272  92.7358065  17.8985679
  35.8487242  92.1706431  17.8868512  38.2584289 101.6766319  20.6191216
  37.5845988 101.9798016  21.2276174  38.6450111 102.4795399  20.2696674
  37.4742746  89.1731450  30.1088886  36.5565307  89.3946397  29.9510574
  37.8902889  89.2477761  29.2500593  38.2577793  90.5722866  25.2391566
  39.0049612  91.0844263  24.9298688  38.5269383  90.2506918  26.0995960
  36.5304444  93.0681406  22.2218520  35.6215663  92.7840439  22.3190990
  36.5599527  93.4880485  21.3621827  41.7623711  96.6787996  25.9909688
  41.3086038  95.8378906  26.0474878  41.1317678  97.3149394  26.3284468
  40.7056631  87.6079982  27.2210355  39.9679387  87.0957368  27.5520598
  40.9583404  87.1680364  26.4093632  40.2056650  98.5164493  26.9259506
  40.4979625  99.0769550  26.2071872  40.7155271  98.8093054  27.6812665
  40.8068258  80.3856234  27.8152125  41.1127135  79.5253597  27.5278040
  41.5320863  80.9773854  27.6151119  27.0992614  90.7886921  26.2033723
  26.9017014  90.1956281  25.4784789  26.5439278  90.4839131  26.9209661
  35.0789338  90.6810027  28.3228316  35.1337947  89.7283863  28.2470792
  34.2680540  90.8369466  28.8069614  36.2280531  94.6090150  19.5606599
  35.7899961  93.8926009  19.1012236  36.9690972  94.8366265  18.9991690
  33.0181697  89.2987087  26.0818695  32.2049563  89.5981257  26.4883887
  33.5140692  88.9042776  26.7993177  35.1690275  99.2944844  28.0152959
  35.1266454  99.5205690  27.0861491  36.0852974  99.0608218  28.1638760
  38.6155909  89.7628911  34.9133588  38.9705297  89.9900384  35.7728054
  39.2628040  90.0947288  34.2910844  44.3453646  92.8847347  25.6182918
  44.2071545  93.0748943  24.6904107  43.9889865  93.6466730  26.0750969
  32.5095772  86.8705442  31.6979930  33.1495152  86.7294201  31.0002893
  31.6773303  86.5839956  31.3218532  44.3723026  94.9523874  30.6294189
  44.8059532  94.8599163  31.4777243  45.0854606  94.9281375  29.9914205
  33.2856076  96.1707873  27.8114922  34.0796675  95.6758193  27.6097497
  32.5747769  95.6425736  27.4482628  38.1050921  98.5525968  32.1627290
  38.1587943  99.1216905  32.9305006  37.2365702  98.7227853  31.7981327
  29.5938840  90.3150955  23.8874675  28.6636428  90.2535410  24.1044637
  29.6896312  89.7926907  23.0911316  29.5124389  86.8405767  26.4752916
  29.7731206  87.7551101  26.3662077  30.3341561  86.3730210  26.6249529
  30.9849314  88.2543525  33.6451741  31.6572367  88.0460887  32.9964390
  30.1579101  88.0565611  33.2056973  45.2338575  94.9947575  33.1627074
  45.4274465  95.8993385  33.4086349  45.1339193  94.5354994  33.9965659
  36.8874886  84.8805465  35.6617402  36.2402801  85.5795415  35.5681878
  37.6575901  85.3141609  36.0293650  40.2953684  95.1454318  38.7367955
  40.1439190  94.9164869  37.8198039  40.2858363  96.1024919  38.7499300
  37.0639020  92.7186230  33.7214221  37.9931080  92.8697390  33.5483189
  36.6430050  92.8070251  32.8662868  35.8627352  96.7436895  31.4912759
  35.7238438  96.3755679  32.3638697  35.0741948  97.2584534  31.3196717
  36.4575504 101.8445991  22.8338296  36.6327260 101.3734034  23.6483918
  35.7708292 102.4711757  23.0619556  37.4132567  96.1218497  28.8801597
  37.0782400  96.0819267  29.7759247  36.9136513  95.4563213  28.4072007
  31.3876811  91.5286127  34.4054178  31.2496609  90.7966366  35.0065717
  32.2981735  91.4395028  34.1238366  40.3491759  93.4674532  19.1538657
  39.7320930  92.7421360  19.0571709  39.8808247  94.2283892  18.8105731
  34.0159112  91.2406087  33.8937858  34.7258730  90.5999279  33.8524476
  33.9728420  91.4918982  34.8164038  42.0045891  98.1773440  36.8144437
  41.9458437  97.4932660  36.1475020  42.4065409  98.9192430  36.3625063
  32.7288046  88.2271305  35.7133497  32.1925403  87.7762043  36.3655094
  32.1404754  88.3617214  34.9703962  31.0236589 104.9935354  29.6078156
  31.2633188 105.6253878  30.2857174  30.1805786 104.6423394  29.8943515
  32.1390305  87.6859956  18.2759961  31.2619771  87.5648757  17.9122207
  32.6148058  86.8946034  18.0238849  42.0063298  96.1413024  35.0458417
  41.1190077  95.8038946  35.1684815  42.5761849  95.4096055  35.2827182
  23.6592445  92.4737116  28.3701468  24.3463485  92.1598846  27.7822483
  23.5040574  93.3778480  28.0968719  28.4627167  87.3627312  32.7986492
  28.3785356  86.7552982  32.0636902  27.6409874  87.8536331  32.7995988
  35.5364451 100.8014476  32.0119660  35.4634623 101.6069448  32.5238964
  35.0941844 101.0006442  31.1867681  35.3254231 100.0386246  25.5222481
  34.5421753 100.5807927  25.6160706  36.0246976 100.5560226  25.9216723
  38.6350881  85.8480876  28.1656687  39.1319581  85.0950838  27.8457757
  37.8637863  85.8845193  27.5999896  46.4880638  91.5521241  29.8074978
  46.4770515  92.4345957  29.4368911  45.6198018  91.1992792  29.6129515
  37.9963135 100.7001310  34.1677818  38.7091107 101.3348775  34.0953720
  37.5053163 100.7965176  33.3517820  39.7180662  94.6052563  25.7395110
  38.7836940  94.7254026  25.5699814  39.8957330  93.7025030  25.4755120
  35.2185850  87.9898259  27.8928371  34.8483637  87.4369299  28.5809277
  35.7144942  87.3856392  27.3403371  43.1053213  90.4469882  26.2745144
  43.5713665  91.2797874  26.2005447  43.5560714  89.9814864  26.9790403
  33.0475048  98.4495754  34.9883389  33.7484508  99.0832237  35.1412783
  32.5770163  98.7910485  34.2279029  41.1729444  96.7913704  23.2731296
  41.4489288  96.6770298  24.1825170  40.3033943  96.3931189  23.2343469
  41.0769876  82.8150469  30.3136046  40.1632956  83.0454696  30.4818253
  41.5062977  82.8988913  31.1650078  40.8476334  91.0040361  32.8135940
  40.1947785  91.2516269  32.1588392  41.2256714  90.1904500  32.4798417
  37.8083508 101.0400055  26.9164110  37.9905903 100.2221710  27.3791862
  38.6316494 101.2567747  26.4789000  38.1425674  99.9668240  24.1779158
  38.6713440  99.4560694  23.5649321  38.4053893  99.6510770  25.0424691
  36.8963907  91.7460172  39.3001977  36.2204544  91.6454302  39.9704352
  37.7191541  91.5899386  39.7637974  28.6442766  97.9832109  31.9214492
  29.2296203  97.2375797  32.0542396  28.4467605  98.2936066  32.8051156
  31.4981422 101.0183356  26.9376934  30.8291797 101.5029484  26.4540974
  31.3594291 101.2652577  27.8520313  23.2360421  90.5537709  30.6418935
  23.2744521  90.0201300  31.4356053  22.7300714  90.0272915  30.0229912
  35.6386690 103.0527100  33.5359593  36.1904998 103.2158721  34.3008678
  35.9792884 103.6431538  32.8639618  30.6151183  85.4002250  34.1381477
  30.6792510  86.2617081  33.7258875  30.5518304  84.7876251  33.4053836
  30.0903456  87.4725382  37.7854512  30.7175495  87.0902460  38.3992036
  29.2331375  87.2539584  38.1510204  40.4897565  97.8788357  39.3908247
  41.0337468  98.4918316  38.8963202  39.9084409  98.4367936  39.9075260
  26.8668999  89.2801811  23.7172866  27.1622440  88.3712490  23.6639920
  25.9657034  89.2589551  23.3953869  38.7755077 101.0009075  30.5223275
  38.6506217 100.1998815  30.0134220  39.4334169 101.4955269  30.0337245
  30.3963246  87.3557808  29.7000415  29.6749831  87.9693776  29.5607888
  31.1856501  87.8915573  29.6217061  40.8389986  98.8018095  32.1502825
  39.8920321  98.6823447  32.0781152  41.1872759  97.9140594  32.2329086
  33.1989559  84.6912234  35.9741067  33.7223961  84.9374531  36.7367376
  32.9801892  85.5232269  35.5544204  28.5956840  86.9615909  23.8412192
  28.2669546  86.0813288  23.6587298  28.9496211  86.9063578  24.7288581
  37.8436419  98.5970812  28.3507177  37.6961382  97.6687519  28.5314747
  38.6689913  98.6190902  27.8664252  31.7098663  87.2488879  24.2087669
  32.0494736  87.7774800  23.4866278  32.1570784  87.5869285  24.9846236
  41.4470541  99.4199370  29.4372050  42.3717088  99.2142232  29.2996501
  41.2785844  99.1715772  30.3461391  34.4042104  85.6325930  33.6590737
  34.0638925  84.8333743  34.0611417  33.6981111  85.9327640  33.0867571
  35.0558576  82.7175242  32.1118060  35.8784645  82.2435720  31.9896951
  35.2996640  83.4965726  32.6116747  33.6966811  85.7463500  22.4080962
  34.4175173  86.1244753  21.9044679  33.0732115  86.4652377  22.5115940
  37.8397933  86.4508649  23.3439294  38.0561548  87.3333287  23.0428123
  37.3592001  86.0594863  22.6144936  32.5797155  89.4094363  29.9210039
  32.4341736  89.7234666  30.8134321  32.1022358  90.0279263  29.3680938
  34.4393538  86.3996911  29.9690929  34.4255106  85.5038004  29.6323227
  35.1565966  86.4067574  30.6029215  36.2919668  86.8334251  32.0144056
  36.0337446  87.7551321  32.0128386  35.7604709  86.4364685  32.7044520
  41.2365857  99.9385038  24.7934141  41.4102735  99.3731460  24.0407994
  41.7294748 100.7385933  24.6113631  27.0542817  91.9499707  32.8597700
  26.5096285  92.7259515  32.9917975  27.9322167  92.2970511  32.7016822
  33.8430434  85.2811291  25.2378499  33.9646345  84.3527937  25.4369386
  33.5532476  85.2949977  24.3256814  36.7121624  82.9666201  28.3745219
  36.7343321  83.0305534  27.4197198  37.1289683  82.1270710  28.5685725
  47.0905248  92.7021461  26.4124441  47.5336394  91.9528786  26.0143564
  46.2131759  92.6931597  26.0298173  42.2241030  99.2551802  21.8931040
  42.9191934  99.8758495  22.1118354  42.5664180  98.4047154  22.1683418
  27.8408839  91.0769603  35.7527857  27.0990575  91.2252239  36.3392487
  27.5201583  91.3377869  34.8894606  44.1232453  96.7051508  23.4218370
  44.6483777  97.0438781  22.6967690  44.0354805  95.7698523  23.2381505
  35.7852502 100.6185581  35.5508247  36.0939628 100.3734728  36.4230947
  36.5827984 100.8232220  35.0627117  35.8073114 102.7723491  27.7813624
  35.3678104 102.2799870  28.4746480  36.5581231 102.2296459  27.5405699
  28.2865453  98.9635032  27.7838252  29.1123472  98.6638804  27.4036895
  27.9359505  98.1942654  28.2328040  33.2546986  98.3161500  29.8535925
  32.6326995  97.6532205  29.5538153  33.9251853  98.3422632  29.1709573
  26.4874058  96.8821358  28.7427185  25.6505966  96.4543533  28.5611187
  26.4597703  97.0753802  29.6797976  33.3271513  86.7943288  39.4468431
  33.3759669  87.6705411  39.0646201  33.8694027  86.2520681  38.8740075
  43.8126359  97.3384411  38.7269568  43.0221903  97.3208550  38.1874068
  43.5759713  97.8772705  39.4818605  43.9324234  94.1876878  36.0402297
  43.9822239  94.0226885  36.9817820  43.8238157  93.3204137  35.6500178
  32.8160493  96.8665424  23.3294386  32.9648613  97.5500888  22.6761059
  33.6226936  96.8470514  23.8443842  41.2227996  90.1707806  37.3561604
  42.1237859  90.0314271  37.0645601  41.2975971  90.3362261  38.2959781
  35.5570802  87.5474661  36.2014790  34.6874111  87.8408227  35.9297378
  35.7930282  88.1315106  36.9222054  45.4342431  96.6073819  36.2844318
  45.1427239  96.9703800  37.1207779  44.8214562  95.8940828  36.1057651
  46.6338113  94.1726699  28.8046889  47.4685004  94.6116503  28.9684449
  46.7697242  93.6965352  27.9855134  43.6829619  91.7306434  34.7524376
  44.1583741  91.9234080  33.9443228  42.7595184  91.7865620  34.5067760
  30.5713126  92.8930601  24.3355455  30.3259168  91.9892931  24.5335665
  30.7409040  92.8947752  23.3934933  38.2609835  83.7654278  33.7180210
  38.7791779  84.5015304  33.3926699  37.9064968  84.0718271  34.5526969
  29.8408773  88.6258959  21.8341616  29.1478018  88.7003314  21.1781652
  29.5960525  87.8619302  22.3563133  38.5122430  80.1854560  29.2381107
  38.7924183  79.5177749  29.8641533  39.2973037  80.3783656  28.7255771
  36.3155898  99.3613554  20.8006133  35.7429865  99.9803741  20.3476605
  36.8888692  99.9112916  21.3346055  42.3831288  88.6072194  32.9852682
  43.3348711  88.7070292  33.0064906  42.2134738  87.8150463  33.4950766
  40.4045667  85.6927777  33.1712083  39.8095600  85.9732790  32.4758572
  40.1195364  86.1821678  33.9428824  39.5353158  99.6450704  21.9314716
  40.4683831  99.5796266  22.1347591  39.4476371 100.4806971  21.4729248
  42.1641175  98.9616574  18.8918663  42.0854806  98.6276438  19.7854421
  42.9850841  99.4538342  18.8910135  44.8619366  91.8278314  32.0994982
  44.8295686  90.8894314  32.2854666  45.4719989  91.9062350  31.3660807
  36.7002697  90.6974367  18.1422186  37.6461801  90.5680575  18.2110604
  36.3216942  89.9589029  18.6191614  45.0113854  88.6189357  32.1453265
  44.4952903  87.8347814  31.9583194  45.8953803  88.2908074  32.3099784
  42.6724581  82.3630373  28.1049078  42.4749402  82.0545461  28.9892410
  43.2824287  83.0892012  28.2347007  50.6795916  92.8894321  31.2401018
  51.4099304  92.6279609  31.8008722  50.0702861  92.1523043  31.2803086
  48.7611213  91.0302183  31.8375470  48.0344376  90.8958148  31.2291961
  48.3458500  91.3379012  32.6432188  36.5841389  94.7492113  39.6022843
  37.5044399  94.9270712  39.7962889  36.5490972  93.8048158  39.4502542
  34.8845614  88.6224343  18.0777071  33.9777069  88.3257456  18.1539785
  35.1621595  88.3254161  17.2111357  25.8023554  89.9430707  28.5276117
  25.4826339  89.0896015  28.2350491  25.2556982  90.1579285  29.2834085
  29.5803462  92.6593148  32.2445624  29.7989472  93.5910255  32.2633658
  29.9929236  92.3001122  33.0300428  36.5007680  83.1661233  24.2321312
  35.6908408  82.8208318  24.6076558  37.1892096  82.8568777  24.8208924
  38.4298228  82.2439280  25.8545609  38.9829266  82.6634733  26.5135632
  38.6668314  81.3175028  25.8968565  34.4531327  88.2326353  41.6348373
  34.3528054  89.1820710  41.5660464  34.2352869  87.9044592  40.7624443
  33.6544398  85.4811278  18.2189050  34.5163562  85.8066177  18.4784868
  33.8394743  84.6942774  17.7062116  25.6711814  93.5633618  30.4969239
  24.9775286  93.1487571  29.9839193  26.4184805  93.6054155  29.9002658
  41.8077035  84.3539805  25.3624273  41.2275704  85.0124609  24.9802326
  41.5412968  83.5317149  24.9511691  40.2580601  83.7544863  27.5645593
  40.7580380  83.8661397  26.7559912  40.9016209  83.4505915  28.2046402
  34.3162597  91.6623492  40.4513434  33.8329679  92.4623852  40.6577323
  34.4023536  91.6731437  39.4980878  27.5848557  93.4951872  28.3735254
  27.5619245  93.5939559  27.4217137  27.8949193  94.3417023  28.6952420
  30.2435935  95.5528027  32.4881868  31.1979188  95.5211969  32.4211800
  30.0448458  95.0918651  33.3032094  30.8335317  94.1229143  35.0552666
  31.6528206  94.6173222  35.0787503  31.1072124  93.2061111  35.0270233
  40.5901913  86.5139895  24.4180621  39.7027768  86.7989546  24.2000816
  41.0055902  86.3533659  23.5707898  43.9416449  86.5386416  28.1334961
  44.7176839  87.0282869  28.4059577  43.2164583  86.9644470  28.5906830
  46.3789008  87.2514035  29.1908901  46.9733498  87.0109771  28.4802210
  46.4515591  86.5321166  29.8182438  28.5986163 101.0947646  29.5052066
  28.4640631 100.3348047  28.9390064  28.1818226 101.8188546  29.0380855
  39.7345126  96.2784570  18.5128641  40.4380977  96.4834572  19.1286297
  39.0107775  96.8461332  18.7777725  40.5642937  92.0294431  24.6330912
  40.5078138  92.4862983  23.7938544  41.1171279  91.2685116  24.4553754
  44.3747743  87.8184163  25.4581031  44.1184677  87.4180799  26.2889239
  43.7500611  88.5327957  25.3331170  48.6860080  90.5580236  27.9652322
  48.1259638  90.6273426  28.7383885  48.0803584  90.3821221  27.2451819
  31.7555289 101.9916963  29.7170509  31.6387673 102.9362396  29.6149199
  30.9347736 101.6890525  30.1056308  41.6431824  96.7167099  20.5627101
  42.4777428  96.2848298  20.3804576  41.4816167  96.5449113  21.4903996
  41.2977716  93.2199212  21.9283441  41.2426520  93.0543484  20.9871885
  40.6723771  93.9275245  22.0845630  26.0870231  88.4567277  35.7544863
  26.7329095  87.9466231  36.2432088  25.8787382  89.1935958  36.3288288
  38.6123623  95.5248124  41.2537004  39.4814783  95.6988777  40.8923638
  38.1330375  96.3442541  41.1312733  34.6073841  82.7207321  21.5068759
  34.5952511  83.6649161  21.6637030  35.4997263  82.5377467  21.2128220
  32.7809803 102.6445225  32.9326437  33.6837050 102.6768836  33.2492932
  32.5547173 101.7145676  32.9472773  34.5363405 101.3976212  29.5936516
  33.5859036 101.3978073  29.4800888  34.8395892 100.6508946  29.0772550
  38.4225961  79.3150098  25.7614696  37.6558357  78.7608585  25.9071378
  38.8336666  79.3871967  26.6228848  30.4267722  85.6034894  39.8519877
  31.2899184  85.2471699  40.0623202  29.8533133  85.2648789  40.5395281
  50.2716099 107.2336750  30.6582278  50.9094509 107.1143498  29.9545618
  50.1536942 108.1817594  30.7170230  47.0805805 107.1864178  30.5943803
  46.7424317 107.0705243  29.7064338  47.9495573 106.7855343  30.5744809
  42.9392621 109.0399655  26.5840694  42.3757486 108.9489592  25.8156982
  42.8245016 108.2199559  27.0643186  47.5625588 108.3399030  36.5530008
  47.5514229 107.9451828  35.6810512  47.7246228 107.6065103  37.1463780
  40.4857053 110.5350846  29.4224914  41.2778345 110.1941671  29.0071214
  40.7253703 110.6445821  30.3427068  48.5192180 112.7070622  21.8955159
  47.8680159 113.2924703  21.5089173  49.3136542 113.2376817  21.9550196
  42.4447807 109.7959760  22.2942293  43.2178683 109.2488747  22.1555169
  42.7973206 110.6604009  22.5056754  44.2832849 111.1236142  35.5009192
  43.9922715 112.0281773  35.3855859  44.9189834 111.1652669  36.2153262
  45.2089056 108.5012990  32.0910552  45.8052628 108.2769013  31.3767515
  45.2664028 107.7597736  32.6936000  44.7814085 105.9552426  19.9260743
  45.0339605 105.4333947  19.1644206  43.8438644 105.7918571  20.0287427
  49.8257367 104.9588204  27.7335486  50.6120457 104.5407627  27.3825903
  50.0896072 105.8634296  27.9017135  49.9967445 110.3961054  22.4324143
  49.3613278 110.4695681  23.1445048  49.6664851 110.9854653  21.7543222
  55.2265794 104.8963437  28.6368465  55.9590966 104.3262654  28.8706294
  54.4705150 104.5085038  29.0774970  44.5010373 107.8580532  22.1285118
  44.3846631 107.1825435  22.7966202  44.6112633 107.3712906  21.3117271
  46.8441914 107.3190679  25.8331807  46.4800121 106.7921300  26.5444729
  47.7009030 106.9289148  25.6598293  52.7491215  98.6085011  33.0963073
  52.4174540  99.4780422  32.8724288  52.1536828  98.2921295  33.7757104
  46.4847401 102.3480578  20.8293156  46.6521804 103.2160815  21.1963627
  46.2944570 102.5107860  19.9054445  49.2422734 110.8097557  32.4958986
  48.9423457 111.7122596  32.3874793  48.8973794 110.5429741  33.3480139
  42.6935216 107.2611354  28.5295691  41.7685712 107.1287568  28.7373382
  42.9419629 108.0405573  29.0265633  52.6419878 103.3280098  30.1756423
  51.7336756 103.2595506  29.8815184  52.5907474 103.8052042  31.0038249
  46.4636622 104.8038236  21.8139823  46.3436247 105.2495287  22.6525303
  45.7689210 105.1523554  21.2553361  40.0544027 106.9044628  29.3639480
  40.1836408 107.1579107  30.2778891  39.3741478 107.4972336  29.0444135
  44.2243514 117.5741878  25.4629954  44.1467544 118.5249703  25.5418434
  43.6205158 117.2287750  26.1204880  46.7160744 104.7469743  38.1191321
  45.9394078 105.3063663  38.1094185  47.3551307 105.2326526  38.6406191
  54.5081525 101.5296536  31.9534297  53.8655905 101.8229069  31.3074092
  54.0036453 101.4149456  32.7587494  52.1621688 105.2759709  22.6420157
  53.0739544 105.5087096  22.4667854  51.6531335 105.8596753  22.0795235
  44.9707116 107.5555196  37.6809288  45.7121801 108.0940240  37.4044111
  44.2644102 108.1821485  37.8380839  50.4462456 109.6984337  36.2781449
  50.8545812 109.2566747  35.5336082  49.7239717 109.1236964  36.5315642
  46.7993526 104.6356944  33.6515006  47.6454721 105.0596357  33.7949655
  46.7392164 103.9790568  34.3453569  50.7691271 110.2585528  30.0333738
  50.1400133 110.4231242  29.3309806  50.3816933 110.6727137  30.8044702
  54.6480502 111.1939965  27.3878102  53.9631541 111.5738867  26.8375135
  54.7324352 111.8035292  28.1210050  49.9492971 102.2961312  35.3096180
  49.7053903 103.0503373  34.7730455  50.2252902 102.6746660  36.1443427
  51.9031434 108.8399924  33.9873445  52.1148329 109.4831684  33.3107826
  51.8561182 108.0062241  33.5195375  49.5057663 101.4517745  30.8910017
  48.6442142 101.7498999  31.1826755  49.5320098 101.6688144  29.9591050
  46.3219232 109.9959936  27.2983823  46.7857578 110.2747639  26.5088446
  46.0576031 109.0943380  27.1156914  43.2143313 109.5431417  30.2363586
  43.7844671 109.9718686  29.5981071  43.8051425 109.2614002  30.9347772
  45.2588118 106.1183088  24.1073388  45.9612162 106.5704132  24.5747315
  44.9268747 105.4766907  24.7353281  43.7068480 104.7094845  38.4824598
  43.0767141 105.3911125  38.7159995  43.6004568 104.5977926  37.5377736
  39.0013452 104.3766641  29.4090522  38.2112506 104.6324169  28.9330632
  39.4924700 105.1914979  29.5142562  53.0177262 111.7171880  32.1595803
  53.8394706 111.3152067  31.8778484  53.0139665 111.6140114  33.1111918
  40.9528198 104.7411220  26.3673999  40.1559361 104.8529914  26.8857494
  40.7253790 105.0797872  25.5014889  46.7833865 111.2655923  34.3156513
  46.8478298 111.7276330  35.1514685  46.0744789 110.6353288  34.4438823
  37.2851155 104.6297131  31.8405513  37.5359194 105.5144141  32.1063089
  37.8210704 104.4501733  31.0680604  61.1083255 108.0610628  28.5080774
  60.3546963 107.4918026  28.3524779  61.2430796 108.0273293  29.4551409
  46.4981883 112.9324031  24.1835494  46.3627558 113.7775566  24.6120341
  47.0391696 113.1343308  23.4201427  42.9849223  99.0115610  40.8449849
  42.5916168  98.4581809  41.5197493  43.8015363  99.3226189  41.2356366
  39.9511280 110.4499469  24.7563419  40.4635801 111.2442719  24.9068983
  40.6033993 109.7525759  24.6897020  41.7606165 113.5665225  26.8386172
  41.9372794 114.4883190  26.6507156  42.5562999 113.2523644  27.2680552
  45.9017184 100.4273490  38.4370105  46.6426897 101.0280643  38.3574568
  46.1335107  99.6851127  37.8788148  41.0458522 105.6129857  36.7148335
  40.9312037 104.7115114  37.0155434  40.1903039 105.8593554  36.3633152
  48.1250359 113.5547597  38.3135836  47.6814214 112.7683976  37.9956740
  48.7867573 113.7426748  37.6479726  42.8837481 115.0843399  32.8396514
  43.4344906 114.9560462  32.0673508  42.0448957 115.3838288  32.4891407
  50.2231598 113.8350397  36.3417237  50.2050073 114.6559278  35.8497506
  51.1451518 113.7104472  36.5667378  46.6804652 111.3494527  37.1840745
  47.2132988 110.5882815  36.9540053  46.1518733 111.0568178  37.9264900
  49.8474347  96.4554593  32.7134387  49.5038616  97.3456234  32.6373498
  50.2153309  96.2656250  31.8503972  37.9160197 108.7788123  25.5322989
  38.7535419 109.1885131  25.3156697  38.0938465 107.8387565  25.5023183
  49.8124629 106.4463204  21.2206822  49.2971253 107.2167808  21.4595210
  49.5401938 105.7728340  21.8439884  47.3971740 101.2912904  26.2792060
  46.5413337 100.9019755  26.0997699  47.8098692 101.3704865  25.4191846
  48.9270887  98.8259248  30.6783620  48.4235683  98.7889383  29.8651426
  49.2201494  99.7351990  30.7380277  45.1713773  98.9097977  29.6849802
  46.0366770  98.7140786  29.3255691  45.2391282  98.6808329  30.6119159
  54.7858904 109.1995558  23.1559996  54.0088346 108.8606718  22.7115158
  55.4650384 109.2048181  22.4814961  49.6010933 104.3190296  23.0466603
  49.2961068 104.6336445  23.8976746  50.5541375 104.3971716  23.0893936
  48.0457364 110.4780519  24.6959557  47.5178726 109.7433279  24.3832795
  47.5444867 111.2555195  24.4499526  53.0250210 108.6729540  29.8126604
  52.3673885 109.3628801  29.9006732  53.8290610 109.0625971  30.1560590
  42.7776092 101.1400185  27.0566169  43.3519844 100.9175367  26.3239362
  43.3647074 101.2088880  27.8094770  51.8355669 107.0273912  27.8630545
  52.3487551 107.6603904  28.3652255  52.4856893 106.4275108  27.4973905
  43.1045679 103.1704646  21.0762054  42.2682991 103.5079333  21.3971329
  42.9650449 103.0353626  20.1389191  45.0798760  98.0141434  25.7841238
  44.4263172  97.6990451  25.1597853  45.0379234  97.3917175  26.5101061
  46.1909965 108.2960729  17.6994530  45.2837026 108.0649983  17.8985679
  46.6880997 107.4998349  17.8868512  49.0978043 117.0058236  20.6191216
  48.4239742 117.3089933  21.2276174  49.4843865 117.8087317  20.2696674
  48.3136500 104.5023368  30.1088886  47.3959061 104.7238315  29.9510574
  48.7296644 104.5769678  29.2500593  49.0971548 105.9014783  25.2391566
  49.8443367 106.4136181  24.9298688  49.3663137 105.5798836  26.0995960
  47.3698198 108.3973324  22.2218520  46.4609417 108.1132357  22.3190990
  47.3993282 108.8172403  21.3621827  52.6017465 112.0079914  25.9909688
  52.1479793 111.1670824  26.0474878  51.9711432 112.6441312  26.3284468
  51.5450385 102.9371900  27.2210355  50.8073142 102.4249286  27.5520598
  51.7977159 102.4972281  26.4093632  51.0450405 113.8456410  26.9259506
  51.3373379 114.4061467  26.2071872  51.5549025 114.1384971  27.6812665
  51.6462012  95.7148152  27.8152125  51.9520889  94.8545515  27.5278040
  52.3714617  96.3065772  27.6151119  37.9386368 106.1178838  26.2033723
  37.7410768 105.5248199  25.4784789  37.3833032 105.8131048  26.9209661
  45.9183092 106.0101945  28.3228316  45.9731702 105.0575781  28.2470792
  45.1074294 106.1661384  28.8069614  47.0674286 109.9382068  19.5606599
  46.6293716 109.2217927  19.1012236  47.8084727 110.1658183  18.9991690
  43.8575452 104.6279004  26.0818695  43.0443318 104.9273175  26.4883887
  44.3534446 104.2334693  26.7993177  46.0084030 114.6236761  28.0152959
  45.9660209 114.8497608  27.0861491  46.9246729 114.3900136  28.1638760
  49.4549664 105.0920829  34.9133588  49.8099051 105.3192302  35.7728054
  50.1021795 105.4239206  34.2910844  55.1847401 108.2139265  25.6182918
  55.0465299 108.4040861  24.6904107  54.8283619 108.9758648  26.0750969
  43.3489527 102.1997360  31.6979930  43.9888906 102.0586119  31.0002893
  42.5167057 101.9131873  31.3218532  55.2116780 110.2815792  30.6294189
  55.6453287 110.1891081  31.4777243  55.9248361 110.2573292  29.9914205
  44.1249831 111.4999790  27.8114922  44.9190429 111.0050111  27.6097497
  43.4141523 110.9717654  27.4482628  48.9444675 113.8817886  32.1627290
  48.9981697 114.4508822  32.9305006  48.0759456 114.0519771  31.7981327
  40.4332594 105.6442872  23.8874675  39.5030182 105.5827328  24.1044637
  40.5290066 105.1218825  23.0911316  40.3518143 102.1697685  26.4752916
  40.6124960 103.0843018  26.3662077  41.1735315 101.7022128  26.6249529
  41.8243068 103.5835442  33.6451741  42.4966122 103.3752804  32.9964390
  40.9972855 103.3857528  33.2056973  56.0732330 110.3239493  33.1627074
  56.2668220 111.2285303  33.4086349  55.9732948 109.8646912  33.9965659
  47.7268640 100.2097383  35.6617402  47.0796556 100.9087333  35.5681878
  48.4969656 100.6433527  36.0293650  51.1347438 110.4746235  38.7367955
  50.9832945 110.2456787  37.8198039  51.1252118 111.4316837  38.7499300
  47.9032775 108.0478148  33.7214221  48.8324835 108.1989308  33.5483189
  47.4823805 108.1362169  32.8662868  46.7021107 112.0728812  31.4912759
  46.5632192 111.7047597  32.3638697  45.9135703 112.5876452  31.3196717
  47.2969259 117.1737909  22.8338296  47.4721014 116.7025952  23.6483918
  46.6102047 117.8003675  23.0619556  48.2526322 111.4510415  28.8801597
  47.9176154 111.4111185  29.7759247  47.7530267 110.7855131  28.4072007
  42.2270566 106.8578045  34.4054178  42.0890364 106.1258284  35.0065717
  43.1375489 106.7686945  34.1238366  51.1885513 108.7966449  19.1538657
  50.5714684 108.0713278  19.0571709  50.7202002 109.5575810  18.8105731
  44.8552866 106.5698004  33.8937858  45.5652485 105.9291197  33.8524476
  44.8122175 106.8210899  34.8164038  52.8439645 113.5065358  36.8144437
  52.7852191 112.8224578  36.1475020  53.2459163 114.2484348  36.3625063
  43.5681800 103.5563222  35.7133497  43.0319157 103.1053961  36.3655094
  42.9798509 103.6909131  34.9703962  41.8630344 120.3227272  29.6078156
  42.1026942 120.9545796  30.2857174  41.0199540 119.9715312  29.8943515
  42.9784059 103.0151874  18.2759961  42.1013526 102.8940675  17.9122207
  43.4541812 102.2237952  18.0238849  52.8457052 111.4704942  35.0458417
  51.9583831 111.1330864  35.1684815  53.4155603 110.7387973  35.2827182
  34.4986199 107.8029033  28.3701468  35.1857239 107.4890764  27.7822483
  34.3434328 108.7070398  28.0968719  39.3020922 102.6919230  32.7986492
  39.2179110 102.0844900  32.0636902  38.4803628 103.1828248  32.7995988
  46.3758206 116.1306394  32.0119660  46.3028377 116.9361366  32.5238964
  45.9335599 116.3298360  31.1867681  46.1647985 115.3678164  25.5222481
  45.3815507 115.9099844  25.6160706  46.8640731 115.8852144  25.9216723
  49.4744635 101.1772794  28.1656687  49.9713335 100.4242756  27.8457757
  48.7031617 101.2137110  27.5999896  57.3274393 106.8813159  29.8074978
  57.3164269 107.7637875  29.4368911  56.4591772 106.5284710  29.6129515
  48.8356889 116.0293228  34.1677818  49.5484861 116.6640693  34.0953720
  48.3446918 116.1257094  33.3517820  50.5574416 109.9344481  25.7395110
  49.6230695 110.0545943  25.5699814  50.7351085 109.0316948  25.4755120
  46.0579604 103.3190177  27.8928371  45.6877392 102.7661217  28.5809277
  46.5538697 102.7148310  27.3403371  53.9446968 105.7761800  26.2745144
  54.4107420 106.6089792  26.2005447  54.3954468 105.3106782  26.9790403
  43.8868803 113.7787672  34.9883389  44.5878262 114.4124155  35.1412783
  43.4163918 114.1202403  34.2279029  52.0123199 112.1205621  23.2731296
  52.2883043 112.0062216  24.1825170  51.1427697 111.7223106  23.2343469
  51.9163630  98.1442387  30.3136046  51.0026710  98.3746614  30.4818253
  52.3456732  98.2280831  31.1650078  51.6870089 106.3332279  32.8135940
  51.0341539 106.5808186  32.1588392  52.0650469 105.5196417  32.4798417
  48.6477263 116.3691972  26.9164110  48.8299657 115.5513628  27.3791862
  49.4710249 116.5859664  26.4789000  48.9819428 115.2960157  24.1779158
  49.5107195 114.7852612  23.5649321  49.2447648 114.9802688  25.0424691
  47.7357662 107.0752090  39.3001977  47.0598299 106.9746219  39.9704352
  48.5585296 106.9191304  39.7637974  39.4836521 113.3124027  31.9214492
  40.0689958 112.5667715  32.0542396  39.2861359 113.6227983  32.8051156
  42.3375176 116.3475274  26.9376934  41.6685551 116.8321402  26.4540974
  42.1988046 116.5944494  27.8520313  34.0754176 105.8829627  30.6418935
  34.1138275 105.3493218  31.4356053  33.5694468 105.3564832  30.0229912
  46.4780445 118.3819018  33.5359593  47.0298753 118.5450639  34.3008678
  46.8186638 118.9723455  32.8639618  41.4544938 100.7294167  34.1381477
  41.5186264 101.5908998  33.7258875  41.3912058 100.1168169  33.4053836
  40.9297210 102.8017300  37.7854512  41.5569249 102.4194377  38.3992036
  40.0725129 102.5831502  38.1510204  51.3291319 113.2080275  39.3908247
  51.8731223 113.8210233  38.8963202  50.7478164 113.7659853  39.9075260
  37.7062753 104.6093729  23.7172866  38.0016194 103.7004407  23.6639920
  36.8050789 104.5881468  23.3953869  49.6148832 116.3300993  30.5223275
  49.4899971 115.5290733  30.0134220  50.2727923 116.8247186  30.0337245
  41.2357000 102.6849726  29.7000415  40.5143586 103.2985693  29.5607888
  42.0250256 103.2207490  29.6217061  51.6783740 114.1310013  32.1502825
  50.7314076 114.0115364  32.0781152  52.0266513 113.2432511  32.2329086
  44.0383314 100.0204152  35.9741067  44.5617716 100.2666449  36.7367376
  43.8195647 100.8524187  35.5544204  39.4350595 102.2907827  23.8412192
  39.1063301 101.4105206  23.6587298  39.7889965 102.2355495  24.7288581
  48.6830174 113.9262729  28.3507177  48.5355136 112.9979437  28.5314747
  49.5083667 113.9482820  27.8664252  42.5492418 102.5780796  24.2087669
  42.8888490 103.1066718  23.4866278  42.9964538 102.9161203  24.9846236
  52.2864295 114.7491288  29.4372050  53.2110843 114.5434149  29.2996501
  52.1179599 114.5007689  30.3461391  45.2435859 100.9617847  33.6590737
  44.9032679 100.1625660  34.0611417  44.5374865 101.2619558  33.0867571
  45.8952331  98.0467160  32.1118060  46.7178400  97.5727638  31.9896951
  46.1390394  98.8257643  32.6116747  44.5360565 101.0755418  22.4080962
  45.2568928 101.4536671  21.9044679  43.9125869 101.7944295  22.5115940
  48.6791688 101.7800567  23.3439294  48.8955302 102.6625205  23.0428123
  48.1985755 101.3886780  22.6144936  43.4190909 104.7386280  29.9210039
  43.2735490 105.0526583  30.8134321  42.9416113 105.3571181  29.3680938
  45.2787292 101.7288828  29.9690929  45.2648861 100.8329922  29.6323227
  45.9959720 101.7359492  30.6029215  47.1313423 102.1626168  32.0144056
  46.8731201 103.0843239  32.0128386  46.5998463 101.7656603  32.7044520
  52.0759612 115.2676956  24.7934141  52.2496489 114.7023378  24.0407994
  52.5688503 116.0677850  24.6113631  37.8936571 107.2791625  32.8597700
  37.3490040 108.0551433  32.9917975  38.7715921 107.6262429  32.7016822
  44.6824188 100.6103209  25.2378499  44.8040099  99.6819855  25.4369386
  44.3926231 100.6241894  24.3256814  47.5515379  98.2958119  28.3745219
  47.5737075  98.3597452  27.4197198  47.9683438  97.4562628  28.5685725
  57.9299003 108.0313379  26.4124441  58.3730149 107.2820704  26.0143564
  57.0525513 108.0223515  26.0298173  53.0634784 114.5843720  21.8931040
  53.7585689 115.2050413  22.1118354  53.4057934 113.7339071  22.1683418
  38.6802593 106.4061521  35.7527857  37.9384329 106.5544156  36.3392487
  38.3595338 106.6669787  34.8894606  54.9626207 112.0343426  23.4218370
  55.4877531 112.3730698  22.6967690  54.8748560 111.0990441  23.2381505
  46.6246256 115.9477499  35.5508247  46.9333382 115.7026646  36.4230947
  47.4221738 116.1524138  35.0627117  46.6466868 118.1015409  27.7813624
  46.2071858 117.6091787  28.4746480  47.3974985 117.5588376  27.5405699
  39.1259207 114.2926950  27.7838252  39.9517227 113.9930722  27.4036895
  38.7753259 113.5234572  28.2328040  44.0940740 113.6453418  29.8535925
  43.4720749 112.9824123  29.5538153  44.7645607 113.6714550  29.1709573
  37.3267812 112.2113276  28.7427185  36.4899720 111.7835450  28.5611187
  37.2991458 112.4045719  29.6797976  44.1665268 102.1235206  39.4468431
  44.2153423 102.9997329  39.0646201  44.7087782 101.5812599  38.8740075
  54.6520113 112.6676329  38.7269568  53.8615657 112.6500468  38.1874068
  54.4153468 113.2064623  39.4818605  54.7717988 109.5168796  36.0402297
  54.8215993 109.3518803  36.9817820  54.6631912 108.6496055  35.6500178
  43.6554247 112.1957341  23.3294386  43.8042367 112.8792806  22.6761059
  44.4620691 112.1762431  23.8443842  52.0621751 105.4999724  37.3561604
  52.9631614 105.3606188  37.0645601  52.1369725 105.6654178  38.2959781
  46.3964556 102.8766578  36.2014790  45.5267866 103.1700144  35.9297378
  46.6324036 103.4607023  36.9222054  56.2736185 111.9365737  36.2844318
  55.9820994 112.2995718  37.1207779  55.6608317 111.2232745  36.1057651
  57.4731868 109.5018617  28.8046889  58.3078759 109.9408421  28.9684449
  57.6090996 109.0257270  27.9855134  54.5223373 107.0598352  34.7524376
  54.9977495 107.2525998  33.9443228  53.5988939 107.1157537  34.5067760
  41.4106880 108.2222519  24.3355455  41.1652922 107.3184849  24.5335665
  41.5802795 108.2239669  23.3934933  49.1003590  99.0946195  33.7180210
  49.6185534  99.8307222  33.3926699  48.7458723  99.4010189  34.5526969
  40.6802528 103.9550876  21.8341616  39.9871773 104.0295231  21.1781652
  40.4354280 103.1911220  22.3563133  49.3516184  95.5146478  29.2381107
  49.6317938  94.8469667  29.8641533  50.1366791  95.7075573  28.7255771
  47.1549653 114.6905472  20.8006133  46.5823620 115.3095659  20.3476605
  47.7282446 115.2404833  21.3346055  53.2225042 103.9364112  32.9852682
  54.1742465 104.0362209  33.0064906  53.0528493 103.1442380  33.4950766
  51.2439422 101.0219695  33.1712083  50.6489354 101.3024708  32.4758572
  50.9589119 101.5113596  33.9428824  50.3746912 114.9742622  21.9314716
  51.3077586 114.9088183  22.1347591  50.2870125 115.8098889  21.4729248
  53.0034929 114.2908492  18.8918663  52.9248561 113.9568356  19.7854421
  53.8244596 114.7830260  18.8910135  55.7013120 107.1570231  32.0994982
  55.6689440 106.2186232  32.2854666  56.3113744 107.2354268  31.3660807
  47.5396451 106.0266284  18.1422186  48.4855556 105.8972493  18.2110604
  47.1610696 105.2880946  18.6191614  55.8507609 103.9481275  32.1453265
  55.3346657 103.1639732  31.9583194  56.7347557 103.6199991  32.3099784
  53.5118336  97.6922290  28.1049078  53.3143157  97.3837379  28.9892410
  54.1218041  98.4183929  28.2347007  61.5189670 108.2186238  31.2401018
  62.2493059 107.9571526  31.8008722  60.9096616 107.4814960  31.2803086
  59.6004967 106.3594101  31.8375470  58.8738131 106.2250066  31.2291961
  59.1852254 106.6670929  32.6432188  47.4235144 110.0784031  39.6022843
  48.3438153 110.2562630  39.7962889  47.3884727 109.1340076  39.4502542
  45.7239368 103.9516261  18.0777071  44.8170824 103.6549374  18.1539785
  46.0015349 103.6546079  17.2111357  36.6417309 105.2722624  28.5276117
  36.3220093 104.4187932  28.2350491  36.0950737 105.4871202  29.2834085
  40.4197216 107.9885065  32.2445624  40.6383226 108.9202173  32.2633658
  40.8322990 107.6293040  33.0300428  47.3401434  98.4953151  24.2321312
  46.5302162  98.1500235  24.6076558  48.0285851  98.1860694  24.8208924
  49.2691982  97.5731197  25.8545609  49.8223021  97.9926651  26.5135632
  49.5062069  96.6466945  25.8968565  45.2925082 103.5618271  41.6348373
  45.1921808 104.5112628  41.5660464  45.0746624 103.2336510  40.7624443
  44.4938153 100.8103196  18.2189050  45.3557317 101.1358094  18.4784868
  44.6788497 100.0234692  17.7062116  36.5105569 108.8925536  30.4969239
  35.8169040 108.4779488  29.9839193  37.2578560 108.9346072  29.9002658
  52.6470789  99.6831722  25.3624273  52.0669458 100.3416527  24.9802326
  52.3806722  98.8609067  24.9511691  51.0974356  99.0836780  27.5645593
  51.5974134  99.1953315  26.7559912  51.7409964  98.7797833  28.2046402
  45.1556352 106.9915410  40.4513434  44.6723433 107.7915770  40.6577323
  45.2417291 107.0023355  39.4980878  38.4242311 108.8243789  28.3735254
  38.4012999 108.9231477  27.4217137  38.7342948 109.6708940  28.6952420
  41.0829689 110.8819945  32.4881868  42.0372943 110.8503887  32.4211800
  40.8842213 110.4210568  33.3032094  41.6729071 109.4521061  35.0552666
  42.4921960 109.9465139  35.0787503  41.9465879 108.5353029  35.0270233
  51.4295667 101.8431813  24.4180621  50.5421522 102.1281463  24.2000816
  51.8449656 101.6825576  23.5707898  54.7810204 101.8678334  28.1334961
  55.5570594 102.3574786  28.4059577  54.0558338 102.2936388  28.5906830
  57.2182762 102.5805953  29.1908901  57.8127253 102.3401689  28.4802210
  57.2909346 101.8613084  29.8182438  39.4379918 116.4239564  29.5052066
  39.3034386 115.6639965  28.9390064  39.0211980 117.1480464  29.0380855
  50.5738881 111.6076488  18.5128641  51.2774731 111.8126490  19.1286297
  49.8501530 112.1753249  18.7777725  51.4036691 107.3586349  24.6330912
  51.3471893 107.8154900  23.7938544  51.9565034 106.5977033  24.4553754
  55.2141497 103.1476081  25.4581031  54.9578431 102.7472716  26.2889239
  54.5894365 103.8619875  25.3331170  59.5253835 105.8872154  27.9652322
  58.9653393 105.9565343  28.7383885  58.9197338 105.7113139  27.2451819
  42.5949044 117.3208881  29.7170509  42.4781428 118.2654314  29.6149199
  41.7741490 117.0182443  30.1056308  52.4825578 112.0459017  20.5627101
  53.3171182 111.6140215  20.3804576  52.3209921 111.8741030  21.4903996
  52.1371470 108.5491130  21.9283441  52.0820274 108.3835401  20.9871885
  51.5117526 109.2567163  22.0845630  36.9263985 103.7859194  35.7544863
  37.5722849 103.2758148  36.2432088  36.7181137 104.5227876  36.3288288
  49.4517378 110.8540042  41.2537004  50.3208537 111.0280694  40.8923638
  48.9724129 111.6734459  41.1312733  45.4467596  98.0499239  21.5068759
  45.4346266  98.9941079  21.6637030  46.3391018  97.8669384  21.2128220
  43.6203558 117.9737143  32.9326437  44.5230805 118.0060753  33.2492932
  43.3940928 117.0437594  32.9472773  45.3757160 116.7268129  29.5936516
  44.4252791 116.7269991  29.4800888  45.6789646 115.9800864  29.0772550
  49.2619715  94.6442016  25.7614696  48.4952111  94.0900502  25.9071378
  49.6730420  94.7163884  26.6228848  41.2661476 100.9326811  39.8519877
  42.1292938 100.5763616  40.0623202  40.6926887 100.5940706  40.5395281
  61.1109853 122.5628668  30.6582278  61.7488263 122.4435415  29.9545618
  60.9930696 123.5109512  30.7170230  57.9199560 122.5156096  30.5943803
  57.5818071 122.3997161  29.7064338  58.7889328 122.1147261  30.5744809
  53.7786375 124.3691572  26.5840694  53.2151240 124.2781509  25.8156982
  53.6638770 123.5491477  27.0643186  58.4019343 123.6690948  36.5530008
  58.3907983 123.2743746  35.6810512  58.5639982 122.9357020  37.1463780
  51.3250807 125.8642764  29.4224914  52.1172099 125.5233589  29.0071214
  51.5647457 125.9737739  30.3427068  59.3585934 128.0362540  21.8955159
  58.7073914 128.6216620  21.5089173  60.1530297 128.5668735  21.9550196
  53.2841561 125.1251677  22.2942293  54.0572437 124.5780664  22.1555169
  53.6366960 125.9895927  22.5056754  55.1226604 126.4528059  35.5009192
  54.8316470 127.3573690  35.3855859  55.7583588 126.4944587  36.2153262
  56.0482811 123.8304908  32.0910552  56.6446383 123.6060930  31.3767515
  56.1057782 123.0889653  32.6936000  55.6207839 121.2844343  19.9260743
  55.8733360 120.7625865  19.1644206  54.6832398 121.1210489  20.0287427
  60.6651122 120.2880122  27.7335486  61.4514211 119.8699545  27.3825903
  60.9289826 121.1926214  27.9017135  60.8361199 125.7252972  22.4324143
  60.2007032 125.7987599  23.1445048  60.5058606 126.3146571  21.7543222
  66.0659549 120.2255355  28.6368465  66.7984721 119.6554572  28.8706294
  65.3098905 119.8376955  29.0774970  55.3404128 123.1872449  22.1285118
  55.2240386 122.5117353  22.7966202  55.4506388 122.7004823  21.3117271
  57.6835669 122.6482596  25.8331807  57.3193876 122.1213217  26.5444729
  58.5402785 122.2581065  25.6598293  63.5884969 113.9376929  33.0963073
  63.2568294 114.8072340  32.8724288  62.9930583 113.6213213  33.7757104
  57.3241156 117.6772496  20.8293156  57.4915558 118.5452732  21.1963627
  57.1338325 117.8399778  19.9054445  60.0816489 126.1389475  32.4958986
  59.7817212 127.0414514  32.3874793  59.7367548 125.8721658  33.3480139
  53.5328970 122.5903272  28.5295691  52.6079467 122.4579486  28.7373382
  53.7813384 123.3697491  29.0265633  63.4813633 118.6572015  30.1756423
  62.5730510 118.5887424  29.8815184  63.4301228 119.1343960  31.0038249
  57.3030377 120.1330154  21.8139823  57.1830002 120.5787204  22.6525303
  56.6082965 120.4815471  21.2553361  50.8937781 122.2336545  29.3639480
  51.0230163 122.4871024  30.2778891  50.2135233 122.8264253  29.0444135
  55.0637269 132.9033795  25.4629954  54.9861298 133.8541620  25.5418434
  54.4598912 132.5579668  26.1204880  57.5554498 120.0761661  38.1191321
  56.7787832 120.6355581  38.1094185  58.1945061 120.5618444  38.6406191
  65.3475279 116.8588454  31.9534297  64.7049659 117.1520987  31.3074092
  64.8430208 116.7441374  32.7587494  63.0015443 120.6051627  22.6420157
  63.9133299 120.8379014  22.4667854  62.4925090 121.1888671  22.0795235
  55.8100871 122.8847114  37.6809288  56.5515555 123.4232158  37.4044111
  55.1037856 123.5113403  37.8380839  61.2856210 125.0276255  36.2781449
  61.6939566 124.5858665  35.5336082  60.5633472 124.4528882  36.5315642
  57.6387280 119.9648861  33.6515006  58.4848476 120.3888275  33.7949655
  57.5785918 119.3082486  34.3453569  61.6085025 125.5877445  30.0333738
  60.9793887 125.7523159  29.3309806  61.2210687 126.0019055  30.8044702
  65.4874257 126.5231883  27.3878102  64.8025295 126.9030784  26.8375135
  65.5718106 127.1327210  28.1210050  60.7886726 117.6253230  35.3096180
  60.5447658 118.3795290  34.7730455  61.0646656 118.0038577  36.1443427
  62.7425189 124.1691842  33.9873445  62.9542084 124.8123602  33.3107826
  62.6954937 123.3354159  33.5195375  60.3451417 116.7809663  30.8910017
  59.4835897 117.0790916  31.1826755  60.3713852 116.9980062  29.9591050
  57.1612987 125.3251853  27.2983823  57.6251332 125.6039556  26.5088446
  56.8969785 124.4235298  27.1156914  54.0537068 124.8723335  30.2363586
  54.6238425 125.3010603  29.5981071  54.6445180 124.5905920  30.9347772
  56.0981873 121.4475006  24.1073388  56.8005916 121.8996049  24.5747315
  55.7662501 120.8058825  24.7353281  54.5462234 120.0386762  38.4824598
  53.9160895 120.7203043  38.7159995  54.4398322 119.9269844  37.5377736
  49.8407207 119.7058558  29.4090522  49.0506261 119.9616087  28.9330632
  50.3318454 120.5206896  29.5142562  63.8571016 127.0463798  32.1595803
  64.6788460 126.6443985  31.8778484  63.8533419 126.9432032  33.1111918
  51.7921952 120.0703138  26.3673999  50.9953116 120.1821832  26.8857494
  51.5647544 120.4089790  25.5014889  57.6227620 126.5947841  34.3156513
  57.6872052 127.0568248  35.1514685  56.9138544 125.9645206  34.4438823
  48.1244910 119.9589049  31.8405513  48.3752948 120.8436059  32.1063089
  48.6604458 119.7793650  31.0680604  71.9477010 123.3902546  28.5080774
  71.1940718 122.8209944  28.3524779  72.0824551 123.3565210  29.4551409
  57.3375638 128.2615948  24.1835494  57.2021312 129.1067484  24.6120341
  57.8785450 128.4635226  23.4201427  53.8242977 114.3407528  40.8449849
  53.4309923 113.7873727  41.5197493  54.6409118 114.6518107  41.2356366
  50.7905035 125.7791386  24.7563419  51.3029556 126.5734637  24.9068983
  51.4427748 125.0817677  24.6897020  52.5999920 128.8957143  26.8386172
  52.7766548 129.8175107  26.6507156  53.3956753 128.5815562  27.2680552
  56.7410938 115.7565407  38.4370105  57.4820652 116.3572560  38.3574568
  56.9728861 115.0143045  37.8788148  51.8852276 120.9421775  36.7148335
  51.7705791 120.0407032  37.0155434  51.0296794 121.1885471  36.3633152
  58.9644114 128.8839515  38.3135836  58.5207968 128.0975893  37.9956740
  59.6261328 129.0718665  37.6479726  53.7231235 130.4135316  32.8396514
  54.2738660 130.2852380  32.0673508  52.8842711 130.7130205  32.4891407
  61.0625352 129.1642315  36.3417237  61.0443827 129.9851196  35.8497506
  61.9845272 129.0396390  36.5667378  57.5198406 126.6786444  37.1840745
  58.0526743 125.9174732  36.9540053  56.9912487 126.3860096  37.9264900
  60.6868101 111.7846510  32.7134387  60.3432371 112.6748152  32.6373498
  61.0547064 111.5948168  31.8503972  48.7553952 124.1080041  25.5322989
  49.5929174 124.5177049  25.3156697  48.9332219 123.1679483  25.5023183
  60.6518384 121.7755121  21.2206822  60.1365007 122.5459726  21.4595210
  60.3795692 121.1020257  21.8439884  58.2365495 116.6204822  26.2792060
  57.3807091 116.2311672  26.0997699  58.6492447 116.6996783  25.4191846
  59.7664642 114.1551165  30.6783620  59.2629437 114.1181300  29.8651426
  60.0595248 115.0643908  30.7380277  56.0107527 114.2389895  29.6849802
  56.8760524 114.0432704  29.3255691  56.0785036 114.0100247  30.6119159
  65.6252658 124.5287476  23.1559996  64.8482101 124.1898635  22.7115158
  66.3044139 124.5340099  22.4814961  60.4404687 119.6482213  23.0466603
  60.1354823 119.9628363  23.8976746  61.3935129 119.7263633  23.0893936
  58.8851119 125.8072437  24.6959557  58.3572480 125.0725196  24.3832795
  58.3838622 126.5847113  24.4499526  63.8643965 124.0021457  29.8126604
  63.2067639 124.6920719  29.9006732  64.6684364 124.3917889  30.1560590
  53.6169846 116.4692103  27.0566169  54.1913598 116.2467284  26.3239362
  54.2040829 116.5380797  27.8094770  62.6749424 122.3565830  27.8630545
  63.1881305 122.9895822  28.3652255  63.3250648 121.7567025  27.4973905
  53.9439434 118.4996564  21.0762054  53.1076746 118.8371251  21.3971329
  53.8044203 118.3645544  20.1389191  55.9192514 113.3433352  25.7841238
  55.2656927 113.0282369  25.1597853  55.8772988 112.7209092  26.5101061
  57.0303719 123.6252647  17.6994530  56.1230781 123.3941900  17.8985679
  57.5274751 122.8290266  17.8868512  59.9371798 132.3350154  20.6191216
  59.2633497 132.6381851  21.2276174  60.3237620 133.1379234  20.2696674
  59.1530255 119.8315285  30.1088886  58.2352816 120.0530232  29.9510574
  59.5690398 119.9061596  29.2500593  59.9365302 121.2306701  25.2391566
  60.6837121 121.7428098  24.9298688  60.2056892 120.9090754  26.0995960
  58.2091952 123.7265242  22.2218520  57.3003172 123.4424275  22.3190990
  58.2387036 124.1464320  21.3621827  63.4411220 127.3371831  25.9909688
  62.9873547 126.4962741  26.0474878  62.8105187 127.9733230  26.3284468
  62.3844139 118.2663817  27.2210355  61.6466896 117.7541204  27.5520598
  62.6370913 117.8264199  26.4093632  61.8844159 129.1748328  26.9259506
  62.1767134 129.7353385  26.2071872  62.3942780 129.4676889  27.6812665
  62.4855767 111.0440069  27.8152125  62.7914644 110.1837433  27.5278040
  63.2108372 111.6357690  27.6151119  48.7780123 121.4470756  26.2033723
  48.5804523 120.8540117  25.4784789  48.2226787 121.1422966  26.9209661
  56.7576847 121.3393862  28.3228316  56.8125456 120.3867699  28.2470792
  55.9468049 121.4953302  28.8069614  57.9068040 125.2673985  19.5606599
  57.4687470 124.5509844  19.1012236  58.6478481 125.4950100  18.9991690
  54.6969206 119.9570922  26.0818695  53.8837072 120.2565093  26.4883887
  55.1928201 119.5626611  26.7993177  56.8477784 129.9528679  28.0152959
  56.8053963 130.1789525  27.0861491  57.7640483 129.7192054  28.1638760
  60.2943418 120.4212747  34.9133588  60.6492806 120.6484220  35.7728054
  60.9415549 120.7531123  34.2910844  66.0241155 123.5431183  25.6182918
  65.8859054 123.7332779  24.6904107  65.6677374 124.3050565  26.0750969
  54.1883281 117.5289278  31.6979930  54.8282661 117.3878037  31.0002893
  53.3560812 117.2423791  31.3218532  66.0510535 125.6107710  30.6294189
  66.4847041 125.5182999  31.4777243  66.7642115 125.5865210  29.9914205
  54.9643585 126.8291708  27.8114922  55.7584184 126.3342028  27.6097497
  54.2535278 126.3009571  27.4482628  59.7838430 129.2109804  32.1627290
  59.8375452 129.7800740  32.9305006  58.9153211 129.3811689  31.7981327
  51.2726349 120.9734790  23.8874675  50.3423937 120.9119245  24.1044637
  51.3683821 120.4510743  23.0911316  51.1911898 117.4989603  26.4752916
  51.4518715 118.4134936  26.3662077  52.0129070 117.0314045  26.6249529
  52.6636823 118.9127360  33.6451741  53.3359876 118.7044722  32.9964390
  51.8366610 118.7149446  33.2056973  66.9126084 125.6531410  33.1627074
  67.1061974 126.5577221  33.4086349  66.8126702 125.1938829  33.9965659
  58.5662395 115.5389301  35.6617402  57.9190310 116.2379250  35.5681878
  59.3363410 115.9725445  36.0293650  61.9741193 125.8038153  38.7367955
  61.8226699 125.5748705  37.8198039  61.9645872 126.7608754  38.7499300
  58.7426529 123.3770066  33.7214221  59.6718589 123.5281225  33.5483189
  58.3217559 123.4654086  32.8662868  57.5414861 127.4020730  31.4912759
  57.4025947 127.0339515  32.3638697  56.7529457 127.9168370  31.3196717
  58.1363013 132.5029827  22.8338296  58.3114769 132.0317870  23.6483918
  57.4495801 133.1295593  23.0619556  59.0920076 126.7802333  28.8801597
  58.7569909 126.7403103  29.7759247  58.5924022 126.1147049  28.4072007
  53.0664320 122.1869963  34.4054178  52.9284118 121.4550202  35.0065717
  53.9769244 122.0978863  34.1238366  62.0279268 124.1258367  19.1538657
  61.4108439 123.4005195  19.0571709  61.5595756 124.8867727  18.8105731
  55.6946621 121.8989922  33.8937858  56.4046239 121.2583114  33.8524476
  55.6515929 122.1502817  34.8164038  63.6833400 128.8357275  36.8144437
  63.6245946 128.1516496  36.1475020  64.0852918 129.5776266  36.3625063
  54.4075555 118.8855140  35.7133497  53.8712912 118.4345878  36.3655094
  53.8192263 119.0201049  34.9703962  53.8177814 118.3443791  18.2759961
  52.9407280 118.2232592  17.9122207  54.2935567 117.5529870  18.0238849
  63.6850807 126.7996859  35.0458417  62.7977586 126.4622781  35.1684815
  64.2549358 126.0679891  35.2827182  45.3379954 123.1320951  28.3701468
  46.0250994 122.8182681  27.7822483  45.1828083 124.0362316  28.0968719
  50.1414676 118.0211148  32.7986492  50.0572865 117.4136817  32.0636902
  49.3197383 118.5120166  32.7995988  57.2151960 131.4598312  32.0119660
  57.1422132 132.2653283  32.5238964  56.7729353 131.6590278  31.1867681
  57.0041740 130.6970082  25.5222481  56.2209262 131.2391762  25.6160706
  57.7034485 131.2144061  25.9216723  60.3138390 116.5064711  28.1656687
  60.8107090 115.7534674  27.8457757  59.5425371 116.5429028  27.5999896
  68.1668147 122.2105077  29.8074978  68.1558024 123.0929792  29.4368911
  67.2985527 121.8576628  29.6129515  59.6750644 131.3585146  34.1677818
  60.3878616 131.9932611  34.0953720  59.1840672 131.4549012  33.3517820
  61.3968171 125.2636398  25.7395110  60.4624449 125.3837861  25.5699814
  61.5744839 124.3608865  25.4755120  56.8973359 118.6482094  27.8928371
  56.5271146 118.0953135  28.5809277  57.3932451 118.0440228  27.3403371
  64.7840722 121.1053718  26.2745144  65.2501174 121.9381709  26.2005447
  65.2348223 120.6398699  26.9790403  54.7262557 129.1079589  34.9883389
  55.4272017 129.7416072  35.1412783  54.2557672 129.4494321  34.2279029
  62.8516953 127.4497539  23.2731296  63.1276797 127.3354134  24.1825170
  61.9821452 127.0515024  23.2343469  62.7557385 113.4734305  30.3136046
  61.8420465 113.7038532  30.4818253  63.1850486 113.5572749  31.1650078
  62.5263843 121.6624197  32.8135940  61.8735293 121.9100104  32.1588392
  62.9044223 120.8488335  32.4798417  59.4871017 131.6983890  26.9164110
  59.6693412 130.8805546  27.3791862  60.3104003 131.9151582  26.4789000
  59.8213183 130.6252075  24.1779158  60.3500949 130.1144530  23.5649321
  60.0841402 130.3094605  25.0424691  58.5751416 122.4044008  39.3001977
  57.8992053 122.3038137  39.9704352  59.3979050 122.2483222  39.7637974
  50.3230275 128.6415944  31.9214492  50.9083712 127.8959632  32.0542396
  50.1255114 128.9519901  32.8051156  53.1768931 131.6767192  26.9376934
  52.5079306 132.1613319  26.4540974  53.0381800 131.9236412  27.8520313
  44.9147930 121.2121545  30.6418935  44.9532030 120.6785135  31.4356053
  44.4088223 120.6856750  30.0229912  57.3174199 133.7110935  33.5359593
  57.8692507 133.8742557  34.3008678  57.6580393 134.3015373  32.8639618
  52.2938692 116.0586085  34.1381477  52.3580019 116.9200916  33.7258875
  52.2305813 115.4460087  33.4053836  51.7690965 118.1309218  37.7854512
  52.3963004 117.7486295  38.3992036  50.9118884 117.9123420  38.1510204
  62.1685073 128.5372193  39.3908247  62.7124977 129.1502151  38.8963202
  61.5871918 129.0951771  39.9075260  48.5456508 119.9385647  23.7172866
  48.8409949 119.0296325  23.6639920  47.6444543 119.9173386  23.3953869
  60.4542586 131.6592911  30.5223275  60.3293726 130.8582651  30.0134220
  61.1121678 132.1539104  30.0337245  52.0750755 118.0141643  29.7000415
  51.3537340 118.6277611  29.5607888  52.8644010 118.5499408  29.6217061
  62.5177495 129.4601931  32.1502825  61.5707830 129.3407282  32.0781152
  62.8660268 128.5724429  32.2329086  54.8777068 115.3496070  35.9741067
  55.4011470 115.5958366  36.7367376  54.6589401 116.1816105  35.5544204
  50.2744349 117.6199744  23.8412192  49.9457055 116.7397123  23.6587298
  50.6283720 117.5647413  24.7288581  59.5223928 129.2554647  28.3507177
  59.3748891 128.3271354  28.5314747  60.3477422 129.2774738  27.8664252
  53.3886172 117.9072714  24.2087669  53.7282245 118.4358635  23.4866278
  53.8358293 118.2453120  24.9846236  63.1258050 130.0783206  29.4372050
  64.0504597 129.8726067  29.2996501  62.9573353 129.8299607  30.3461391
  56.0829613 116.2909765  33.6590737  55.7426434 115.4917578  34.0611417
  55.3768620 116.5911476  33.0867571  56.7346085 113.3759077  32.1118060
  57.5572154 112.9019555  31.9896951  56.9784149 114.1549561  32.6116747
  55.3754320 116.4047336  22.4080962  56.0962682 116.7828589  21.9044679
  54.7519624 117.1236213  22.5115940  59.5185442 117.1092485  23.3439294
  59.7349057 117.9917123  23.0428123  59.0379510 116.7178698  22.6144936
  54.2584664 120.0678198  29.9210039  54.1129245 120.3818501  30.8134321
  53.7809867 120.6863098  29.3680938  56.1181047 117.0580746  29.9690929
  56.1042615 116.1621839  29.6323227  56.8353475 117.0651410  30.6029215
  57.9707177 117.4918086  32.0144056  57.7124955 118.4135157  32.0128386
  57.4392218 117.0948521  32.7044520  62.9153366 130.5968873  24.7934141
  63.0890244 130.0315296  24.0407994  63.4082257 131.3969768  24.6113631
  48.7330326 122.6083542  32.8597700  48.1883794 123.3843350  32.9917975
  49.6109676 122.9554347  32.7016822  55.5217943 115.9395126  25.2378499
  55.6433854 115.0111772  25.4369386  55.2319985 115.9533812  24.3256814
  58.3909133 113.6250037  28.3745219  58.4130830 113.6889370  27.4197198
  58.8077192 112.7854545  28.5685725  68.7692757 123.3605296  26.4124441
  69.2123903 122.6112621  26.0143564  67.8919268 123.3515433  26.0298173
  63.9028539 129.9135638  21.8931040  64.5979443 130.5342330  22.1118354
  64.2451689 129.0630989  22.1683418  49.5196348 121.7353439  35.7527857
  48.7778084 121.8836074  36.3392487  49.1989092 121.9961704  34.8894606
  65.8019962 127.3635343  23.4218370  66.3271286 127.7022616  22.6967690
  65.7142314 126.4282359  23.2381505  57.4640010 131.2769417  35.5508247
  57.7727137 131.0318564  36.4230947  58.2615493 131.4816055  35.0627117
  57.4860623 133.4307326  27.7813624  57.0465613 132.9383705  28.4746480
  58.2368739 132.8880294  27.5405699  49.9652962 129.6218867  27.7838252
  50.7910981 129.3222639  27.4036895  49.6147014 128.8526490  28.2328040
  54.9334495 128.9745336  29.8535925  54.3114504 128.3116041  29.5538153
  55.6039362 129.0006467  29.1709573  48.1661567 127.5405194  28.7427185
  47.3293475 127.1127368  28.5611187  48.1385212 127.7337637  29.6797976
  55.0059022 117.4527124  39.4468431  55.0547178 118.3289246  39.0646201
  55.5481536 116.9104517  38.8740075  65.4913868 127.9968247  38.7269568
  64.7009412 127.9792386  38.1874068  65.2547222 128.5356541  39.4818605
  65.6111743 124.8460713  36.0402297  65.6609748 124.6810721  36.9817820
  65.5025666 123.9787972  35.6500178  54.4948002 127.5249259  23.3294386
  54.6436122 128.2084723  22.6761059  55.3014445 127.5054349  23.8443842
  62.9015505 120.8291641  37.3561604  63.8025368 120.6898106  37.0645601
  62.9763480 120.9946096  38.2959781  57.2358311 118.2058496  36.2014790
  56.3661620 118.4992062  35.9297378  57.4717791 118.7898941  36.9222054
  67.1129940 127.2657655  36.2844318  66.8214748 127.6287635  37.1207779
  66.5002071 126.5524663  36.1057651  68.3125622 124.8310534  28.8046889
  69.1472513 125.2700339  28.9684449  68.4484751 124.3549188  27.9855134
  65.3617128 122.3890269  34.7524376  65.8371250 122.5817916  33.9443228
  64.4382693 122.4449455  34.5067760  52.2500635 123.5514437  24.3355455
  52.0046677 122.6476767  24.5335665  52.4196549 123.5531587  23.3934933
  59.9397344 114.4238113  33.7180210  60.4579288 115.1599140  33.3926699
  59.5852477 114.7302106  34.5526969  51.5196282 119.2842794  21.8341616
  50.8265527 119.3587149  21.1781652  51.2748034 118.5203138  22.3563133
  60.1909939 110.8438395  29.2381107  60.4711692 110.1761584  29.8641533
  60.9760546 111.0367491  28.7255771  57.9943407 130.0197389  20.8006133
  57.4217374 130.6387576  20.3476605  58.5676201 130.5696751  21.3346055
  64.0618797 119.2656029  32.9852682  65.0136220 119.3654127  33.0064906
  63.8922247 118.4734298  33.4950766  62.0833176 116.3511613  33.1712083
  61.4883109 116.6316625  32.4758572  61.7982873 116.8405514  33.9428824
  61.2140667 130.3034539  21.9314716  62.1471340 130.2380101  22.1347591
  61.1263880 131.1390806  21.4729248  63.8428684 129.6200410  18.8918663
  63.7642315 129.2860273  19.7854421  64.6638350 130.1122178  18.8910135
  66.5406875 122.4862149  32.0994982  66.5083195 121.5478150  32.2854666
  67.1507498 122.5646186  31.3660807  58.3790206 121.3558202  18.1422186
  59.3249310 121.2264410  18.2110604  58.0004451 120.6172864  18.6191614
  66.6901363 119.2773193  32.1453265  66.1740412 118.4931649  31.9583194
  67.5741312 118.9491909  32.3099784  64.3512090 113.0214208  28.1049078
  64.1536911 112.7129296  28.9892410  64.9611796 113.7475847  28.2347007
  72.3583425 123.5478156  31.2401018  73.0886813 123.2863444  31.8008722
  71.7490370 122.8106878  31.2803086  70.4398722 121.6886019  31.8375470
  69.7131885 121.5541983  31.2291961  70.0246009 121.9962847  32.6432188
  58.2628898 125.4075948  39.6022843  59.1831908 125.5854547  39.7962889
  58.2278481 124.4631994  39.4502542  56.5633123 119.2808178  18.0777071
  55.6564578 118.9841291  18.1539785  56.8409104 118.9837997  17.2111357
  47.4811063 120.6014542  28.5276117  47.1613847 119.7479850  28.2350491
  46.9344491 120.8163120  29.2834085  51.2590971 123.3176983  32.2445624
  51.4776980 124.2494091  32.2633658  51.6716745 122.9584957  33.0300428
  58.1795188 113.8245068  24.2321312  57.3695917 113.4792153  24.6076558
  58.8679605 113.5152612  24.8208924  60.1085737 112.9023115  25.8545609
  60.6616775 113.3218568  26.5135632  60.3455823 111.9758863  25.8968565
  56.1318836 118.8910189  41.6348373  56.0315563 119.8404546  41.5660464
  55.9140378 118.5628428  40.7624443  55.3331907 116.1395114  18.2189050
  56.1951071 116.4650012  18.4784868  55.5182252 115.3526610  17.7062116
  47.3499323 124.2217453  30.4969239  46.6562795 123.8071406  29.9839193
  48.0972314 124.2637990  29.9002658  63.4864544 115.0123640  25.3624273
  62.9063213 115.6708444  24.9802326  63.2200477 114.1900985  24.9511691
  61.9368110 114.4128698  27.5645593  62.4367889 114.5245232  26.7559912
  62.5803718 114.1089751  28.2046402  55.9950106 122.3207327  40.4513434
  55.5117188 123.1207688  40.6577323  56.0811045 122.3315272  39.4980878
  49.2636066 124.1535707  28.3735254  49.2406754 124.2523394  27.4217137
  49.5736702 125.0000858  28.6952420  51.9223444 126.2111862  32.4881868
  52.8766697 126.1795805  32.4211800  51.7235967 125.7502486  33.3032094
  52.5122826 124.7812978  35.0552666  53.3315715 125.2757057  35.0787503
  52.7859633 123.8644946  35.0270233  62.2689422 117.1723731  24.4180621
  61.3815277 117.4573381  24.2000816  62.6843411 117.0117494  23.5707898
  65.6203958 117.1970252  28.1334961  66.3964348 117.6866704  28.4059577
  64.8952092 117.6228306  28.5906830  68.0576517 117.9097871  29.1908901
  68.6521007 117.6693607  28.4802210  68.1303100 117.1905001  29.8182438
  50.2773672 131.7531482  29.5052066  50.1428140 130.9931883  28.9390064
  49.8605735 132.4772382  29.0380855  61.4132635 126.9368405  18.5128641
  62.1168485 127.1418408  19.1286297  60.6895284 127.5045167  18.7777725
  62.2430446 122.6878266  24.6330912  62.1865647 123.1446818  23.7938544
  62.7958788 121.9268951  24.4553754  66.0535252 118.4767998  25.4581031
  65.7972186 118.0764634  26.2889239  65.4288120 119.1911792  25.3331170
  70.3647589 121.2164072  27.9652322  69.8047147 121.2857261  28.7383885
  69.7591093 121.0405056  27.2451819  53.4342798 132.6500799  29.7170509
  53.3175182 133.5946231  29.6149199  52.6135244 132.3474360  30.1056308
  63.3219333 127.3750934  20.5627101  64.1564937 126.9432133  20.3804576
  63.1603676 127.2032948  21.4903996  62.9765225 123.8783048  21.9283441
  62.9214029 123.7127319  20.9871885  62.3511280 124.5859081  22.0845630
  47.7657740 119.1151112  35.7544863  48.4116604 118.6050066  36.2432088
  47.5574891 119.8519794  36.3288288  60.2911132 126.1831960  41.2537004
  61.1602292 126.3572612  40.8923638  59.8117884 127.0026376  41.1312733
  56.2861350 113.3791157  21.5068759  56.2740020 114.3232997  21.6637030
  57.1784772 113.1961302  21.2128220  54.4597312 133.3029061  32.9326437
  55.3624559 133.3352671  33.2492932  54.2334682 132.3729512  32.9472773
  56.2150914 132.0560047  29.5936516  55.2646545 132.0561909  29.4800888
  56.5183401 131.3092782  29.0772550  60.1013470 109.9733933  25.7614696
  59.3345866 109.4192420  25.9071378  60.5124175 110.0455802  26.6228848
  52.1055231 116.2618729  39.8519877  52.9686692 115.9055534  40.0623202
  51.5320642 115.9232624  40.5395281  71.9503608 137.8920586  30.6582278
  72.5882018 137.7727333  29.9545618  71.8324451 138.8401429  30.7170230
  68.7593314 137.8448014  30.5943803  68.4211826 137.7289078  29.7064338
  69.6283082 137.4439179  30.5744809  64.6180130 139.6983490  26.5840694
  64.0544995 139.6073427  25.8156982  64.5032525 138.8783394  27.0643186
  69.2413097 138.9982865  36.5530008  69.2301738 138.6035664  35.6810512
  69.4033737 138.2648938  37.1463780  66.8876565 139.1596826  32.0910552
  67.4840137 138.9352848  31.3767515  66.9451537 138.4181571  32.6936000
  71.5044876 135.6172039  27.7335486  72.2907966 135.1991463  27.3825903
  71.7683581 136.5218132  27.9017135  76.9053303 135.5547273  28.6368465
  77.6378475 134.9846489  28.8706294  76.1492659 135.1668873  29.0774970
  68.5229423 137.9774514  25.8331807  68.1587630 137.4505135  26.5444729
  69.3796539 137.5872983  25.6598293  74.4278724 129.2668847  33.0963073
  74.0962049 130.1364258  32.8724288  73.8324337 128.9505131  33.7757104
  70.9210243 141.4681393  32.4958986  70.6210966 142.3706431  32.3874793
  70.5761303 141.2013576  33.3480139  64.3722725 137.9195190  28.5295691
  63.4473221 137.7871404  28.7373382  64.6207138 138.6989409  29.0265633
  74.3207387 133.9863933  30.1756423  73.4124264 133.9179341  29.8815184
  74.2694983 134.4635878  31.0038249  61.7331536 137.5628463  29.3639480
  61.8623917 137.8162942  30.2778891  61.0528987 138.1556171  29.0444135
  68.3948253 135.4053578  38.1191321  67.6181587 135.9647499  38.1094185
  69.0338816 135.8910361  38.6406191  76.1869034 132.1880371  31.9534297
  75.5443414 132.4812904  31.3074092  75.6823962 132.0733292  32.7587494
  66.6494625 138.2139032  37.6809288  67.3909310 138.7524076  37.4044111
  65.9431611 138.8405321  37.8380839  72.1249965 140.3568172  36.2781449
  72.5333321 139.9150583  35.5336082  71.4027226 139.7820800  36.5315642
  68.4781035 135.2940779  33.6515006  69.3242230 135.7180193  33.7949655
  68.4179673 134.6374403  34.3453569  72.4478780 140.9169363  30.0333738
  71.8187642 141.0815077  29.3309806  72.0604442 141.3310972  30.8044702
  71.6280480 132.9545147  35.3096180  71.3841412 133.7087208  34.7730455
  71.9040411 133.3330495  36.1443427  73.5818943 139.4983760  33.9873445
  73.7935838 140.1415520  33.3107826  73.5348691 138.6646076  33.5195375
  71.1845172 132.1101580  30.8910017  70.3229651 132.4082834  31.1826755
  71.2107607 132.3271979  29.9591050  68.0006741 140.6543771  27.2983823
  68.4645087 140.9331474  26.5088446  67.7363539 139.7527216  27.1156914
  66.9375627 136.7766923  24.1073388  67.6399671 137.2287967  24.5747315
  66.6056256 136.1350742  24.7353281  65.3855989 135.3678680  38.4824598
  64.7554650 136.0494961  38.7159995  65.2792077 135.2561762  37.5377736
  60.6800961 135.0350476  29.4090522  59.8900015 135.2908005  28.9330632
  61.1712209 135.8498814  29.5142562  74.6964771 142.3755715  32.1595803
  75.5182215 141.9735902  31.8778484  74.6927174 142.2723949  33.1111918
  62.6315707 135.3995055  26.3673999  61.8346870 135.5113750  26.8857494
  62.4041299 135.7381707  25.5014889  58.9638664 135.2880966  31.8405513
  59.2146703 136.1727976  32.1063089  59.4998213 135.1085568  31.0680604
  64.6636732 129.6699446  40.8449849  64.2703677 129.1165644  41.5197493
  65.4802872 129.9810024  41.2356366  67.5804693 131.0857325  38.4370105
  68.3214406 131.6864478  38.3574568  67.8122616 130.3434963  37.8788148
  62.7246031 136.2713692  36.7148335  62.6099546 135.3698949  37.0155434
  61.8690548 136.5177389  36.3633152  71.5261856 127.1138428  32.7134387
  71.1826125 128.0040070  32.6373498  71.8940818 126.9240085  31.8503972
  69.0759249 131.9496740  26.2792060  68.2200846 131.5603590  26.0997699
  69.4886201 132.0288701  25.4191846  70.6058396 129.4843083  30.6783620
  70.1023192 129.4473218  29.8651426  70.8989003 130.3935826  30.7380277
  66.8501282 129.5681813  29.6849802  67.7154279 129.3724621  29.3255691
  66.9178791 129.3392165  30.6119159  74.7037719 139.3313375  29.8126604
  74.0461394 140.0212636  29.9006732  75.5078119 139.7209807  30.1560590
  64.4563601 131.7984021  27.0566169  65.0307353 131.5759202  26.3239362
  65.0434583 131.8672715  27.8094770  73.5143178 137.6857748  27.8630545
  74.0275060 138.3187739  28.3652255  74.1644402 137.0858943  27.4973905
  66.7586269 128.6725270  25.7841238  66.1050681 128.3574287  25.1597853
  66.7166743 128.0501010  26.5101061  69.9924009 135.1607203  30.1088886
  69.0746570 135.3822150  29.9510574  70.4084153 135.2353514  29.2500593
  73.2237894 133.5955735  27.2210355  72.4860651 133.0833121  27.5520598
  73.4764668 133.1556117  26.4093632  73.3249521 126.3731987  27.8152125
  73.6308398 125.5129350  27.5278040  74.0502126 126.9649607  27.6151119
  59.6173877 136.7762674  26.2033723  59.4198277 136.1832034  25.4784789
  59.0620541 136.4714884  26.9209661  67.5970601 136.6685780  28.3228316
  67.6519211 135.7159617  28.2470792  66.7861803 136.8245219  28.8069614
  65.5362961 135.2862840  26.0818695  64.7230826 135.5857010  26.4883887
  66.0321955 134.8918529  26.7993177  71.1337173 135.7504664  34.9133588
  71.4886560 135.9776137  35.7728054  71.7809304 136.0823041  34.2910844
  65.0277036 132.8581195  31.6979930  65.6676415 132.7169954  31.0002893
  64.1954566 132.5715709  31.3218532  62.1120103 136.3026708  23.8874675
  61.1817691 136.2411163  24.1044637  62.2077575 135.7802660  23.0911316
  62.0305652 132.8281520  26.4752916  62.2912469 133.7426854  26.3662077
  62.8522824 132.3605963  26.6249529  63.5030577 134.2419278  33.6451741
  64.1753631 134.0336640  32.9964390  62.6760364 134.0441364  33.2056973
  77.7519839 140.9823328  33.1627074  77.9455729 141.8869138  33.4086349
  77.6520457 140.5230747  33.9965659  69.4056149 130.8681218  35.6617402
  68.7584065 131.5671168  35.5681878  70.1757165 131.3017362  36.0293650
  72.8134947 141.1330071  38.7367955  72.6620454 140.9040622  37.8198039
  72.8039627 142.0900672  38.7499300  69.5820284 138.7061983  33.7214221
  70.5112344 138.8573143  33.5483189  69.1611314 138.7946004  32.8662868
  63.9058075 137.5161881  34.4054178  63.7677873 136.7842119  35.0065717
  64.8162998 137.4270781  34.1238366  66.5340375 137.2281840  33.8937858
  67.2439994 136.5875032  33.8524476  66.4909684 137.4794735  34.8164038
  65.2469309 134.2147058  35.7133497  64.7106666 133.7637796  36.3655094
  64.6586018 134.3492967  34.9703962  74.5244561 142.1288777  35.0458417
  73.6371340 141.7914699  35.1684815  75.0943112 141.3971808  35.2827182
  60.9808431 133.3503065  32.7986492  60.8966619 132.7428735  32.0636902
  60.1591137 133.8412084  32.7995988  71.1532144 131.8356629  28.1656687
  71.6500844 131.0826591  27.8457757  70.3819126 131.8720946  27.5999896
  79.0061902 137.5396994  29.8074978  78.9951778 138.4221710  29.4368911
  78.1379281 137.1868545  29.6129515  67.7367113 133.9774012  27.8928371
  67.3664901 133.4245052  28.5809277  68.2326206 133.3732145  27.3403371
  73.5951139 128.8026222  30.3136046  72.6814219 129.0330449  30.4818253
  74.0244241 128.8864667  31.1650078  73.3657598 136.9916114  32.8135940
  72.7129048 137.2392022  32.1588392  73.7437978 136.1780253  32.4798417
  69.4145171 137.7335925  39.3001977  68.7385808 137.6330055  39.9704352
  70.2372805 137.5775139  39.7637974  55.7541685 136.5413462  30.6418935
  55.7925784 136.0077053  31.4356053  55.2481977 136.0148668  30.0229912
  63.1332447 131.3878003  34.1381477  63.1973773 132.2492834  33.7258875
  63.0699567 130.7752004  33.4053836  62.6084719 133.4601135  37.7854512
  63.2356758 133.0778213  38.3992036  61.7512638 133.2415337  38.1510204
  59.3850262 135.2677564  23.7172866  59.6803703 134.3588243  23.6639920
  58.4838298 135.2465304  23.3953869  62.9144509 133.3433561  29.7000415
  62.1931095 133.9569529  29.5607888  63.7037765 133.8791326  29.6217061
  65.7170823 130.6787987  35.9741067  66.2405224 130.9250284  36.7367376
  65.4983156 131.5108022  35.5544204  61.1138104 132.9491662  23.8412192
  60.7850810 132.0689041  23.6587298  61.4677474 132.8939331  24.7288581
  64.2279927 133.2364632  24.2087669  64.5675999 133.7650553  23.4866278
  64.6752047 133.5745038  24.9846236  66.9223368 131.6201683  33.6590737
  66.5820188 130.8209496  34.0611417  66.2162374 131.9203393  33.0867571
  67.5739840 128.7050995  32.1118060  68.3965909 128.2311473  31.9896951
  67.8177903 129.4841479  32.6116747  66.2148074 131.7339253  22.4080962
  66.9356437 132.1120506  21.9044679  65.5913378 132.4528130  22.5115940
  70.3579197 132.4384402  23.3439294  70.5742811 133.3209040  23.0428123
  69.8773264 132.0470616  22.6144936  65.0978418 135.3970116  29.9210039
  64.9522999 135.7110419  30.8134321  64.6203622 136.0155016  29.3680938
  66.9574801 132.3872664  29.9690929  66.9436370 131.4913757  29.6323227
  67.6747229 132.3943327  30.6029215  68.8100932 132.8210004  32.0144056
  68.5518710 133.7427074  32.0128386  68.2785972 132.4240438  32.7044520
  66.3611697 131.2687044  25.2378499  66.4827608 130.3403690  25.4369386
  66.0713739 131.2825730  24.3256814  69.2302888 128.9541954  28.3745219
  69.2524584 129.0181287  27.4197198  69.6470947 128.1146463  28.5685725
  60.3590102 137.0645356  35.7527857  59.6171838 137.2127992  36.3392487
  60.0382847 137.3253622  34.8894606  65.8452777 132.7819041  39.4468431
  65.8940932 133.6581164  39.0646201  66.3875291 132.2396434  38.8740075
  76.3307622 143.3260164  38.7269568  75.5403166 143.3084303  38.1874068
  76.0940977 143.8648458  39.4818605  76.4505497 140.1752631  36.0402297
  76.5003502 140.0102638  36.9817820  76.3419421 139.3079890  35.6500178
  73.7409260 136.1583559  37.3561604  74.6419123 136.0190024  37.0645601
  73.8157234 136.3238014  38.2959781  68.0752065 133.5350414  36.2014790
  67.2055375 133.8283980  35.9297378  68.3111545 134.1190859  36.9222054
  77.9523694 142.5949572  36.2844318  77.6608503 142.9579553  37.1207779
  77.3395826 141.8816581  36.1057651  76.2010882 137.7182187  34.7524376
  76.6765004 137.9109833  33.9443228  75.2776448 137.7741373  34.5067760
  63.0894389 138.8806354  24.3355455  62.8440431 137.9768684  24.5335665
  63.2590304 138.8823505  23.3934933  70.7791099 129.7530031  33.7180210
  71.2973043 130.4891058  33.3926699  70.4246232 130.0594024  34.5526969
  62.3590037 134.6134712  21.8341616  61.6659282 134.6879067  21.1781652
  62.1141788 133.8495055  22.3563133  71.0303693 126.1730313  29.2381107
  71.3105447 125.5053502  29.8641533  71.8154300 126.3659409  28.7255771
  74.9012551 134.5947947  32.9852682  75.8529974 134.6946045  33.0064906
  74.7316002 133.8026216  33.4950766  72.9226931 131.6803530  33.1712083
  72.3276863 131.9608543  32.4758572  72.6376628 132.1697431  33.9428824
  77.3800629 137.8154067  32.0994982  77.3476949 136.8770068  32.2854666
  77.9901253 137.8938104  31.3660807  77.5295118 134.6065110  32.1453265
  77.0134166 133.8223567  31.9583194  78.4135066 134.2783827  32.3099784
  75.1905845 128.3506126  28.1049078  74.9930666 128.0421214  28.9892410
  75.8005550 129.0767765  28.2347007  83.1977179 138.8770074  31.2401018
  83.9280568 138.6155362  31.8008722  82.5884125 138.1398796  31.2803086
  81.2792476 137.0177936  31.8375470  80.5525640 136.8833901  31.2291961
  80.8639763 137.3254765  32.6432188  69.1022653 140.7367866  39.6022843
  70.0225662 140.9146465  39.7962889  69.0672236 139.7923911  39.4502542
  58.3204818 135.9306460  28.5276117  58.0007602 135.0771768  28.2350491
  57.7738246 136.1455038  29.2834085  69.0188943 129.1536986  24.2321312
  68.2089671 128.8084071  24.6076558  69.7073360 128.8444530  24.8208924
  70.9479491 128.2315033  25.8545609  71.5010530 128.6510486  26.5135632
  71.1849578 127.3050781  25.8968565  66.9712591 134.2202106  41.6348373
  66.8709317 135.1696463  41.5660464  66.7534133 133.8920345  40.7624443
  74.3258298 130.3415558  25.3624273  73.7456967 131.0000362  24.9802326
  74.0594231 129.5192902  24.9511691  72.7761865 129.7420616  27.5645593
  73.2761643 129.8537150  26.7559912  73.4197473 129.4381668  28.2046402
  66.8343861 137.6499245  40.4513434  66.3510942 138.4499605  40.6577323
  66.9204800 137.6607190  39.4980878  73.1083176 132.5015648  24.4180621
  72.2209031 132.7865299  24.2000816  73.5237165 132.3409412  23.5707898
  76.4597713 132.5262169  28.1334961  77.2358103 133.0158622  28.4059577
  75.7345847 132.9520223  28.5906830  78.8970271 133.2389788  29.1908901
  79.4914762 132.9985524  28.4802210  78.9696855 132.5196919  29.8182438
  58.6051494 134.4443030  35.7544863  59.2510358 133.9341984  36.2432088
  58.3968646 135.1811711  36.3288288  71.1304887 141.5123877  41.2537004
  71.9996046 141.6864530  40.8923638  70.6511638 142.3318294  41.1312733
  67.1255105 128.7083074  21.5068759  67.1133775 129.6524914  21.6637030
  68.0178527 128.5253220  21.2128220  70.9407224 125.3025851  25.7614696
  70.1739620 124.7484338  25.9071378  71.3517929 125.3747720  26.6228848
  62.9448985 131.5910647  39.8519877  63.8080447 131.2347452  40.0623202
  62.3714396 131.2524542  40.5395281  15.6069097  44.5733967  25.0381142
  15.1632951  43.7870345  24.7202047  16.2686311  44.7613117  24.3725033
  17.7050335  44.8536767  23.0662544  17.6868811  45.6745648  22.5742813
  18.6270255  44.7290842  23.2912685  14.1623389  42.3680896  23.9086052
  14.6951726  41.6069184  23.6785360  13.6337471  42.0754548  24.6510206
  23.5551068  41.3425862  19.8872381  23.7486958  42.2471673  20.1331656
  23.4551686  40.8833281  20.7210966  18.6166176  41.4932605  25.4613262
  18.4651683  41.2643157  24.5443345  18.6070856  42.4503206  25.4744607
  20.3258383  44.5251727  23.5389744  20.2670929  43.8410948  22.8720327
  20.7277901  45.2670717  23.0870370  20.3275790  42.4891311  21.7703723
  19.4402569  42.1517233  21.8930122  20.8974341  41.7574343  22.0072489
  16.3175627  47.0479598  20.8923125  17.0303599  47.6827063  20.8199027
  15.8265656  47.1443464  20.0763127  15.2176400  38.0938460  26.0247283
  14.5417037  37.9932589  26.6949659  16.0404033  37.9377673  26.4883281
  13.9599182  49.4005387  20.2604899  14.5117490  49.5637009  21.0253985
  14.3005376  49.9909825  19.5884924  18.8110057  44.2266645  26.1153554
  19.3549961  44.8396603  25.6208509  18.2296902  44.7846223  26.6320567
  14.1064994  46.9663869  22.2753554  14.4152120  46.7213015  23.1476253
  14.9040476  47.1710507  21.7872424  22.1338851  43.6862699  25.4514875
  21.3434395  43.6686838  24.9119374  21.8972206  44.2250992  26.2063912
  22.2536726  40.5355165  22.7647604  22.3034731  40.3705173  23.7063126
  22.1450650  39.6682424  22.3745484  19.5440489  36.5186093  24.0806910
  20.4450351  36.3792558  23.7890908  19.6188463  36.6840548  25.0205088
  23.7554923  42.9552107  23.0089625  23.4639731  43.3182087  23.8453086
  23.1427054  42.2419115  22.8302957  14.9053881  41.0970400  26.3268149
  15.8256891  41.2748999  26.5208196  14.8703464  40.1526445  26.1747849
  12.6375089  38.0101779  27.1758741  12.1542171  38.8102139  27.3822630
  12.7236028  38.0209724  26.2226185  16.9336115  41.8726411  27.9782310
  17.8027275  42.0467064  27.6168945  16.4542867  42.6920828  27.8558040
  28.5928591  53.5815037  17.3827585  29.2307001  53.4621785  16.6790925
  28.4749434  54.5295881  17.4415537  25.4018297  53.5342466  17.3189110
  25.0636809  53.4183530  16.4309644  26.2708066  53.1333631  17.2990116
  25.8838080  54.6877317  23.2775315  25.8726721  54.2930116  22.4055819
  26.0458720  53.9543390  23.8709087  18.8069545  56.8829134  16.1470221
  19.5990837  56.5419958  15.7316520  19.0466195  56.9924109  17.0672374
  26.8404672  59.0548910   8.6200465  26.1892652  59.6402990   8.2334479
  27.6349035  59.5855105   8.6795503  22.6045342  57.4714429  22.2254499
  22.3135208  58.3760060  22.1101165  23.2402326  57.5130957  22.9398569
  23.5301548  54.8491278  18.8155859  24.1265121  54.6247300  18.1012822
  23.5876520  54.1076023  19.4181307  28.1469860  51.3066491  14.4580793
  28.9332949  50.8885914  14.1071210  28.4108564  52.2112583  14.6262441
  33.5478287  51.2441724  15.3613771  34.2803459  50.6740941  15.5951601
  32.7917642  50.8563325  15.8020277  25.1654406  53.6668966  12.5577114
  24.8012614  53.1399587  13.2690035  26.0221522  53.2767435  12.3843599
  31.0703707  44.9563299  19.8208380  30.7387032  45.8258710  19.5969595
  30.4749321  44.6399583  20.5002410  27.5635227  57.1575845  19.2204293
  27.2635950  58.0600883  19.1120100  27.2186286  56.8908028  20.0725446
  21.0147708  53.6089641  15.2540997  20.0898205  53.4765856  15.4618689
  21.2632121  54.3883861  15.7510940  30.9632370  49.6758385  16.9001730
  30.0549248  49.6073793  16.6060491  30.9119966  50.1530330  17.7283556
  18.3756519  53.2522915  16.0884786  18.5048900  53.5057394  17.0024198
  17.6953970  53.8450623  15.7689441  22.5456006  63.9220165  12.1875260
  22.4680036  64.8727990  12.2663741  21.9417650  63.5766037  12.8450187
  25.0373236  51.0948030  24.8436627  24.2606570  51.6541950  24.8339492
  25.6763799  51.5804813  25.3651497  32.8294017  47.8774823  18.6779604
  32.1868397  48.1707356  18.0319399  32.3248945  47.7627743  19.4832801
  23.2919609  53.9033484  24.4054594  24.0334293  54.4418528  24.1289418
  22.5856594  54.5299772  24.5626146  28.7674948  56.0462624  23.0026756
  29.1758304  55.6045035  22.2581388  28.0452210  55.4715252  23.2560949
  25.1206018  50.9835231  20.3760313  25.9667213  51.4074644  20.5194962
  25.0604656  50.3268855  21.0698876  29.0903763  56.6063815  16.7579045
  28.4612625  56.7709529  16.0555113  28.7029425  57.0205424  17.5290009
  32.9692995  57.5418253  14.1123408  32.2844033  57.9217154  13.5620442
  33.0536844  58.1513579  14.8455356  28.2705464  48.6439599  22.0341486
  28.0266395  49.3981660  21.4975762  28.5465394  49.0224947  22.8688733
  30.2243926  55.1878212  20.7118752  30.4360822  55.8309972  20.0353133
  30.1773675  54.3540528  20.2440682  27.8270155  47.7996032  17.6155324
  26.9654634  48.0977286  17.9072062  27.8532590  48.0166431  16.6836357
  24.6431725  56.3438223  14.0229130  25.1070070  56.6225926  13.2333752
  24.3788523  55.4421667  13.8402220  21.5355806  55.8909704  16.9608893
  22.1057163  56.3196973  16.3226378  22.1263918  55.6092289  17.6593079
  22.0280972  51.0573132  25.2069904  21.3979633  51.7389413  25.4405301
  21.9217060  50.9456213  24.2623043  31.3389754  58.0650167  18.8841109
  32.1607198  57.6630354  18.6023791  31.3352157  57.9618401  19.8357225
  25.1046358  57.6134210  21.0401820  25.1690790  58.0754618  21.8759992
  24.3957282  56.9831575  21.1684130  15.6063648  50.9775418  18.5650819
  15.8571686  51.8622428  18.8308395  16.1423196  50.7980020  17.7925911
  39.4295747  54.4088916  15.2326081  38.6759456  53.8396314  15.0770085
  39.5643289  54.3751580  16.1796715  24.8194375  59.2802318  10.9080800
  24.6840050  60.1253854  11.3365648  25.3604188  59.4821596  10.1446734
  21.3061715  45.3593898  27.5695155  20.9128661  44.8060096  28.2442800
  22.1227855  45.6704476  27.9601673  20.0818657  59.9143512  13.5631478
  20.2585286  60.8361477  13.3752462  20.8775491  59.6001931  13.9925858
  24.2229676  46.7751777  25.1615412  24.9639389  47.3758930  25.0819874
  24.4547599  46.0329415  24.6033455  19.3671014  51.9608144  23.4393642
  19.2524529  51.0593401  23.7400741  18.5115532  52.2071841  23.0878458
  26.4462852  59.9025884  25.0381142  26.0026706  59.1162263  24.7202047
  27.1080065  60.0905035  24.3725033  21.2049973  61.4321686  19.5641821
  21.7557398  61.3038749  18.7918815  20.3661449  61.7316575  19.2136714
  28.5444090  60.1828684  23.0662544  28.5262565  61.0037565  22.5742813
  29.4664010  60.0582760  23.2912685  25.0017144  57.6972814  23.9086052
  25.5345481  56.9361102  23.6785360  24.4731225  57.4046466  24.6510206
  28.1686839  42.8032880  19.4379694  27.8251108  43.6934521  19.3618804
  28.5365802  42.6134537  18.5749279  27.2483379  45.1737535  17.4028927
  26.7448175  45.1367670  16.5896732  27.5413986  46.0830278  17.4625584
  33.1071396  55.5473846   9.8805302  32.3300839  55.2085005   9.4360464
  33.7862877  55.5526469   9.2060267  26.3669857  56.8258806  11.4204864
  25.8391218  56.0911566  11.1078101  25.8657359  57.6033483  11.1744832
  31.3462703  55.0207827  16.5371910  30.6886377  55.7107088  16.6252039
  32.1503102  55.4104259  16.8805897  30.1568161  53.3752199  14.5875852
  30.6700043  54.0082191  15.0897562  30.8069385  52.7753395  14.2219212
  27.4190536  63.3536524   7.3436523  26.7452234  63.6568220   7.9521481
  27.8056358  64.1565604   6.9941980  26.6348992  50.8501655  16.8334192
  25.7171554  51.0716602  16.6755881  27.0509136  50.9247965  15.9745900
  27.4184040  52.2493071  11.9636873  28.1655859  52.7614468  11.6543995
  27.6875630  51.9277123  12.8241266  30.9229958  58.3558201  12.7154995
  30.4692285  57.5149111  12.7720185  30.2923924  58.9919599  13.0529775
  29.8662877  49.2850187  13.9455662  29.1285634  48.7727573  14.2765905
  30.1189651  48.8450569  13.1338939  29.3662897  60.1934698  13.6504813
  29.6585871  60.7539755  12.9317178  29.8761518  60.4863259  14.4057972
  24.2395584  52.3580232  15.0473622  24.2944194  51.4054068  14.9716099
  23.4286786  52.5139671  15.5314921  24.3296522  60.9715049  14.7398266
  24.2872701  61.1975895  13.8106798  25.2459221  60.7378423  14.8884067
  27.7762156  51.4399116  21.6378895  28.1311544  51.6670589  22.4973361
  28.4234287  51.7717493  21.0156150  33.5059893  54.5617552  12.3428224
  33.3677791  54.7519148  11.4149413  33.1496112  55.3236935  12.7996275
  21.6702019  48.5475647  18.4225236  22.3101398  48.4064406  17.7248200
  20.8379550  48.2610161  18.0463838  33.5329272  56.6294079  17.3539496
  33.9665779  56.5369368  18.2022550  34.2460853  56.6051580  16.7159512
  22.4462323  57.8478078  14.5360229  23.2402921  57.3528398  14.3342804
  21.7354015  57.3195941  14.1727934  27.2657167  60.2296173  18.8872596
  27.3194190  60.7987110  19.6550312  26.3971949  60.3998058  18.5226633
  20.1455561  49.9313729  20.3697048  20.8178614  49.7231092  19.7209696
  19.3185347  49.7335815  19.9302280  34.3944822  56.6717780  19.8872381
  34.5880712  57.5763590  20.1331656  34.2945440  56.2125199  20.7210966
  26.0481133  46.5575670  22.3862708  25.4009048  47.2565620  22.2927185
  26.8182148  46.9911814  22.7538957  29.4559931  56.8224523  25.4613262
  29.3045437  56.5935074  24.5443345  29.4464610  57.7795124  25.4744607
  26.2245267  54.3956435  20.4459528  27.1537327  54.5467595  20.2728495
  25.8036297  54.4840456  19.5908175  25.0233599  58.4207100  18.2158066
  24.8844685  58.0525884  19.0884004  24.2348195  58.9354739  18.0442024
  25.6181751  63.5216196   9.5583602  25.7933507  63.0504239  10.3729225
  24.9314539  64.1481962   9.7864863  26.5738814  57.7988702  15.6046904
  26.2388647  57.7589472  16.5004553  26.0742760  57.1333418  15.1317314
  20.5483058  53.2056332  21.1299485  20.4102856  52.4736571  21.7311024
  21.4587981  53.1165233  20.8483672  23.1765359  52.9176292  20.6183164
  23.8864977  52.2769484  20.5769783  23.1334667  53.1689187  21.5409345
  31.1652137  59.8543645  23.5389744  31.1064684  59.1702865  22.8720327
  31.5671656  60.5962635  23.0870370  21.8894293  49.9041510  22.4378804
  21.3531650  49.4532248  23.0900400  21.3011001  50.0387418  21.6949268
  20.1842836  66.6705559  16.3323462  20.4239434  67.3024083  17.0102481
  19.3412033  66.3193599  16.6188822  31.1669545  57.8183229  21.7703723
  30.2796323  57.4809151  21.8930122  31.7368096  57.0866260  22.0072489
  17.6233414  49.0397517  19.5231798  17.5391603  48.4323187  18.7882208
  16.8016120  49.5306536  19.5241295  24.6970698  62.4784681  18.7364966
  24.6240870  63.2839653  19.2484271  24.2548091  62.6776647  17.9112988
  24.4860478  61.7156451  12.2467788  23.7028000  62.2578132  12.3406012
  25.1853223  62.2330431  12.6462029  35.6486885  53.2291446  16.5320285
  35.6376761  54.1116162  16.1614218  34.7804265  52.8762997  16.3374822
  27.1569382  62.3771515  20.8923125  27.8697354  63.0118980  20.8199027
  26.6659410  62.4735381  20.0763127  28.8786908  56.2822768  12.4640417
  27.9443187  56.4024231  12.2945121  29.0563577  55.3795235  12.2000427
  32.2659460  52.1240087  12.9990451  32.7319912  52.9568079  12.9250754
  32.7166960  51.6585069  13.7035709  22.2081295  60.1265959  21.7128696
  22.9090755  60.7602442  21.8658090  21.7376410  60.4680690  20.9524335
  30.3335691  58.4683909   9.9976603  30.6095535  58.3540503  10.9070477
  29.4640190  58.0701393   9.9588776  30.2376123  44.4920674  17.0381352
  29.3239202  44.7224901  17.2063559  30.6669224  44.5759118  17.8895385
  30.0082581  52.6810566  19.5381246  29.3554031  52.9286474  18.8833699
  30.3862961  51.8674704  19.2043724  26.9689755  62.7170259  13.6409417
  27.1512149  61.8991915  14.1037169  27.7922741  62.9337952  13.2034307
  27.3031920  61.6438445  10.9024465  27.8319687  61.1330899  10.2894627
  27.5660140  61.3280975  11.7669998  26.0570154  53.4230377  26.0247283
  25.3810791  53.3224507  26.6949659  26.8797788  53.2669591  26.4883281
  17.8049013  59.6602314  18.6459799  18.3902450  58.9146002  18.7787703
  17.6073852  59.9706271  19.5296462  20.6587668  62.6953561  13.6622241
  19.9898044  63.1799689  13.1786281  20.5200538  62.9422782  14.5765620
  24.7992937  64.7297305  20.2604899  25.3511245  64.8928926  21.0253985
  25.1399130  65.3201743  19.5884924  19.7757430  47.0772455  20.8626784
  19.8398757  47.9387286  20.4504182  19.7124550  46.4646456  20.1299143
  19.2509703  49.1495587  24.5099818  19.8781742  48.7672664  25.1237343
  18.3937622  48.9309789  24.8755511  29.6503811  59.5558562  26.1153554
  30.1943715  60.1688521  25.6208509  29.0690656  60.1138141  26.6320567
  27.9361324  62.6779280  17.2468582  27.8112464  61.8769020  16.7379527
  28.5940415  63.1725474  16.7582551  29.9996233  60.4788300  18.8748132
  29.0526568  60.3593652  18.8026458  30.3479006  59.5910798  18.9574393
  22.3595806  46.3682439  22.6986373  22.8830208  46.6144736  23.4612683
  22.1408139  47.2002474  22.2789511  27.0042666  60.2741017  15.0752484
  26.8567628  59.3457724  15.2560054  27.8296159  60.2961107  14.5909559
  30.6076788  61.0969575  16.1617357  31.5323335  60.8912437  16.0241808
  30.4392091  60.8485977  17.0706698  23.5648351  47.3096134  20.3836044
  23.2245171  46.5103948  20.7856724  22.8587357  47.6097845  19.8112877
  24.2164823  44.3945447  18.8363367  25.0390892  43.9205925  18.7142257
  24.4602886  45.1735931  19.3362053  21.7403402  51.0864568  16.6455346
  21.5947982  51.4004871  17.5379627  21.2628605  51.7049468  16.0926244
  23.5999784  48.0767115  16.6936235  23.5861353  47.1808209  16.3568533
  24.3172213  48.0837779  17.3274521  25.4525915  48.5104456  18.7389363
  25.1943693  49.4321526  18.7373693  24.9210956  48.1134890  19.4289827
  30.3972104  61.6155243  11.5179448  30.5708981  61.0501665  10.7653300
  30.8900995  62.4156138  11.3358938  16.2149064  53.6269912  19.5843007
  15.6702532  54.4029720  19.7163281  17.0928414  53.9740716  19.4262128
  36.2511495  54.3791666  13.1369748  36.6942641  53.6298991  12.7388871
  35.3738005  54.3701802  12.7543480  31.3847276  60.9322007   8.6176346
  32.0798181  61.5528700   8.8363661  31.7270427  60.0817358   8.8928724
  17.0015086  52.7539808  22.4773164  16.2596822  52.9022444  23.0637794
  16.6807830  53.0148074  21.6139913  33.2838700  58.3821713  10.1463677
  33.8090024  58.7208986   9.4212997  33.1961052  57.4468728   9.9626812
  24.9458748  62.2955786  22.2753554  25.2545875  62.0504933  23.1476253
  25.7434230  62.5002425  21.7872424  24.9679360  64.4493696  14.5058930
  24.5284351  63.9570075  15.1991787  25.7187477  63.9066664  14.2651005
  17.4471699  60.6405237  14.5083558  18.2729719  60.3409009  14.1282202
  17.0965751  59.8712859  14.9573347  22.4153232  59.9931705  16.5781232
  21.7933242  59.3302410  16.2783460  23.0858099  60.0192837  15.8954880
  15.6480304  58.5591563  15.4672492  14.8112213  58.1313738  15.2856493
  15.6203950  58.7524007  16.4043283  22.4877760  48.4713493  26.1713738
  22.5365915  49.3475616  25.7891508  23.0300274  47.9290886  25.5985381
  32.9732606  59.0154616  25.4514875  32.1828149  58.9978755  24.9119374
  32.7365960  59.5542910  26.2063912  33.0930481  55.8647083  22.7647604
  33.1428486  55.6997090  23.7063126  32.9844404  54.9974342  22.3745484
  30.3834243  51.8478011  24.0806910  31.2844106  51.7084476  23.7890908
  30.4582218  52.0132466  25.0205088  24.7177048  49.2244866  22.9260097
  23.8480358  49.5178432  22.6542685  24.9536529  49.8085311  23.6467360
  34.5948678  58.2844024  23.0089625  34.3033486  58.6474005  23.8453086
  33.9820809  57.5711033  22.8302957  35.7944360  55.8496904  15.5292195
  36.6291251  56.2886708  15.6929756  35.9303489  55.3735557  14.7100441
  32.8435866  53.4076639  21.4769683  33.3189987  53.6004285  20.6688534
  31.9201431  53.4635825  21.2313067  27.4216082  45.4424482  20.4425517
  27.9398026  46.1785509  20.1172006  27.0671215  45.7488476  21.2772276
  31.5437535  50.2842399  19.7097989  32.4954958  50.3840497  19.7310213
  31.3740985  49.4920668  20.2196073  29.5651914  47.3697982  19.8957390
  28.9701846  47.6502995  19.2003878  29.2801611  47.8591883  20.6674131
  28.6959405  61.3220909   8.6560022  29.6290078  61.2566471   8.8592898
  28.6082618  62.1577176   8.1974555  31.3247421  60.6386779   5.6163970
  31.2461053  60.3046643   6.5099728  32.1457088  61.1308547   5.6155442
  34.0225613  53.5048519  18.8240288  33.9901933  52.5664519  19.0099972
  34.6326236  53.5832555  18.0906113  34.1720101  50.2959562  18.8698572
  33.6559150  49.5118019  18.6828500  35.0560050  49.9678279  19.0345091
  31.8330828  44.0400578  14.8294384  31.6355649  43.7315666  15.7137716
  32.4430534  44.7662217  14.9592314  39.8402162  54.5664526  17.9646325
  40.5705551  54.3049814  18.5254028  39.2309108  53.8293247  18.0048393
  37.9217460  52.7072388  18.5620776  37.1950623  52.5728353  17.9537268
  37.5064746  53.0149217  19.3677494  25.7447636  56.4262318  26.3268149
  26.6650645  56.6040917  26.5208196  25.7097219  55.4818363  26.1747849
  18.7409708  54.3363352  18.9690931  18.9595718  55.2680460  18.9878964
  19.1535482  53.9771327  19.7545734  23.6137574  49.9096558  28.3593679
  23.5134301  50.8590915  28.2905771  23.3959116  49.5814797  27.4869750
  14.8318061  55.2403823  17.2214546  14.1381532  54.8257776  16.7084500
  15.5791052  55.2824359  16.6247964  23.4768844  53.3393697  27.1758741
  22.9935926  54.1394057  27.3822630  23.5629783  53.3501642  26.2226185
  19.4042181  57.2298232  19.2127175  20.3585435  57.1982174  19.1457106
  19.2054705  56.7688855  20.0277401  19.9941563  55.7999348  21.7797973
  20.8134452  56.2943426  21.8032810  20.2678371  54.8831316  21.7515540
  33.1022696  48.2156621  14.8580267  33.8783086  48.7053074  15.1304884
  32.3770830  48.6414675  15.3152137  35.5395254  48.9284240  15.9154208
  36.1339745  48.6879976  15.2047516  35.6121838  48.2091371  16.5427744
  17.7592410  62.7717851  16.2297373  17.6246878  62.0118252  15.6635371
  17.3424472  63.4958751  15.7626162  29.7249183  53.7064636  11.3576218
  29.6684385  54.1633187  10.5183851  30.2777526  52.9455321  11.1799061
  33.5353989  49.4954368  12.1826338  33.2790924  49.0951004  13.0134545
  32.9106857  50.2098162  12.0576477  37.8466327  52.2350441  14.6897629
  37.2865885  52.3043630  15.4629191  37.2409831  52.0591426  13.9697125
  20.9161536  63.6687168  16.4415815  20.7993920  64.6132601  16.3394506
  20.0953982  63.3660730  16.8301615  30.8038071  58.3937304   7.2872408
  31.6383674  57.9618502   7.1049883  30.6422413  58.2219318   8.2149303
  15.2476478  50.1337482  22.4790170  15.8935341  49.6236436  22.9677395
  15.0393629  50.8706163  23.0533595  27.7729870  57.2018329  27.9782310
  28.6421030  57.3758981  27.6168945  27.2936621  58.0212746  27.8558040
  21.9416050  64.3215430  19.6571744  22.8443297  64.3539040  19.9738239
  21.7153420  63.3915881  19.6718080  23.6969652  63.0746417  16.3181822
  22.7465283  63.0748278  16.2046195  24.0002138  62.3279151  15.8017857
  19.5873969  47.2805099  26.5765184  20.4505430  46.9241904  26.7868508
  19.0139379  46.9418994  27.2640588  39.4322346  68.9106955  17.3827585
  40.0700756  68.7913702  16.6790925  39.3143189  69.8587799  17.4415537
  36.2412052  68.8634383  17.3189110  35.9030563  68.7475448  16.4309644
  37.1101820  68.4625548  17.2990116  32.0998868  70.7169860  13.3086000
  31.5363733  70.6259797  12.5402288  31.9851263  69.8969764  13.7888493
  36.7231835  70.0169235  23.2775315  36.7120476  69.6222033  22.4055819
  36.8852474  69.2835308  23.8709087  29.6463300  72.2121051  16.1470221
  30.4384591  71.8711876  15.7316520  29.8859950  72.3216026  17.0672374
  37.6798426  74.3840827   8.6200465  37.0286406  74.9694908   8.2334479
  38.4742789  74.9147022   8.6795503  31.6054053  71.4729964   9.0187600
  32.3784929  70.9258952   8.8800476  31.9579452  72.3374214   9.2302061
  33.4439096  72.8006347  22.2254499  33.1528962  73.7051978  22.1101165
  34.0796080  72.8422874  22.9398569  34.3695303  70.1783195  18.8155859
  34.9658875  69.9539218  18.1012822  34.4270274  69.4367941  19.4181307
  33.9420331  67.6322631   6.6506050  34.1945852  67.1104152   5.8889513
  33.0044890  67.4688776   6.7532733  38.9863614  66.6358409  14.4580793
  39.7726703  66.2177832  14.1071210  39.2502318  67.5404501  14.6262441
  39.1573691  72.0731259   9.1569450  38.5219524  72.1465886   9.8690354
  38.8271098  72.6624858   8.4788529  44.3872041  66.5733642  15.3613771
  45.1197213  66.0032859  15.5951601  43.6311397  66.1855243  15.8020277
  33.6616620  69.5350737   8.8530425  33.5452878  68.8595640   9.5211509
  33.7718880  69.0483110   8.0362578  36.0048161  68.9960884  12.5577114
  35.6406368  68.4691505  13.2690035  36.8615277  68.6059353  12.3843599
  41.9097462  60.2855216  19.8208380  41.5780786  61.1550627  19.5969595
  41.3143075  59.9691500  20.5002410  35.6453648  64.0250783   7.5538462
  35.8128050  64.8931020   7.9208933  35.4550817  64.1878065   6.6299752
  38.4028981  72.4867762  19.2204293  38.1029704  73.3892801  19.1120100
  38.0580041  72.2199945  20.0725446  31.8541463  68.9381559  15.2540997
  30.9291959  68.8057773  15.4618689  32.1025876  69.7175778  15.7510940
  41.8026125  65.0050302  16.9001730  40.8943002  64.9365711  16.6060491
  41.7513721  65.4822247  17.7283556  35.6242869  66.4808441   8.5385129
  35.5042494  66.9265492   9.3770609  34.9295457  66.8293759   7.9798667
  29.2150274  68.5814833  16.0884786  29.3442655  68.8349312  17.0024198
  28.5347725  69.1742541  15.7689441  33.3849761  79.2512083  12.1875260
  33.3073791  80.2019908  12.2663741  32.7811405  78.9057955  12.8450187
  35.8766991  66.4239948  24.8436627  35.1000325  66.9833868  24.8339492
  36.5157554  66.9096731  25.3651497  43.6687771  63.2066741  18.6779604
  43.0262152  63.4999274  18.0319399  43.1642700  63.0919661  19.4832801
  41.3227935  66.9529914   9.3665463  42.2345791  67.1857301   9.1913161
  40.8137582  67.5366958   8.8040542  34.1313363  69.2325401  24.4054594
  34.8728047  69.7710445  24.1289418  33.4250348  69.8591690  24.5626146
  39.6068703  71.3754542  23.0026756  40.0152059  70.9336952  22.2581388
  38.8845964  70.8007169  23.2560949  35.9599773  66.3127149  20.3760313
  36.8060968  66.7366562  20.5194962  35.8998410  65.6560773  21.0698876
  39.9297517  71.9355732  16.7579045  39.3006380  72.1001447  16.0555113
  39.5423179  72.3497342  17.5290009  43.8086749  72.8710170  14.1123408
  43.1237787  73.2509072  13.5620442  43.8930599  73.4805497  14.8455356
  39.1099218  63.9731517  22.0341486  38.8660150  64.7273577  21.4975762
  39.3859149  64.3516865  22.8688733  41.0637681  70.5170129  20.7118752
  41.2754576  71.1601889  20.0353133  41.0167429  69.6832446  20.2440682
  38.6663910  63.1287950  17.6155324  37.8048389  63.4269204  17.9072062
  38.6926344  63.3458349  16.6836357  35.4825479  71.6730141  14.0229130
  35.9463825  71.9517844  13.2333752  35.2182277  70.7713585  13.8402220
  32.3749560  71.2201622  16.9608893  32.9450917  71.6488890  16.3226378
  32.9657672  70.9384207  17.6593079  34.4194365  67.7953293  10.8318695
  35.1218409  68.2474337  11.2992621  34.0874994  67.1537112  11.4598588
  32.8674727  66.3865050  25.2069904  32.2373387  67.0681330  25.4405301
  32.7610815  66.2748131  24.2623043  28.1619699  66.0536846  16.1335829
  27.3718753  66.3094374  15.6575939  28.6530947  66.8685183  16.2387869
  42.1783509  73.3942085  18.8841109  43.0000952  72.9922272  18.6023791
  42.1745912  73.2910319  19.8357225  30.1134445  66.4181425  13.0919305
  29.3165608  66.5300119  13.6102801  29.8860037  66.7568077  12.2260196
  35.9440112  72.9426128  21.0401820  36.0084545  73.4046535  21.8759992
  35.2351036  72.3123493  21.1684130  26.4457402  66.3067336  18.5650819
  26.6965441  67.1914346  18.8308395  26.9816951  66.1271938  17.7925911
  50.2689502  69.7380833  15.2326081  49.5153210  69.1688231  15.0770085
  50.4037043  69.7043498  16.1796715  35.6588130  74.6094236  10.9080800
  35.5233805  75.4545771  11.3365648  36.1997942  74.8113513  10.1446734
  32.1455469  60.6885815  27.5695155  31.7522415  60.1352014  28.2442800
  32.9621610  60.9996394  27.9601673  29.1117527  72.1269674  11.4808725
  29.6242048  72.9212924  11.6314290  29.7640240  71.4295964  11.4142327
  30.9212412  75.2435430  13.5631478  31.0979040  76.1653395  13.3752462
  31.7169245  74.9293849  13.9925858  35.0623430  62.1043694  25.1615412
  35.8033144  62.7050848  25.0819874  35.2941353  61.3621332  24.6033455
  30.2064768  67.2900062  23.4393642  30.0918284  66.3885319  23.7400741
  29.3509286  67.5363759  23.0878458  37.2856606  75.2317802  25.0381142
  36.8420460  74.4454181  24.7202047  37.9473820  75.4196953  24.3725033
  32.0443727  76.7613604  19.5641821  32.5951153  76.6330667  18.7918815
  31.2055203  77.0608493  19.2136714  39.3837844  75.5120602  23.0662544
  39.3656320  76.3329483  22.5742813  40.3057764  75.3874677  23.2912685
  35.8410898  73.0264731  23.9086052  36.3739235  72.2653020  23.6785360
  35.3124980  72.7338383  24.6510206  39.0080593  58.1324797  19.4379694
  38.6644863  59.0226439  19.3618804  39.3759556  57.9426455  18.5749279
  27.0766444  70.4558328  12.2568296  27.9141666  70.8655336  12.0402003
  27.2544712  69.5157770  12.2268490  38.9730876  68.1233409   7.9452129
  38.4577500  68.8938013   8.1840516  38.7008185  67.4498545   8.5685190
  36.5577987  62.9683109  13.0037367  35.7019584  62.5789960  12.8243006
  36.9704939  63.0475070  12.1437153  38.0877134  60.5029453  17.4028927
  37.5841929  60.4659588  16.5896732  38.3807741  61.4122195  17.4625584
  34.3320020  60.5868182  16.4095109  35.1973016  60.3910991  16.0500998
  34.3997529  60.3578534  17.3364465  43.9465150  70.8765763   9.8805302
  43.1694593  70.5376923   9.4360464  44.6256631  70.8818386   9.2060267
  38.7617179  65.9960501   9.7711910  38.4567315  66.3106650  10.6222053
  39.7147621  66.0741921   9.8139243  37.2063611  72.1550724  11.4204864
  36.6784973  71.4203484  11.1078101  36.7051114  72.9325400  11.1744832
  42.1856457  70.3499744  16.5371910  41.5280132  71.0399006  16.6252039
  42.9896856  70.7396176  16.8805897  31.9382339  62.8170390  13.7811475
  32.5126091  62.5945572  13.0484668  32.5253321  62.8859085  14.5340077
  40.9961916  68.7044117  14.5875852  41.5093798  69.3374109  15.0897562
  41.6463140  68.1045313  14.2219212  32.2651926  64.8474851   7.8007361
  31.4289238  65.1849538   8.1216635  32.1256696  64.7123831   6.8634498
  34.2405006  59.6911639  12.5086545  33.5869419  59.3760656  11.8843160
  34.1985481  59.0687380  13.2346368  35.3516211  69.9730934   4.4239837
  34.4443273  69.7420188   4.6230986  35.8487243  69.1768553   4.6113818
  38.2584290  78.6828441   7.3436523  37.5845989  78.9860138   7.9521481
  38.6450112  79.4857522   6.9941980  37.4742747  66.1793573  16.8334192
  36.5565308  66.4008520  16.6755881  37.8902890  66.2539883  15.9745900
  38.2577795  67.5784988  11.9636873  39.0049614  68.0906386  11.6543995
  38.5269384  67.2569041  12.8241266  36.5304445  70.0743529   8.9463827
  35.6215664  69.7902562   9.0436297  36.5599529  70.4942608   8.0867134
  41.7623712  73.6850119  12.7154995  41.3086039  72.8441028  12.7720185
  41.1317679  74.3211517  13.0529775  40.7056632  64.6142105  13.9455662
  39.9679389  64.1019491  14.2765905  40.9583405  64.1742486  13.1338939
  40.2056651  75.5226615  13.6504813  40.4979626  76.0831672  12.9317178
  40.7155272  75.8155176  14.4057972  40.8068259  57.3918357  14.5397431
  41.1127136  56.5315720  14.2523346  41.5320864  57.9835977  14.3396425
  27.0992615  67.7949043  12.9279029  26.9017015  67.2018404  12.2030096
  26.5439279  67.4901253  13.6454968  35.0789339  67.6872150  15.0473622
  35.1337949  66.7345986  14.9716099  34.2680541  67.8431589  15.5314921
  36.2280533  71.6152273   6.2851906  35.7899963  70.8988132   5.8257543
  36.9690973  71.8428388   5.7236997  33.0181699  66.3049209  12.8064001
  32.2049564  66.6043380  13.2129193  33.5140693  65.9104898  13.5238483
  35.1690277  76.3006966  14.7398266  35.1266455  76.5267813  13.8106798
  36.0852975  76.0670341  14.8884067  38.6155910  66.7691034  21.6378895
  38.9705298  66.9962507  22.4973361  39.2628042  67.1009411  21.0156150
  44.3453647  69.8909470  12.3428224  44.2071546  70.0811066  11.4149413
  43.9889866  70.6528853  12.7996275  32.5095774  63.8767565  18.4225236
  33.1495153  63.7356324  17.7248200  31.6773304  63.5902078  18.0463838
  44.3723027  71.9585997  17.3539496  44.8059534  71.8661286  18.2022550
  45.0854608  71.9343497  16.7159512  33.2856077  73.1769995  14.5360229
  34.0796676  72.6820316  14.3342804  32.5747770  72.6487858  14.1727934
  38.1050922  75.5588091  18.8872596  38.1587944  76.1279027  19.6550312
  37.2365703  75.7289976  18.5226633  29.5938841  67.3213077  10.6119981
  28.6636429  67.2597533  10.8289943  29.6896313  66.7989030   9.8156623
  29.5124390  63.8467890  13.1998223  29.7731207  64.7613223  13.0907383
  30.3341562  63.3792332  13.3494836  30.9849315  65.2605647  20.3697048
  31.6572369  65.0523009  19.7209696  30.1579102  65.0627733  19.9302280
  45.2338577  72.0009697  19.8872381  45.4274467  72.9055508  20.1331656
  45.1339195  71.5417117  20.7210966  36.8874887  61.8867588  22.3862708
  36.2402802  62.5857538  22.2927185  37.6575903  62.3203732  22.7538957
  40.2953685  72.1516440  25.4613262  40.1439192  71.9226992  24.5443345
  40.2858365  73.1087042  25.4744607  37.0639022  69.7248353  20.4459528
  37.9931082  69.8759513  20.2728495  36.6430052  69.8132374  19.5908175
  35.8627353  73.7499017  18.2158066  35.7238439  73.3817802  19.0884004
  35.0741950  74.2646657  18.0442024  36.4575505  78.8508114   9.5583602
  36.6327261  78.3796157  10.3729225  35.7708293  79.4773880   9.7864863
  37.4132569  73.1280620  15.6046904  37.0782401  73.0881390  16.5004553
  36.9136514  72.4625336  15.1317314  31.3876813  68.5348250  21.1299485
  31.2496610  67.8028489  21.7311024  32.2981736  68.4457150  20.8483672
  40.3491760  70.4736654   5.8783963  39.7320931  69.7483483   5.7817016
  39.8808249  71.2346015   5.5351037  34.0159113  68.2468209  20.6183164
  34.7258732  67.6061402  20.5769783  33.9728421  68.4981104  21.5409345
  42.0045892  75.1835563  23.5389744  41.9458438  74.4994783  22.8720327
  42.4065410  75.9254553  23.0870370  32.7288047  65.2333427  22.4378804
  32.1925404  64.7824166  23.0900400  32.1404756  65.3679336  21.6949268
  31.0236591  81.9997477  16.3323462  31.2633189  82.6316001  17.0102481
  30.1805787  81.6485517  16.6188822  32.1390306  64.6922079   5.0005267
  31.2619772  64.5710879   4.6367514  32.6148059  63.9008157   4.7484156
  42.0063299  73.1475147  21.7703723  41.1190078  72.8101068  21.8930122
  42.5761850  72.4158178  22.0072489  23.6592446  69.4799238  15.0946775
  24.3463486  69.1660968  14.5067790  23.5040575  70.3840603  14.8214026
  28.4627168  64.3689435  19.5231798  28.3785357  63.7615105  18.7882208
  27.6409875  64.8598453  19.5241295  35.5364453  77.8076599  18.7364966
  35.4634624  78.6131571  19.2484271  35.0941846  78.0068565  17.9112988
  35.3254232  77.0448369  12.2467788  34.5421754  77.5870049  12.3406012
  36.0246977  77.5622349  12.6462029  38.6350882  62.8542999  14.8901993
  39.1319582  62.1012961  14.5703064  37.8637864  62.8907315  14.3245203
  46.4880640  68.5583364  16.5320285  46.4770516  69.4408079  16.1614218
  45.6198019  68.2054915  16.3374822  37.9963136  77.7063433  20.8923125
  38.7091108  78.3410898  20.8199027  37.5053165  77.8027299  20.0763127
  39.7180663  71.6114686  12.4640417  38.7836942  71.7316148  12.2945121
  39.8957331  70.7087153  12.2000427  35.2185851  64.9960382  14.6173678
  34.8483639  64.4431422  15.3054584  35.7144943  64.3918515  14.0648678
  43.1053214  67.4532005  12.9990451  43.5713667  68.2859997  12.9250754
  43.5560715  66.9876987  13.7035709  33.0475050  75.4557877  21.7128696
  33.7484509  76.0894359  21.8658090  32.5770165  75.7972608  20.9524335
  41.1729445  73.7975826   9.9976603  41.4489289  73.6832421  10.9070477
  40.3033944  73.3993311   9.9588776  41.0769877  59.8212592  17.0381352
  40.1632957  60.0516819  17.2063559  41.5062979  59.9051036  17.8895385
  40.8476336  68.0102484  19.5381246  40.1947786  68.2578391  18.8833699
  41.2256715  67.1966622  19.2043724  37.8083509  78.0462177  13.6409417
  37.9905904  77.2283833  14.1037169  38.6316495  78.2629869  13.2034307
  38.1425675  76.9730362  10.9024465  38.6713441  76.4622817  10.2894627
  38.4053895  76.6572892  11.7669998  36.8963909  68.7522295  26.0247283
  36.2204546  68.6516424  26.6949659  37.7191542  68.5961509  26.4883281
  28.6442768  74.9894232  18.6459799  29.2296204  74.2437919  18.7787703
  28.4467606  75.2998188  19.5296462  31.4981423  78.0245479  13.6622241
  30.8291798  78.5091607  13.1786281  31.3594293  78.2714699  14.5765620
  23.2360422  67.5599832  17.3664242  23.2744522  67.0263422  18.1601360
  22.7300715  67.0335037  16.7475219  35.6386691  80.0589222  20.2604899
  36.1904999  80.2220844  21.0253985  35.9792885  80.6493660  19.5884924
  30.6151185  62.4064372  20.8626784  30.6792511  63.2679203  20.4504182
  30.5518305  61.7938374  20.1299143  30.0903457  64.4787505  24.5099818
  30.7175496  64.0964582  25.1237343  29.2331376  64.2601707  24.8755511
  40.4897566  74.8850480  26.1153554  41.0337470  75.4980438  25.6208509
  39.9084411  75.4430058  26.6320567  26.8669000  66.2863934  10.4418173
  27.1622441  65.3774612  10.3885227  25.9657036  66.2651673  10.1199175
  38.7755079  78.0071198  17.2468582  38.6506218  77.2060938  16.7379527
  39.4334170  78.5017391  16.7582551  30.3963247  64.3619931  16.4245722
  29.6749833  64.9755898  16.2853195  31.1856503  64.8977695  16.3462368
  40.8389987  75.8080218  18.8748132  39.8920323  75.6885569  18.8026458
  41.1872760  74.9202716  18.9574393  33.1989560  61.6974357  22.6986373
  33.7223962  61.9436654  23.4612683  32.9801894  62.5294392  22.2789511
  28.5956842  63.9678032  10.5657498  28.2669548  63.0875411  10.3832604
  28.9496212  63.9125700  11.4533888  37.8436420  75.6032934  15.0752484
  37.6961383  74.6749642  15.2560054  38.6689914  75.6253025  14.5909559
  31.7098665  64.2551001  10.9332976  32.0494737  64.7836923  10.2111584
  32.1570785  64.5931408  11.7091543  41.4470542  76.4261493  16.1617357
  42.3717090  76.2204354  16.0241808  41.2785846  76.1777894  17.0706698
  34.4042106  62.6388052  20.3836044  34.0638926  61.8395865  20.7856724
  33.6981112  62.9389763  19.8112877  35.0558577  59.7237365  18.8363367
  35.8784647  59.2497843  18.7142257  35.2996641  60.5027848  19.3362053
  33.6966812  62.7525623   9.1326269  34.4175174  63.1306876   8.6289986
  33.0732116  63.4714500   9.2361247  37.8397935  63.4570772  10.0684601
  38.0561549  64.3395410   9.7673429  37.3592002  63.0656985   9.3390243
  32.5797156  66.4156485  16.6455346  32.4341737  66.7296788  17.5379627
  32.1022360  67.0341386  16.0926244  34.4393539  63.4059033  16.6936235
  34.4255108  62.5100126  16.3568533  35.1565967  63.4129697  17.3274521
  36.2919670  63.8396373  18.7389363  36.0337448  64.7613444  18.7373693
  35.7604710  63.4426808  19.4289827  41.2365858  76.9447160  11.5179448
  41.4102736  76.3793583  10.7653300  41.7294750  77.7448055  11.3358938
  27.0542818  68.9561830  19.5843007  26.5096286  69.7321638  19.7163281
  27.9322168  69.3032634  19.4262128  33.8430435  62.2873413  11.9623805
  33.9646346  61.3590060  12.1614693  33.5532477  62.3012099  11.0502121
  36.7121625  59.9728324  15.0990525  36.7343322  60.0367657  14.1442505
  37.1289684  59.1332833  15.2931031  47.0905250  69.7083583  13.1369748
  47.5336396  68.9590909  12.7388871  46.2131760  69.6993720  12.7543480
  42.2241031  76.2613925   8.6176346  42.9191936  76.8820618   8.8363661
  42.5664181  75.4109276   8.8928724  27.8408840  68.0831726  22.4773164
  27.0990576  68.2314361  23.0637794  27.5201584  68.3439991  21.6139913
  44.1232454  73.7113630  10.1463677  44.6483778  74.0500903   9.4212997
  44.0354807  72.7760646   9.9626812  35.7852503  77.6247704  22.2753554
  36.0939629  77.3796851  23.1476253  36.5827985  77.8294343  21.7872424
  35.8073115  79.7785614  14.5058930  35.3678105  79.2861992  15.1991787
  36.5581232  79.2358581  14.2651005  28.2865454  75.9697155  14.5083558
  29.1123474  75.6700926  14.1282202  27.9359506  75.2004777  14.9573347
  33.2546987  75.3223623  16.5781232  32.6326996  74.6594328  16.2783460
  33.9251854  75.3484755  15.8954880  26.4874059  73.8883481  15.4672492
  25.6505967  73.4605655  15.2856493  26.4597704  74.0815924  16.4043283
  33.3271514  63.8005411  26.1713738  33.3759670  64.6767534  25.7891508
  33.8694029  63.2582804  25.5985381  43.8126360  74.3446534  25.4514875
  43.0221904  74.3270673  24.9119374  43.5759715  74.8834828  26.2063912
  43.9324235  71.1939000  22.7647604  43.9822240  71.0289008  23.7063126
  43.8238159  70.3266259  22.3745484  32.8160494  73.8727546  10.0539692
  32.9648614  74.5563011   9.4006365  33.6226937  73.8532636  10.5689148
  41.2227998  67.1769928  24.0806910  42.1237860  67.0376393  23.7890908
  41.2975972  67.3424383  25.0205088  35.5570803  64.5536783  22.9260097
  34.6874112  64.8470349  22.6542685  35.7930283  65.1377228  23.6467360
  45.4342432  73.6135942  23.0089625  45.1427240  73.9765923  23.8453086
  44.8214563  72.9002950  22.8302957  46.6338114  71.1788822  15.5292195
  47.4685006  71.6178626  15.6929756  46.7697243  70.7027475  14.7100441
  43.6829620  68.7368557  21.4769683  44.1583742  68.9296203  20.6688534
  42.7595186  68.7927742  21.2313067  30.5713127  69.8992724  11.0600761
  30.3259169  68.9955054  11.2580972  30.7409041  69.9009874  10.1180239
  38.2609837  60.7716400  20.4425517  38.7791781  61.5077427  20.1172006
  37.9064970  61.0780393  21.2772276  29.8408774  65.6321081   8.5586923
  29.1478019  65.7065436   7.9026959  29.5960526  64.8681425   9.0808440
  38.5122431  57.1916683  15.9626414  38.7924185  56.5239872  16.5886840
  39.2973038  57.3845778  15.4501077  36.3155899  76.3675677   7.5251440
  35.7429866  76.9865864   7.0721912  36.8888693  76.9175038   8.0591362
  42.3831289  65.6134317  19.7097989  43.3348712  65.7132414  19.7310213
  42.2134740  64.8212585  20.2196073  40.4045669  62.6989900  19.8957390
  39.8095601  62.9794913  19.2003878  40.1195365  63.1883801  20.6674131
  39.5353159  76.6512827   8.6560022  40.4683832  76.5858388   8.8592898
  39.4476372  77.4869094   8.1974555  42.1641176  75.9678697   5.6163970
  42.0854807  75.6338561   6.5099728  42.9850843  76.4600465   5.6155442
  44.8619367  68.8340436  18.8240288  44.8295687  67.8956437  19.0099972
  45.4719991  68.9124473  18.0906113  36.7002698  67.7036489   4.8667492
  37.6461803  67.5742697   4.9355910  36.3216943  66.9651151   5.3436921
  45.0113856  65.6251480  18.8698572  44.4952904  64.8409936  18.6828500
  45.8953804  65.2970196  19.0345091  42.6724582  59.3692495  14.8294384
  42.4749404  59.0607584  15.7137716  43.2824288  60.0954134  14.9592314
  50.6795917  69.8956443  17.9646325  51.4099305  69.6341731  18.5254028
  50.0702862  69.1585165  18.0048393  48.7611214  68.0364306  18.5620776
  48.0344378  67.9020271  17.9537268  48.3458501  68.3441134  19.3677494
  36.5841390  71.7554235  26.3268149  37.5044400  71.9332834  26.5208196
  36.5490973  70.8110281  26.1747849  34.8845615  65.6286466   4.8022378
  33.9777070  65.3319578   4.8785091  35.1621596  65.3316284   3.9356664
  25.8023555  66.9492829  15.2521424  25.4826340  66.0958137  14.9595798
  25.2556984  67.1641407  16.0079391  29.5803463  69.6655270  18.9690931
  29.7989473  70.5972378  18.9878964  29.9929237  69.3063245  19.7545734
  36.5007681  60.1723355  10.9566619  35.6908409  59.8270440  11.3321865
  37.1892098  59.8630899  11.5454230  38.4298229  59.2501402  12.5790916
  38.9829268  59.6696856  13.2380939  38.6668315  58.3237150  12.6213872
  34.4531328  65.2388476  28.3593679  34.3528055  66.1882833  28.2905771
  34.2352870  64.9106715  27.4869750  33.6544400  62.4873401   4.9434357
  34.5163564  62.8128299   5.2030174  33.8394744  61.7004897   4.4307423
  25.6711815  70.5695741  17.2214546  24.9775287  70.1549693  16.7084500
  26.4184806  70.6116277  16.6247964  41.8077036  61.3601927  12.0869580
  41.2275705  62.0186731  11.7047632  41.5412969  60.5379272  11.6756997
  40.2580603  60.7606985  14.2890900  40.7580381  60.8723520  13.4805219
  40.9016210  60.4568038  14.9291709  34.3162598  68.6685615  27.1758741
  33.8329680  69.4685975  27.3822630  34.4023537  68.6793560  26.2226185
  27.5848558  70.5013994  15.0980560  27.5619246  70.6001682  14.1462444
  27.8949194  71.3479145  15.4197727  30.2435936  72.5590149  19.2127175
  31.1979189  72.5274092  19.1457106  30.0448459  72.0980773  20.0277401
  30.8335318  71.1291265  21.7797973  31.6528207  71.6235344  21.8032810
  31.1072126  70.2123234  21.7515540  40.5901914  63.5202018  11.1425928
  39.7027769  63.8051668  10.9246123  41.0055903  63.3595781  10.2953205
  43.9416450  63.5448539  14.8580267  44.7176840  64.0344991  15.1304884
  43.2164584  63.9706593  15.3152137  46.3789009  64.2576158  15.9154208
  46.9733500  64.0171894  15.2047516  46.4515593  63.5383289  16.5427744
  28.5986165  78.1009769  16.2297373  28.4640633  77.3410170  15.6635371
  28.1818227  78.8250669  15.7626162  39.7345128  73.2846692   5.2373948
  40.4380978  73.4896695   5.8531604  39.0107776  73.8523454   5.5023032
  40.5642938  69.0356554  11.3576218  40.5078139  69.4925105  10.5183851
  41.1171280  68.2747238  11.1799061  44.3747744  64.8246286  12.1826338
  44.1184678  64.4242921  13.0134545  43.7500612  65.5390080  12.0576477
  48.6860082  67.5642359  14.6897629  48.1259640  67.6335548  15.4629191
  48.0803585  67.3883343  13.9697125  31.7555290  78.9979086  16.4415815
  31.6387675  79.9424518  16.3394506  30.9347737  78.6952647  16.8301615
  41.6431825  73.7229222   7.2872408  42.4777429  73.2910420   7.1049883
  41.4816168  73.5511235   8.2149303  41.2977717  70.2261335   8.6528747
  41.2426521  70.0605606   7.7117192  40.6723772  70.9337368   8.8090937
  26.0870232  65.4629399  22.4790170  26.7329096  64.9528353  22.9677395
  25.8787383  66.1998081  23.0533595  38.6123624  72.5310247  27.9782310
  39.4814784  72.7050899  27.6168945  38.1330376  73.3504664  27.8558040
  34.6073843  59.7269444   8.2314066  34.5952513  60.6711284   8.3882337
  35.4997265  59.5439589   7.9373527  32.7809805  79.6507348  19.6571744
  33.6837051  79.6830958  19.9738239  32.5547175  78.7207799  19.6718080
  34.5363407  78.4038334  16.3181822  33.5859038  78.4040196  16.2046195
  34.8395893  77.6571069  15.8017857  38.4225962  56.3212221  12.4860003
  37.6558358  55.7670707  12.6316685  38.8336667  56.3934089  13.3474154
  30.4267723  62.6097016  26.5765184  31.2899185  62.2533821  26.7868508
  29.8533134  62.2710911  27.2640588  50.2716100  84.2398873  17.3827585
  50.9094510  84.1205620  16.6790925  50.1536943  85.1879717  17.4415537
  47.0805806  84.1926301  17.3189110  46.7424318  84.0767366  16.4309644
  47.9495575  83.7917466  17.2990116  42.9392622  86.0461777  13.3086000
  42.3757487  85.9551714  12.5402288  42.8245017  85.2261682  13.7888493
  47.5625589  85.3461153  23.2775315  47.5514230  84.9513951  22.4055819
  47.7246229  84.6127225  23.8709087  40.4857054  87.5412969  16.1470221
  41.2778346  87.2003794  15.7316520  40.7253704  87.6507944  17.0672374
  48.5192181  89.7132745   8.6200465  47.8680161  90.2986825   8.2334479
  49.3136544  90.2438940   8.6795503  42.4447808  86.8021882   9.0187600
  43.2178684  86.2550869   8.8800476  42.7973207  87.6666131   9.2302061
  44.2832851  88.1298264  22.2254499  43.9922717  89.0343895  22.1101165
  44.9189835  88.1714792  22.9398569  45.2089057  85.5075113  18.8155859
  45.8052630  85.2831135  18.1012822  45.2664029  84.7659858  19.4181307
  44.7814086  82.9614548   6.6506050  45.0339606  82.4396070   5.8889513
  43.8438645  82.7980694   6.7532733  49.8257369  81.9650327  14.4580793
  50.6120458  81.5469750  14.1071210  50.0896073  82.8696419  14.6262441
  49.9967446  87.4023177   9.1569450  49.3613279  87.4757803   9.8690354
  49.6664852  87.9916776   8.4788529  55.2265796  81.9025560  15.3613771
  55.9590968  81.3324777  15.5951601  54.4705151  81.5147160  15.8020277
  44.5010375  84.8642654   8.8530425  44.3846633  84.1887558   9.5211509
  44.6112634  84.3775028   8.0362578  46.8441915  84.3252801  12.5577114
  46.4800123  83.7983422  13.2690035  47.7009031  83.9351270  12.3843599
  52.7491216  75.6147134  19.8208380  52.4174541  76.4842545  19.5969595
  52.1536829  75.2983418  20.5002410  46.4847402  79.3542701   7.5538462
  46.6521805  80.2222937   7.9208933  46.2944572  79.5169983   6.6299752
  49.2422736  87.8159680  19.2204293  48.9423459  88.7184719  19.1120100
  48.8973795  87.5491863  20.0725446  42.6935217  84.2673477  15.2540997
  41.7685714  84.1349691  15.4618689  42.9419630  85.0467696  15.7510940
  52.6419879  80.3342220  16.9001730  51.7336757  80.2657629  16.6060491
  52.5907475  80.8114165  17.7283556  46.4636623  81.8100359   8.5385129
  46.3436249  82.2557409   9.3770609  45.7689212  82.1585676   7.9798667
  40.0544028  83.9106750  16.0884786  40.1836409  84.1641229  17.0024198
  39.3741479  84.5034458  15.7689441  44.2243515  94.5804000  12.1875260
  44.1467545  95.5311825  12.2663741  43.6205159  94.2349873  12.8450187
  46.7160745  81.7531866  24.8436627  45.9394079  82.3125786  24.8339492
  47.3551308  82.2388649  25.3651497  54.5081526  78.5358658  18.6779604
  53.8655906  78.8291192  18.0319399  54.0036454  78.4211579  19.4832801
  52.1621689  82.2821832   9.3665463  53.0739546  82.5149218   9.1913161
  51.6531337  82.8658876   8.8040542  44.9707118  84.5617319  24.4054594
  45.7121802  85.1002363  24.1289418  44.2644103  85.1883608  24.5626146
  50.4462457  86.7046460  23.0026756  50.8545813  86.2628870  22.2581388
  49.7239719  86.1299087  23.2560949  46.7993527  81.6419066  20.3760313
  47.6454722  82.0658480  20.5194962  46.7392165  80.9852691  21.0698876
  50.7691272  87.2647650  16.7579045  50.1400134  87.4293364  16.0555113
  50.3816934  87.6789260  17.5290009  54.6480504  88.2002088  14.1123408
  53.9631542  88.5800989  13.5620442  54.7324353  88.8097415  14.8455356
  49.9492973  79.3023435  22.0341486  49.7053904  80.0565495  21.4975762
  50.2252903  79.6808782  22.8688733  51.9031435  85.8462047  20.7118752
  52.1148331  86.4893807  20.0353133  51.8561184  85.0124364  20.2440682
  49.5057664  78.4579868  17.6155324  48.6442143  78.7561121  17.9072062
  49.5320099  78.6750267  16.6836357  46.3219234  87.0022058  14.0229130
  46.7857579  87.2809761  13.2333752  46.0576032  86.1005503  13.8402220
  43.2143315  86.5493540  16.9608893  43.7844672  86.9780808  16.3226378
  43.8051427  86.2676124  17.6593079  45.2588120  83.1245211  10.8318695
  45.9612163  83.5766254  11.2992621  44.9268748  82.4829029  11.4598588
  43.7068481  81.7156967  25.2069904  43.0767142  82.3973248  25.4405301
  43.6004569  81.6040049  24.2623043  39.0013454  81.3828763  16.1335829
  38.2112508  81.6386292  15.6575939  39.4924701  82.1977101  16.2387869
  53.0177263  88.7234002  18.8841109  53.8394707  88.3214190  18.6023791
  53.0139666  88.6202237  19.8357225  40.9528199  81.7473343  13.0919305
  40.1559362  81.8592037  13.6102801  40.7253791  82.0859995  12.2260196
  46.7833867  88.2718046  21.0401820  46.8478299  88.7338453  21.8759992
  46.0744791  87.6415411  21.1684130  37.2851157  81.6359254  18.5650819
  37.5359195  82.5206264  18.8308395  37.8210705  81.4563855  17.7925911
  61.1083256  85.0672751  15.2326081  60.3546965  84.4980149  15.0770085
  61.2430798  85.0335415  16.1796715  46.4981884  89.9386153  10.9080800
  46.3627559  90.7837689  11.3365648  47.0391697  90.1405431  10.1446734
  42.9849224  76.0177733  27.5695155  42.5916170  75.4643932  28.2442800
  43.8015364  76.3288312  27.9601673  39.9511282  87.4561591  11.4808725
  40.4635802  88.2504842  11.6314290  40.6033995  86.7587882  11.4142327
  41.7606166  90.5727348  13.5631478  41.9372795  91.4945312  13.3752462
  42.5563000  90.2585767  13.9925858  45.9017185  77.4335612  25.1615412
  46.6426898  78.0342765  25.0819874  46.1335108  76.6913250  24.6033455
  41.0458523  82.6191979  23.4393642  40.9312038  81.7177237  23.7400741
  40.1903041  82.8655676  23.0878458  48.1250361  90.5609720  25.0381142
  47.6814215  89.7746098  24.7202047  48.7867574  90.7488870  24.3725033
  42.8837482  92.0905521  19.5641821  43.4344907  91.9622585  18.7918815
  42.0448958  92.3900410  19.2136714  50.2231599  90.8412520  23.0662544
  50.2050074  91.6621401  22.5742813  51.1451519  90.7166595  23.2912685
  46.6804653  88.3556649  23.9086052  47.2132990  87.5944937  23.6785360
  46.1518734  88.0630301  24.6510206  49.8474348  73.4616715  19.4379694
  49.5038617  74.3518357  19.3618804  50.2153311  73.2718373  18.5749279
  37.9160199  85.7850246  12.2568296  38.7535421  86.1947254  12.0402003
  38.0938466  84.8449688  12.2268490  49.8124631  83.4525326   7.9452129
  49.2971254  84.2229931   8.1840516  49.5401939  82.7790462   8.5685190
  47.3971742  78.2975027  13.0037367  46.5413338  77.9081877  12.8243006
  47.8098693  78.3766988  12.1437153  48.9270888  75.8321370  17.4028927
  48.4235684  75.7951505  16.5896732  49.2201495  76.7414113  17.4625584
  45.1713774  75.9160100  16.4095109  46.0366771  75.7202909  16.0500998
  45.2391283  75.6870452  17.3364465  54.7858905  86.2057681   9.8805302
  54.0088348  85.8668840   9.4360464  55.4650386  86.2110304   9.2060267
  49.6010934  81.3252418   9.7711910  49.2961069  81.6398567  10.6222053
  50.5541376  81.4033838   9.8139243  48.0457366  87.4842642  11.4204864
  47.5178727  86.7495401  11.1078101  47.5444868  88.2617318  11.1744832
  53.0250212  85.6791662  16.5371910  52.3673886  86.3690923  16.6252039
  53.8290611  86.0688094  16.8805897  42.7776093  78.1462308  13.7811475
  43.3519845  77.9237489  13.0484668  43.3647076  78.2151002  14.5340077
  51.8355670  84.0336035  14.5875852  52.3487552  84.6666027  15.0897562
  52.4856894  83.4337230  14.2219212  43.1045680  80.1766769   7.8007361
  42.2682993  80.5141455   8.1216635  42.9650450  80.0415749   6.8634498
  45.0798761  75.0203557  12.5086545  44.4263173  74.7052574  11.8843160
  45.0379235  74.3979297  13.2346368  46.1909966  85.3022852   4.4239837
  45.2837028  85.0712105   4.6230986  46.6880998  84.5060471   4.6113818
  49.0978045  94.0120359   7.3436523  48.4239743  94.3152056   7.9521481
  49.4843867  94.8149439   6.9941980  48.3136501  81.5085490  16.8334192
  47.3959063  81.7300437  16.6755881  48.7296645  81.5831801  15.9745900
  49.0971549  82.9076906  11.9636873  49.8443368  83.4198303  11.6543995
  49.3663139  82.5860959  12.8241266  47.3698199  85.4035447   8.9463827
  46.4609419  85.1194480   9.0436297  47.3993283  85.8234525   8.0867134
  52.6017467  89.0142036  12.7154995  52.1479794  88.1732946  12.7720185
  51.9711433  89.6503435  13.0529775  51.5450386  79.9434022  13.9455662
  50.8073143  79.4311408  14.2765905  51.7977160  79.5034404  13.1338939
  51.0450406  90.8518533  13.6504813  51.3373380  91.4123590  12.9317178
  51.5549026  91.1447094  14.4057972  51.6462014  72.7210274  14.5397431
  51.9520890  71.8607638  14.2523346  52.3714618  73.3127894  14.3396425
  37.9386370  83.1240961  12.9279029  37.7410769  82.5310322  12.2030096
  37.3833034  82.8193171  13.6454968  45.9183093  83.0164067  15.0473622
  45.9731703  82.0637904  14.9716099  45.1074295  83.1723506  15.5314921
  47.0674287  86.9444190   6.2851906  46.6293717  86.2280049   5.8257543
  47.8084728  87.1720305   5.7236997  43.8575453  81.6341127  12.8064001
  43.0443319  81.9335298  13.2129193  44.3534447  81.2396816  13.5238483
  46.0084031  91.6298884  14.7398266  45.9660210  91.8559730  13.8106798
  46.9246730  91.3962259  14.8884067  49.4549665  82.0982952  21.6378895
  49.8099053  82.3254425  22.4973361  50.1021796  82.4301328  21.0156150
  55.1847402  85.2201387  12.3428224  55.0465300  85.4102983  11.4149413
  54.8283621  85.9820770  12.7996275  43.3489528  79.2059483  18.4225236
  43.9888907  79.0648242  17.7248200  42.5167059  78.9193996  18.0463838
  55.2116781  87.2877914  17.3539496  55.6453288  87.1953204  18.2022550
  55.9248362  87.2635415  16.7159512  44.1249832  88.5061913  14.5360229
  44.9190430  88.0112233  14.3342804  43.4141524  87.9779776  14.1727934
  48.9444676  90.8880009  18.8872596  48.9981699  91.4570945  19.6550312
  48.0759458  91.0581894  18.5226633  40.4332595  82.6504995  10.6119981
  39.5030183  82.5889450  10.8289943  40.5290067  82.1280948   9.8156623
  40.3518144  79.1759808  13.1998223  40.6124962  80.0905141  13.0907383
  41.1735317  78.7084250  13.3494836  41.8243070  80.5897565  20.3697048
  42.4966123  80.3814927  19.7209696  40.9972856  80.3919651  19.9302280
  56.0732331  87.3301615  19.8872381  56.2668221  88.2347426  20.1331656
  55.9732949  86.8709034  20.7210966  47.7268642  77.2159506  22.3862708
  47.0796557  77.9149455  22.2927185  48.4969657  77.6495650  22.7538957
  51.1347440  87.4808358  25.4613262  50.9832946  87.2518910  24.5443345
  51.1252119  88.4378959  25.4744607  47.9032776  85.0540271  20.4459528
  48.8324836  85.2051430  20.2728495  47.4823806  85.1424291  19.5908175
  46.7021108  89.0790935  18.2158066  46.5632194  88.7109719  19.0884004
  45.9135704  89.5938574  18.0442024  47.2969260  94.1800031   9.5583602
  47.4721016  93.7088075  10.3729225  46.6102048  94.8065798   9.7864863
  48.2526323  88.4572538  15.6046904  47.9176156  88.4173308  16.5004553
  47.7530269  87.7917254  15.1317314  42.2270567  83.8640168  21.1299485
  42.0890365  83.1320407  21.7311024  43.1375490  83.7749068  20.8483672
  51.1885515  85.8028572   5.8783963  50.5714685  85.0775400   5.7817016
  50.7202003  86.5637932   5.5351037  44.8552868  83.5760127  20.6183164
  45.5652486  82.9353319  20.5769783  44.8122176  83.8273022  21.5409345
  52.8439646  90.5127480  23.5389744  52.7852193  89.8286701  22.8720327
  53.2459165  91.2546470  23.0870370  43.5681802  80.5625345  22.4378804
  43.0319159  80.1116083  23.0900400  42.9798510  80.6971254  21.6949268
  41.8630345  97.3289394  16.3323462  42.1026943  97.9607918  17.0102481
  41.0199542  96.9777434  16.6188822  42.9784061  80.0213996   5.0005267
  42.1013527  79.9002797   4.6367514  43.4541814  79.2300075   4.7484156
  52.8457054  88.4767064  21.7703723  51.9583832  88.1392986  21.8930122
  53.4155605  87.7450096  22.0072489  34.4986201  84.8091156  15.0946775
  35.1857241  84.4952886  14.5067790  34.3434329  85.7132521  14.8214026
  39.3020923  79.6981353  19.5231798  39.2179112  79.0907022  18.7882208
  38.4803629  80.1890371  19.5241295  46.3758207  93.1368517  18.7364966
  46.3028378  93.9423488  19.2484271  45.9335600  93.3360483  17.9112988
  46.1647987  92.3740287  12.2467788  45.3815509  92.9161967  12.3406012
  46.8640732  92.8914266  12.6462029  49.4744637  78.1834916  14.8901993
  49.9713336  77.4304879  14.5703064  48.7031618  78.2199233  14.3245203
  57.3274394  83.8875282  16.5320285  57.3164270  84.7699997  16.1614218
  56.4591774  83.5346833  16.3374822  48.8356891  93.0355351  20.8923125
  49.5484863  93.6702816  20.8199027  48.3446919  93.1319217  20.0763127
  50.5574417  86.9406603  12.4640417  49.6230696  87.0608066  12.2945121
  50.7351086  86.0379070  12.2000427  46.0579605  80.3252299  14.6173678
  45.6877393  79.7723340  15.3054584  46.5538698  79.7210433  14.0648678
  53.9446969  82.7823923  12.9990451  54.4107421  83.6151914  12.9250754
  54.3954469  82.3168904  13.7035709  43.8868804  90.7849794  21.7128696
  44.5878264  91.4186277  21.8658090  43.4163919  91.1264526  20.9524335
  52.0123200  89.1267744   9.9976603  52.2883044  89.0124339  10.9070477
  51.1427699  88.7285229   9.9588776  51.9163632  75.1504510  17.0381352
  51.0026711  75.3808737  17.2063559  52.3456733  75.2342954  17.8895385
  51.6870090  83.3394402  19.5381246  51.0341540  83.5870309  18.8833699
  52.0650470  82.5258540  19.2043724  48.6477264  93.3754095  13.6409417
  48.8299658  92.5575751  14.1037169  49.4710250  93.5921787  13.2034307
  48.9819429  92.3022280  10.9024465  49.5107196  91.7914735  10.2894627
  49.2447649  91.9864810  11.7669998  47.7357663  84.0814213  26.0247283
  47.0598300  83.9808342  26.6949659  48.5585297  83.9253426  26.4883281
  39.4836522  90.3186149  18.6459799  40.0689959  89.5729837  18.7787703
  39.2861361  90.6290106  19.5296462  42.3375177  93.3537397  13.6622241
  41.6685553  93.8383524  13.1786281  42.1988047  93.6006617  14.5765620
  34.0754177  82.8891749  17.3664242  34.1138276  82.3555340  18.1601360
  33.5694470  82.3626955  16.7475219  46.4780446  95.3881140  20.2604899
  47.0298754  95.5512762  21.0253985  46.8186639  95.9785578  19.5884924
  41.4544939  77.7356290  20.8626784  41.5186266  78.5971121  20.4504182
  41.3912059  77.1230292  20.1299143  40.9297212  79.8079423  24.5099818
  41.5569251  79.4256500  25.1237343  40.0725131  79.5893624  24.8755511
  51.3291320  90.2142398  26.1153554  51.8731224  90.8272356  25.6208509
  50.7478165  90.7721976  26.6320567  37.7062754  81.6155852  10.4418173
  38.0016196  80.7066530  10.3885227  36.8050790  81.5943591  10.1199175
  49.6148833  93.3363116  17.2468582  49.4899973  92.5352856  16.7379527
  50.2727924  93.8309309  16.7582551  41.2357001  79.6911848  16.4245722
  40.5143587  80.3047816  16.2853195  42.0250257  80.2269613  16.3462368
  51.6783742  91.1372136  18.8748132  50.7314077  91.0177487  18.8026458
  52.0266515  90.2494634  18.9574393  44.0383315  77.0266275  22.6986373
  44.5617717  77.2728571  23.4612683  43.8195648  77.8586309  22.2789511
  39.4350596  79.2969949  10.5657498  39.1063302  78.4167328  10.3832604
  39.7889967  79.2417618  11.4533888  48.6830175  90.9324852  15.0752484
  48.5355137  90.0041559  15.2560054  49.5083668  90.9544943  14.5909559
  42.5492419  79.5842919  10.9332976  42.8888492  80.1128840  10.2111584
  42.9964540  79.9223325  11.7091543  52.2864297  91.7553411  16.1617357
  53.2110844  91.5496272  16.0241808  52.1179600  91.5069812  17.0706698
  45.2435860  77.9679970  20.3836044  44.9032680  77.1687783  20.7856724
  44.5374866  78.2681681  19.8112877  45.8952332  75.0529282  18.8363367
  46.7178401  74.5789760  18.7142257  46.1390395  75.8319766  19.3362053
  44.5360566  78.0817541   9.1326269  45.2568929  78.4598793   8.6289986
  43.9125870  78.8006417   9.2361247  48.6791689  78.7862690  10.0684601
  48.8955304  79.6687328   9.7673429  48.1985756  78.3948903   9.3390243
  43.4190911  81.7448403  16.6455346  43.2735491  82.0588706  17.5379627
  42.9416114  82.3633303  16.0926244  45.2787293  78.7350951  16.6936235
  45.2648862  77.8392044  16.3568533  45.9959722  78.7421615  17.3274521
  47.1313424  79.1688291  18.7389363  46.8731202  80.0905362  18.7373693
  46.5998465  78.7718726  19.4289827  52.0759613  92.2739078  11.5179448
  52.2496490  91.7085501  10.7653300  52.5688504  93.0739973  11.3358938
  37.8936573  84.2853747  19.5843007  37.3490041  85.0613555  19.7163281
  38.7715923  84.6324552  19.4262128  44.6824189  77.6165331  11.9623805
  44.8040101  76.6881977  12.1614693  44.3926232  77.6304017  11.0502121
  47.5515380  75.3020242  15.0990525  47.5737077  75.3659575  14.1442505
  47.9683439  74.4624750  15.2931031  57.9299004  85.0375501  13.1369748
  58.3730150  84.2882826  12.7388871  57.0525514  85.0285637  12.7543480
  53.0634785  91.5905843   8.6176346  53.7585690  92.2112535   8.8363661
  53.4057936  90.7401194   8.8928724  38.6802595  83.4123644  22.4773164
  37.9384331  83.5606279  23.0637794  38.3595339  83.6731909  21.6139913
  54.9626209  89.0405548  10.1463677  55.4877533  89.3792821   9.4212997
  54.8748561  88.1052563   9.9626812  46.6246257  92.9539622  22.2753554
  46.9333384  92.7088769  23.1476253  47.4221739  93.1586260  21.7872424
  46.6466869  95.1077531  14.5058930  46.2071860  94.6153910  15.1991787
  47.3974986  94.5650499  14.2651005  39.1259208  91.2989072  14.5083558
  39.9517228  90.9992844  14.1282202  38.7753260  90.5296695  14.9573347
  44.0940741  90.6515540  16.5781232  43.4720751  89.9886245  16.2783460
  44.7645608  90.6776672  15.8954880  37.3267813  89.2175399  15.4672492
  36.4899722  88.7897573  15.2856493  37.2991459  89.4107842  16.4043283
  44.1665269  79.1297328  26.1713738  44.2153424  80.0059451  25.7891508
  44.7087783  78.5874722  25.5985381  54.6520115  89.6738452  25.4514875
  53.8615658  89.6562591  24.9119374  54.4153469  90.2126745  26.2063912
  54.7717990  86.5230918  22.7647604  54.8215995  86.3580926  23.7063126
  54.6631913  85.6558177  22.3745484  43.6554248  89.2019464  10.0539692
  43.8042369  89.8854928   9.4006365  44.4620692  89.1824554  10.5689148
  52.0621752  82.5061846  24.0806910  52.9631615  82.3668311  23.7890908
  52.1369727  82.6716301  25.0205088  46.3964557  79.8828701  22.9260097
  45.5267867  80.1762267  22.6542685  46.6324038  80.4669146  23.6467360
  56.2736187  88.9427860  23.0089625  55.9820995  89.3057840  23.8453086
  55.6608318  88.2294868  22.8302957  57.4731869  86.5080739  15.5292195
  58.3078760  86.9470543  15.6929756  57.6090998  86.0319393  14.7100441
  54.5223375  84.0660474  21.4769683  54.9977496  84.2588121  20.6688534
  53.5988940  84.1219660  21.2313067  41.4106881  85.2284641  11.0600761
  41.1652923  84.3246971  11.2580972  41.5802796  85.2301792  10.1180239
  49.1003591  76.1008318  20.4425517  49.6185535  76.8369345  20.1172006
  48.7458724  76.4072311  21.2772276  40.6802529  80.9612999   8.5586923
  39.9871774  81.0357354   7.9026959  40.4354281  80.1973343   9.0808440
  49.3516185  72.5208600  15.9626414  49.6317939  71.8531789  16.5886840
  50.1366792  72.7137696  15.4501077  47.1549654  91.6967594   7.5251440
  46.5823621  92.3157781   7.0721912  47.7282448  92.2466956   8.0591362
  53.2225044  80.9426234  19.7097989  54.1742467  81.0424332  19.7310213
  53.0528494  80.1504503  20.2196073  51.2439423  78.0281818  19.8957390
  50.6489355  78.3086830  19.2003878  50.9589120  78.5175718  20.6674131
  50.3746914  91.9804744   8.6560022  51.3077587  91.9150306   8.8592898
  50.2870127  92.8161011   8.1974555  53.0034930  91.2970615   5.6163970
  52.9248562  90.9630478   6.5099728  53.8244597  91.7892383   5.6155442
  55.7013122  84.1632354  18.8240288  55.6689442  83.2248355  19.0099972
  56.3113745  84.2416391  18.0906113  47.5396452  83.0328407   4.8667492
  48.4855557  82.9034615   4.9355910  47.1610697  82.2943069   5.3436921
  55.8507610  80.9543397  18.8698572  55.3346659  80.1701854  18.6828500
  56.7347559  80.6262114  19.0345091  53.5118337  74.6984413  14.8294384
  53.3143158  74.3899501  15.7137716  54.1218043  75.4246052  14.9592314
  61.5189671  85.2248361  17.9646325  62.2493060  84.9633649  18.5254028
  60.9096617  84.4877083  18.0048393  59.6004969  83.3656223  18.5620776
  58.8738132  83.2312188  17.9537268  59.1852255  83.6733052  19.3677494
  47.4235145  87.0846153  26.3268149  48.3438154  87.2624752  26.5208196
  47.3884728  86.1402198  26.1747849  45.7239370  80.9578383   4.8022378
  44.8170825  80.6611496   4.8785091  46.0015351  80.6608201   3.9356664
  36.6417310  82.2784747  15.2521424  36.3220094  81.4250055  14.9595798
  36.0950738  82.4933325  16.0079391  40.4197217  84.9947188  18.9690931
  40.6383227  85.9264296  18.9878964  40.8322991  84.6355162  19.7545734
  47.3401435  75.5015273  10.9566619  46.5302164  75.1562358  11.3321865
  48.0285852  75.1922817  11.5454230  49.2691984  74.5793320  12.5790916
  49.8223022  74.9988773  13.2380939  49.5062070  73.6529068  12.6213872
  45.2925083  80.5680394  28.3593679  45.1921810  81.5174751  28.2905771
  45.0746625  80.2398632  27.4869750  44.4938154  77.8165319   4.9434357
  45.3557318  78.1420217   5.2030174  44.6788498  77.0296815   4.4307423
  36.5105570  85.8987658  17.2214546  35.8169041  85.4841611  16.7084500
  37.2578561  85.9408195  16.6247964  52.6470791  76.6893845  12.0869580
  52.0669460  77.3478649  11.7047632  52.3806723  75.8671190  11.6756997
  51.0974357  76.0898903  14.2890900  51.5974135  76.2015437  13.4805219
  51.7409965  75.7859956  14.9291709  45.1556353  83.9977532  27.1758741
  44.6723435  84.7977893  27.3822630  45.2417292  84.0085477  26.2226185
  38.4242312  85.8305912  15.0980560  38.4013001  85.9293599  14.1462444
  38.7342949  86.6771063  15.4197727  41.0829690  87.8882067  19.2127175
  42.0372944  87.8566009  19.1457106  40.8842214  87.4272691  20.0277401
  41.6729072  86.4583183  21.7797973  42.4921961  86.9527262  21.8032810
  41.9465880  85.5415151  21.7515540  51.4295669  78.8493935  11.1425928
  50.5421524  79.1343586  10.9246123  51.8449658  78.6887699  10.2953205
  54.7810205  78.8740456  14.8580267  55.5570595  79.3636909  15.1304884
  54.0558339  79.2998511  15.3152137  57.2182763  79.5868076  15.9154208
  57.8127254  79.3463812  15.2047516  57.2909347  78.8675206  16.5427744
  39.4379919  93.4301687  16.2297373  39.3034387  92.6702087  15.6635371
  39.0211981  94.1542586  15.7626162  50.5738882  88.6138610   5.2373948
  51.2774732  88.8188613   5.8531604  49.8501531  89.1815372   5.5023032
  51.4036692  84.3648471  11.3576218  51.3471894  84.8217023  10.5183851
  51.9565035  83.6039156  11.1799061  55.2141498  80.1538203  12.1826338
  54.9578433  79.7534839  13.0134545  54.5894366  80.8681997  12.0576477
  59.5253836  82.8934277  14.6897629  58.9653394  82.9627466  15.4629191
  58.9197340  82.7175261  13.9697125  42.5949045  94.3271004  16.4415815
  42.4781429  95.2716436  16.3394506  41.7741491  94.0244565  16.8301615
  52.4825580  89.0521139   7.2872408  53.3171183  88.6202338   7.1049883
  52.3209922  88.8803153   8.2149303  52.1371472  85.5553253   8.6528747
  52.0820276  85.3897524   7.7117192  51.5117527  86.2629286   8.8090937
  36.9263987  80.7921317  22.4790170  37.5722850  80.2820271  22.9677395
  36.7181138  81.5289999  23.0533595  49.4517379  87.8602164  27.9782310
  50.3208539  88.0342817  27.6168945  48.9724130  88.6796581  27.8558040
  45.4467597  75.0561362   8.2314066  45.4346267  76.0003202   8.3882337
  46.3391019  74.8731507   7.9373527  43.6203559  94.9799265  19.6571744
  44.5230806  95.0122876  19.9738239  43.3940929  94.0499716  19.6718080
  45.3757161  93.7330252  16.3181822  44.4252792  93.7332114  16.2046195
  45.6789647  92.9862987  15.8017857  49.2619717  71.6504138  12.4860003
  48.4952112  71.0962625  12.6316685  49.6730422  71.7226007  13.3474154
  41.2661478  77.9388934  26.5765184  42.1292939  77.5825739  26.7868508
  40.6926888  77.6002829  27.2640588  61.1109855  99.5690790  17.3827585
  61.7488265  99.4497538  16.6790925  60.9930698 100.5171634  17.4415537
  57.9199561  99.5218219  17.3189110  57.5818072  99.4059283  16.4309644
  58.7889329  99.1209384  17.2990116  53.7786377 101.3753695  13.3086000
  53.2151242 101.2843632  12.5402288  53.6638772 100.5553599  13.7888493
  58.4019344 100.6753070  23.2775315  58.3907985 100.2805869  22.4055819
  58.5639983  99.9419143  23.8709087  51.3250809 102.8704887  16.1470221
  52.1172100 102.5295711  15.7316520  51.5647459 102.9799862  17.0672374
  59.3585935 105.0424663   8.6200465  58.7073915 105.6278743   8.2334479
  60.1530298 105.5730858   8.6795503  53.2841562 102.1313800   9.0187600
  54.0572438 101.5842787   8.8800476  53.6366961 102.9958049   9.2302061
  55.1226605 103.4590182  22.2254499  54.8316471 104.3635813  22.1101165
  55.7583589 103.5006710  22.9398569  56.0482812 100.8367031  18.8155859
  56.6446384 100.6123053  18.1012822  56.1057783 100.0951776  19.4181307
  55.6207840  98.2906466   6.6506050  55.8733361  97.7687987   5.8889513
  54.6832399  98.1272611   6.7532733  60.6651123  97.2942244  14.4580793
  61.4514212  96.8761667  14.1071210  60.9289827  98.1988336  14.6262441
  60.8361200 102.7315095   9.1569450  60.2007033 102.8049721   9.8690354
  60.5058607 103.3208693   8.4788529  66.0659550  97.2317477  15.3613771
  66.7984722  96.6616694  15.5951601  65.3098906  96.8439078  15.8020277
  55.3404129 100.1934572   8.8530425  55.2240387  99.5179475   9.5211509
  55.4506389  99.7066946   8.0362578  57.6835670  99.6544719  12.5577114
  57.3193877  99.1275340  13.2690035  58.5402786  99.2643188  12.3843599
  63.5884971  90.9439052  19.8208380  63.2568295  91.8134463  19.5969595
  62.9930584  90.6275336  20.5002410  57.3241157  94.6834619   7.5538462
  57.4915559  95.5514855   7.9208933  57.1338326  94.8461900   6.6299752
  60.0816490 103.1451598  19.2204293  59.7817213 104.0476636  19.1120100
  59.7367550 102.8783781  20.0725446  53.5328972  99.5965394  15.2540997
  52.6079468  99.4641609  15.4618689  53.7813385 100.3759614  15.7510940
  63.4813634  95.6634138  16.9001730  62.5730511  95.5949546  16.6060491
  63.4301230  96.1406083  17.7283556  57.3030378  97.1392276   8.5385129
  57.1830003  97.5849327   9.3770609  56.6082966  97.4877594   7.9798667
  50.8937783  99.2398668  16.0884786  51.0230164  99.4933147  17.0024198
  50.2135234  99.8326376  15.7689441  55.0637270 109.9095918  12.1875260
  54.9861300 110.8603743  12.2663741  54.4598914 109.5641790  12.8450187
  57.5554500  97.0823783  24.8436627  56.7787834  97.6417703  24.8339492
  58.1945063  97.5680566  25.3651497  65.3475280  93.8650576  18.6779604
  64.7049661  94.1583109  18.0319399  64.8430209  93.7503497  19.4832801
  63.0015444  97.6113749   9.3665463  63.9133300  97.8441136   9.1913161
  62.4925091  98.1950794   8.8040542  55.8100872  99.8909237  24.4054594
  56.5515556 100.4294281  24.1289418  55.1037857 100.5175525  24.5626146
  61.2856212 102.0338377  23.0026756  61.6939568 101.5920788  22.2581388
  60.5633473 101.4591005  23.2560949  57.6387282  96.9710984  20.3760313
  58.4848477  97.3950398  20.5194962  57.5785919  96.3144608  21.0698876
  61.6085026 102.5939568  16.7579045  60.9793889 102.7585282  16.0555113
  61.2210688 103.0081177  17.5290009  65.4874258 103.5294006  14.1123408
  64.8025296 103.9092907  13.5620442  65.5718107 104.1389332  14.8455356
  60.7886727  94.6315352  22.0341486  60.5447659  95.3857413  21.4975762
  61.0646658  95.0100700  22.8688733  62.7425190 101.1753965  20.7118752
  62.9542085 101.8185725  20.0353133  62.6954938 100.3416281  20.2440682
  60.3451419  93.7871785  17.6155324  59.4835898  94.0853039  17.9072062
  60.3713853  94.0042184  16.6836357  57.1612988 102.3313976  14.0229130
  57.6251334 102.6101679  13.2333752  56.8969786 101.4297420  13.8402220
  54.0537069 101.8785457  16.9608893  54.6238426 102.3072726  16.3226378
  54.6445181 101.5968042  17.6593079  56.0981874  98.4537128  10.8318695
  56.8005918  98.9058172  11.2992621  55.7662503  97.8120947  11.4598588
  54.5462236  97.0448885  25.2069904  53.9160896  97.7265166  25.4405301
  54.4398324  96.9331967  24.2623043  49.8407208  96.7120681  16.1335829
  49.0506262  96.9678209  15.6575939  50.3318456  97.5269019  16.2387869
  63.8571018 104.0525920  18.8841109  64.6788461 103.6506107  18.6023791
  63.8533421 103.9494154  19.8357225  51.7921954  97.0765260  13.0919305
  50.9953117  97.1883954  13.6102801  51.5647546  97.4151912  12.2260196
  57.6227621 103.6009963  21.0401820  57.6872054 104.0630371  21.8759992
  56.9138545 102.9707328  21.1684130  48.1244911  96.9651171  18.5650819
  48.3752950  97.8498181  18.8308395  48.6604460  96.7855773  17.7925911
  71.9477011 100.3964669  15.2326081  71.1940719  99.8272067  15.0770085
  72.0824552 100.3627333  16.1796715  57.3375639 105.2678071  10.9080800
  57.2021314 106.1129607  11.3365648  57.8785451 105.4697349  10.1446734
  53.8242978  91.3469651  27.5695155  53.4309924  90.7935849  28.2442800
  54.6409119  91.6580229  27.9601673  50.7905036 102.7853509  11.4808725
  51.3029557 103.5796759  11.6314290  51.4427749 102.0879799  11.4142327
  52.5999921 105.9019265  13.5631478  52.7766549 106.8237230  13.3752462
  53.3956754 105.5877684  13.9925858  56.7410939  92.7627530  25.1615412
  57.4820653  93.3634683  25.0819874  56.9728862  92.0205168  24.6033455
  51.8852277  97.9483897  23.4393642  51.7705793  97.0469154  23.7400741
  51.0296795  98.1947594  23.0878458  58.9644115 105.8901637  25.0381142
  58.5207969 105.1038016  24.7202047  59.6261329 106.0780788  24.3725033
  53.7231236 107.4197439  19.5641821  54.2738662 107.2914502  18.7918815
  52.8842712 107.7192328  19.2136714  61.0625353 106.1704437  23.0662544
  61.0443829 106.9913318  22.5742813  61.9845273 106.0458513  23.2912685
  57.5198407 103.6848567  23.9086052  58.0526744 102.9236855  23.6785360
  56.9912489 103.3922219  24.6510206  60.6868102  88.7908633  19.4379694
  60.3432372  89.6810274  19.3618804  61.0547065  88.6010290  18.5749279
  48.7553953 101.1142163  12.2568296  49.5929175 101.5239172  12.0402003
  48.9332221 100.1741605  12.2268490  60.6518385  98.7817244   7.9452129
  60.1365009  99.5521849   8.1840516  60.3795694  98.1082380   8.5685190
  58.2365496  93.6266945  13.0037367  57.3807092  93.2373795  12.8243006
  58.6492448  93.7058905  12.1437153  59.7664643  91.1613288  17.4028927
  59.2629438  91.1243423  16.5896732  60.0595250  92.0706031  17.4625584
  56.0107529  91.2452018  16.4095109  56.8760525  91.0494826  16.0500998
  56.0785038  91.0162369  17.3364465  65.6252659 101.5349599   9.8805302
  64.8482102 101.1960758   9.4360464  66.3044140 101.5402222   9.2060267
  60.4404688  96.6544336   9.7711910  60.1354824  96.9690485  10.6222053
  61.3935130  96.7325756   9.8139243  58.8851120 102.8134559  11.4204864
  58.3572482 102.0787319  11.1078101  58.3838623 103.5909236  11.1744832
  63.8643966 101.0083580  16.5371910  63.2067641 101.6982841  16.6252039
  64.6684365 101.3980012  16.8805897  53.6169848  93.4754226  13.7811475
  54.1913600  93.2529407  13.0484668  54.2040830  93.5442920  14.5340077
  62.6749425  99.3627952  14.5875852  63.1881307  99.9957944  15.0897562
  63.3250649  98.7629148  14.2219212  53.9439435  95.5058687   7.8007361
  53.1076747  95.8433373   8.1216635  53.8044205  95.3707666   6.8634498
  55.9192515  90.3495474  12.5086545  55.2656928  90.0344492  11.8843160
  55.8772990  89.7271215  13.2346368  57.0303720 100.6314770   4.4239837
  56.1230782 100.4004023   4.6230986  57.5274752  99.8352389   4.6113818
  59.9371799 109.3412277   7.3436523  59.2633498 109.6443973   7.9521481
  60.3237621 110.1441357   6.9941980  59.1530256  96.8377408  16.8334192
  58.2352817  97.0592355  16.6755881  59.5690399  96.9123718  15.9745900
  59.9365304  98.2368824  11.9636873  60.6837123  98.7490221  11.6543995
  60.2056893  97.9152876  12.8241266  58.2091954 100.7327364   8.9463827
  57.3003173 100.4486397   9.0436297  58.2387038 101.1526443   8.0867134
  63.4411221 104.3433954  12.7154995  62.9873548 103.5024864  12.7720185
  62.8105188 104.9795352  13.0529775  62.3844141  95.2725940  13.9455662
  61.6466898  94.7603326  14.2765905  62.6370914  94.8326322  13.1338939
  61.8844160 106.1810451  13.6504813  62.1767135 106.7415508  12.9317178
  62.3942781 106.4739012  14.4057972  62.4855768  88.0502192  14.5397431
  62.7914645  87.1899555  14.2523346  63.2108373  88.6419812  14.3396425
  48.7780124  98.4532879  12.9279029  48.5804524  97.8602239  12.2030096
  48.2226788  98.1485089  13.6454968  56.7576848  98.3455985  15.0473622
  56.8125458  97.3929821  14.9716099  55.9468050  98.5015424  15.5314921
  57.9068042 102.2736108   6.2851906  57.4687471 101.5571967   5.8257543
  58.6478482 102.5012223   5.7236997  54.6969208  96.9633045  12.8064001
  53.8837073  97.2627215  13.2129193  55.1928202  96.5688734  13.5238483
  56.8477786 106.9590802  14.7398266  56.8053964 107.1851648  13.8106798
  57.7640484 106.7254176  14.8884067  60.2943419  97.4274869  21.6378895
  60.6492807  97.6546342  22.4973361  60.9415551  97.7593246  21.0156150
  66.0241156 100.5493305  12.3428224  65.8859055 100.7394901  11.4149413
  65.6677375 101.3112688  12.7996275  54.1883282  94.5351400  18.4225236
  54.8282662  94.3940159  17.7248200  53.3560813  94.2485914  18.0463838
  66.0510536 102.6169832  17.3539496  66.4847043 102.5245121  18.2022550
  66.7642117 102.5927333  16.7159512  54.9643586 103.8353831  14.5360229
  55.7584185 103.3404151  14.3342804  54.2535279 103.3071694  14.1727934
  59.7838431 106.2171926  18.8872596  59.8375453 106.7862863  19.6550312
  58.9153212 106.3873811  18.5226633  51.2726350  97.9796912  10.6119981
  50.3423938  97.9181368  10.8289943  51.3683822  97.4572865   9.8156623
  51.1911899  94.5051725  13.1998223  51.4518716  95.4197059  13.0907383
  52.0129071  94.0376168  13.3494836  52.6636824  95.9189482  20.3697048
  53.3359878  95.7106845  19.7209696  51.8366611  95.7211568  19.9302280
  66.9126086 102.6593533  19.8872381  67.1061976 103.5639343  20.1331656
  66.8126704 102.2000952  20.7210966  58.5662396  92.5451423  22.3862708
  57.9190311  93.2441373  22.2927185  59.3363412  92.9787567  22.7538957
  61.9741194 102.8100276  25.4613262  61.8226701 102.5810827  24.5443345
  61.9645874 103.7670877  25.4744607  58.7426531 100.3832188  20.4459528
  59.6718591 100.5343348  20.2728495  58.3217561 100.4716209  19.5908175
  57.5414862 104.4082853  18.2158066  57.4025948 104.0401637  19.0884004
  56.7529459 104.9230492  18.0442024  58.1363014 109.5091949   9.5583602
  58.3114770 109.0379992  10.3729225  57.4495802 110.1357715   9.7864863
  59.0920078 103.7864455  15.6046904  58.7569910 103.7465225  16.5004553
  58.5924023 103.1209171  15.1317314  53.0664321  99.1932085  21.1299485
  52.9284119  98.4612324  21.7311024  53.9769245  99.1040986  20.8483672
  62.0279269 101.1320490   5.8783963  61.4108440 100.4067318   5.7817016
  61.5595758 101.8929850   5.5351037  55.6946622  98.9052045  20.6183164
  56.4046241  98.2645237  20.5769783  55.6515930  99.1564940  21.5409345
  63.6833401 105.8419398  23.5389744  63.6245947 105.1578618  22.8720327
  64.0852919 106.5838388  23.0870370  54.4075556  95.8917263  22.4378804
  53.8712913  95.4408001  23.0900400  53.8192265  96.0263171  21.6949268
  52.7024100 112.6581312  16.3323462  52.9420698 113.2899836  17.0102481
  51.8593296 112.3069352  16.6188822  53.8177815  95.3505914   5.0005267
  52.9407281  95.2294715   4.6367514  54.2935568  94.5591992   4.7484156
  63.6850808 103.8058982  21.7703723  62.7977587 103.4684904  21.8930122
  64.2549359 103.0742013  22.0072489  45.3379955 100.1383074  15.0946775
  46.0250995  99.8244804  14.5067790  45.1828084 101.0424438  14.8214026
  50.1414677  95.0273270  19.5231798  50.0572866  94.4198940  18.7882208
  49.3197384  95.5182289  19.5241295  57.2151962 108.4660434  18.7364966
  57.1422133 109.2715406  19.2484271  56.7729355 108.6652400  17.9112988
  57.0041741 107.7032204  12.2467788  56.2209263 108.2453885  12.3406012
  57.7034486 108.2206184  12.6462029  60.3138391  93.5126834  14.8901993
  60.8107091  92.7596796  14.5703064  59.5425373  93.5491151  14.3245203
  68.1668149  99.2167199  16.5320285  68.1558025 100.0991915  16.1614218
  67.2985528  98.8638750  16.3374822  59.6750645 108.3647268  20.8923125
  60.3878617 108.9994733  20.8199027  59.1840674 108.4611134  20.0763127
  61.3968172 102.2698521  12.4640417  60.4624451 102.3899984  12.2945121
  61.5744840 101.3670988  12.2000427  56.8973360  95.6544217  14.6173678
  56.5271148  95.1015257  15.3054584  57.3932452  95.0502350  14.0648678
  64.7840723  98.1115840  12.9990451  65.2501175  98.9443832  12.9250754
  65.2348224  97.6460822  13.7035709  54.7262559 106.1141712  21.7128696
  55.4272018 106.7478195  21.8658090  54.2557674 106.4556443  20.9524335
  62.8516954 104.4559662   9.9976603  63.1276798 104.3416256  10.9070477
  61.9821453 104.0577147   9.9588776  62.7557386  90.4796427  17.0381352
  61.8420466  90.7100654  17.2063559  63.1850487  90.5634871  17.8895385
  62.5263845  98.6686319  19.5381246  61.8735295  98.9162227  18.8833699
  62.9044224  97.8550458  19.2043724  59.4871018 108.7046013  13.6409417
  59.6693413 107.8867668  14.1037169  60.3104004 108.9213705  13.2034307
  59.8213184 107.6314198  10.9024465  60.3500950 107.1206652  10.2894627
  60.0841403 107.3156728  11.7669998  58.5751418  99.4106130  26.0247283
  57.8992055  99.3100260  26.6949659  59.3979051  99.2545344  26.4883281
  50.3230277 105.6478067  18.6459799  50.9083713 104.9021755  18.7787703
  50.1255115 105.9582024  19.5296462  53.1768932 108.6829314  13.6622241
  52.5079307 109.1675442  13.1786281  53.0381802 108.9298535  14.5765620
  44.9147931  98.2183667  17.3664242  44.9532031  97.6847258  18.1601360
  44.4088224  97.6918873  16.7475219  57.3174200 110.7173058  20.2604899
  57.8692508 110.8804679  21.0253985  57.6580394 111.3077496  19.5884924
  52.2938694  93.0648208  20.8626784  52.3580020  93.9263039  20.4504182
  52.2305814  92.4522209  20.1299143  51.7690966  95.1371340  24.5099818
  52.3963005  94.7548417  25.1237343  50.9118885  94.9185542  24.8755511
  62.1685075 105.5434315  26.1153554  62.7124979 106.1564274  25.6208509
  61.5871920 106.1013894  26.6320567  48.5456509  96.9447769  10.4418173
  48.8409950  96.0358448  10.3885227  47.6444545  96.9235509  10.1199175
  60.4542588 108.6655033  17.2468582  60.3293727 107.8644773  16.7379527
  61.1121679 109.1601227  16.7582551  52.0750756  95.0203766  16.4245722
  51.3537342  95.6339734  16.2853195  52.8644012  95.5561531  16.3462368
  62.5177496 106.4664053  18.8748132  61.5707832 106.3469405  18.8026458
  62.8660269 105.5786551  18.9574393  54.8777069  92.3558192  22.6986373
  55.4011471  92.6020489  23.4612683  54.6589403  93.1878227  22.2789511
  50.2744351  94.6261867  10.5657498  49.9457057  93.7459246  10.3832604
  50.6283721  94.5709536  11.4533888  59.5223929 106.2616770  15.0752484
  59.3748892 105.3333477  15.2560054  60.3477423 106.2836860  14.5909559
  53.3886174  94.9134837  10.9332976  53.7282246  95.4420758  10.2111584
  53.8358294  95.2515243  11.7091543  63.1258051 107.0845328  16.1617357
  64.0504599 106.8788190  16.0241808  62.9573355 106.8361730  17.0706698
  56.0829615  93.2971887  20.3836044  55.7426435  92.4979701  20.7856724
  55.3768621  93.5973598  19.8112877  56.7346086  90.3821200  18.8363367
  57.5572156  89.9081678  18.7142257  56.9784150  91.1611684  19.3362053
  55.3754321  93.4109458   9.1326269  56.0962683  93.7890711   8.6289986
  54.7519625  94.1298335   9.2361247  59.5185444  94.1154607  10.0684601
  59.7349058  94.9979245   9.7673429  59.0379511  93.7240821   9.3390243
  54.2584665  97.0740321  16.6455346  54.1129246  97.3880624  17.5379627
  53.7809869  97.6925221  16.0926244  56.1181048  94.0642869  16.6936235
  56.1042617  93.1683962  16.3568533  56.8353476  94.0713532  17.3274521
  57.9707179  94.4980209  18.7389363  57.7124957  95.4197279  18.7373693
  57.4392219  94.1010643  19.4289827  62.9153367 107.6030996  11.5179448
  63.0890245 107.0377418  10.7653300  63.4082259 108.4031891  11.3358938
  48.7330327  99.6145665  19.5843007  48.1883795 100.3905473  19.7163281
  49.6109677  99.9616469  19.4262128  55.5217944  92.9457249  11.9623805
  55.6433855  92.0173895  12.1614693  55.2319986  92.9595935  11.0502121
  58.3909134  90.6312159  15.0990525  58.4130831  90.6951492  14.1442505
  58.8077193  89.7916668  15.2931031  68.7692759 100.3667419  13.1369748
  69.2123905  99.6174744  12.7388871  67.8919269 100.3577555  12.7543480
  63.9028540 106.9197760   8.6176346  64.5979445 107.5404453   8.8363661
  64.2451690 106.0693111   8.8928724  49.5196349  98.7415561  22.4773164
  48.7778085  98.8898197  23.0637794  49.1989093  99.0023827  21.6139913
  65.8019963 104.3697466  10.1463677  66.3271287 104.7084739   9.4212997
  65.7142316 103.4344481   9.9626812  57.4640012 108.2831539  22.2753554
  57.7727138 108.0380686  23.1476253  58.2615494 108.4878178  21.7872424
  57.4860624 110.4369449  14.5058930  57.0465614 109.9445828  15.1991787
  58.2368741 109.8942417  14.2651005  49.9652963 106.6280990  14.5083558
  50.7910983 106.3284762  14.1282202  49.6147015 105.8588612  14.9573347
  54.9334496 105.9807458  16.5781232  54.3114505 105.3178163  16.2783460
  55.6039363 106.0068590  15.8954880  48.1661568 104.5467316  15.4672492
  47.3293476 104.1189491  15.2856493  48.1385213 104.7399760  16.4043283
  55.0059023  94.4589246  26.1713738  55.0547179  95.3351369  25.7891508
  55.5481538  93.9166639  25.5985381  65.4913869 105.0030369  25.4514875
  64.7009413 104.9854508  24.9119374  65.2547224 105.5418663  26.2063912
  65.6111744 101.8522836  22.7647604  65.6609749 101.6872843  23.7063126
  65.5025668 100.9850095  22.3745484  54.4948003 104.5311381  10.0539692
  54.6436123 105.2146846   9.4006365  55.3014446 104.5116472  10.5689148
  62.9015507  97.8353764  24.0806910  63.8025369  97.6960229  23.7890908
  62.9763481  98.0008219  25.0205088  57.2358312  95.2120619  22.9260097
  56.3661621  95.5054185  22.6542685  57.4717792  95.7961064  23.6467360
  67.1129941 104.2719777  23.0089625  66.8214749 104.6349758  23.8453086
  66.5002072 103.5586786  22.8302957  68.3125623 101.8372657  15.5292195
  69.1472515 102.2762461  15.6929756  68.4484752 101.3611310  14.7100441
  65.3617129  99.3952392  21.4769683  65.8371251  99.5880038  20.6688534
  64.4382695  99.4511578  21.2313067  52.2500636 100.5576559  11.0600761
  52.0046678  99.6538889  11.2580972  52.4196550 100.5593710  10.1180239
  59.9397346  91.4300235  20.4425517  60.4579290  92.1661262  20.1172006
  59.5852478  91.7364229  21.2772276  51.5196283  96.2904917   8.5586923
  50.8265528  96.3649272   7.9026959  51.2748035  95.5265260   9.0808440
  60.1909940  87.8500518  15.9626414  60.4711694  87.1823707  16.5886840
  60.9760547  88.0429614  15.4501077  57.9943408 107.0259512   7.5251440
  57.4217375 107.6449699   7.0721912  58.5676202 107.5758874   8.0591362
  64.0618798  96.2718152  19.7097989  65.0136221  96.3716250  19.7310213
  63.8922249  95.4796421  20.2196073  62.0833178  93.3573735  19.8957390
  61.4883110  93.6378748  19.2003878  61.7982874  93.8467636  20.6674131
  61.2140668 107.3096662   8.6560022  62.1471341 107.2442224   8.8592898
  61.1263881 108.1452929   8.1974555  63.8428685 106.6262532   5.6163970
  63.7642316 106.2922396   6.5099728  64.6638352 107.1184300   5.6155442
  66.5406876  99.4924272  18.8240288  66.5083196  98.5540272  19.0099972
  67.1507500  99.5708308  18.0906113  58.3790207  98.3620325   4.8667492
  59.3249312  98.2326533   4.9355910  58.0004452  97.6234987   5.3436921
  66.6901365  96.2835315  18.8698572  66.1740413  95.4993772  18.6828500
  67.5741313  95.9554032  19.0345091  64.3512091  90.0276331  14.8294384
  64.1536913  89.7191419  15.7137716  64.9611797  90.7537970  14.9592314
  72.3583426 100.5540279  17.9646325  73.0886814 100.2925567  18.5254028
  71.7490371  99.8169000  18.0048393  70.4398723  98.6948141  18.5620776
  69.7131887  98.5604106  17.9537268  70.0246010  99.0024970  19.3677494
  58.2628899 102.4138071  26.3268149  59.1831909 102.5916670  26.5208196
  58.2278482 101.4694116  26.1747849  56.5633124  96.2870301   4.8022378
  55.6564579  95.9903414   4.8785091  56.8409105  95.9900119   3.9356664
  47.4811064  97.6076664  15.2521424  47.1613849  96.7541973  14.9595798
  46.9344493  97.8225243  16.0079391  51.2590972 100.3239105  18.9690931
  51.4776982 101.2556213  18.9878964  51.6716746  99.9647080  19.7545734
  58.1795190  90.8307191  10.9566619  57.3695918  90.4854276  11.3321865
  58.8679607  90.5214735  11.5454230  60.1085738  89.9085238  12.5790916
  60.6616777  90.3280691  13.2380939  60.3455824  88.9820986  12.6213872
  56.1318837  95.8972311  28.3593679  56.0315564  96.8466668  28.2905771
  55.9140379  95.5690550  27.4869750  55.3331909  93.1457236   4.9434357
  56.1951073  93.4712135   5.2030174  55.5182253  92.3588732   4.4307423
  47.3499324 101.2279576  17.2214546  46.6562796 100.8133529  16.7084500
  48.0972315 101.2700112  16.6247964  63.4864545  92.0185763  12.0869580
  62.9063214  92.6770567  11.7047632  63.2200478  91.1963107  11.6756997
  61.9368112  91.4190820  14.2890900  62.4367890  91.5307355  13.4805219
  62.5803719  91.1151873  14.9291709  55.9950107  99.3269450  27.1758741
  55.5117189 100.1269810  27.3822630  56.0811046  99.3377395  26.2226185
  49.2636067 101.1597830  15.0980560  49.2406755 101.2585517  14.1462444
  49.5736703 102.0062981  15.4197727  51.9223445 103.2173985  19.2127175
  52.8766698 103.1857927  19.1457106  51.7235968 102.7564609  20.0277401
  52.5122827 101.7875101  21.7797973  53.3315716 102.2819179  21.8032810
  52.7859635 100.8707069  21.7515540  62.2689423  94.1785853  11.1425928
  61.3815278  94.4635504  10.9246123  62.6843412  94.0179617  10.2953205
  65.6203959  94.2032374  14.8580267  66.3964349  94.6928827  15.1304884
  64.8952093  94.6290428  15.3152137  68.0576518  94.9159993  15.9154208
  68.6521009  94.6755729  15.2047516  68.1303102  94.1967124  16.5427744
  50.2773674 108.7593604  16.2297373  50.1428142 107.9994005  15.6635371
  49.8605736 109.4834504  15.7626162  61.4132637 103.9430528   5.2373948
  62.1168487 104.1480530   5.8531604  60.6895285 104.5107290   5.5023032
  62.2430447  99.6940389  11.3576218  62.1865648 100.1508940  10.5183851
  62.7958789  98.9331074  11.1799061  66.0535253  95.4830121  12.1826338
  65.7972187  95.0826757  13.0134545  65.4288121  96.1973915  12.0576477
  70.3647591  98.2226194  14.6897629  69.8047149  98.2919383  15.4629191
  69.7591094  98.0467179  13.9697125  53.4342799 109.6562921  16.4415815
  53.3175184 110.6008354  16.3394506  52.6135246 109.3536483  16.8301615
  63.3219334 104.3813057   7.2872408  64.1564938 103.9494255   7.1049883
  63.1603677 104.2095071   8.2149303  62.9765226 100.8845170   8.6528747
  62.9214030 100.7189442   7.7117192  62.3511281 101.5921203   8.8090937
  47.7657741  96.1213235  22.4790170  48.4116605  95.6112189  22.9677395
  47.5574892  96.8581916  23.0533595  60.2911133 103.1894082  27.9782310
  61.1602293 103.3634734  27.6168945  59.8117885 104.0088499  27.8558040
  56.2861352  90.3853279   8.2314066  56.2740021  91.3295119   8.3882337
  57.1784774  90.2023425   7.9373527  54.4597314 110.3091183  19.6571744
  55.3624560 110.3414793  19.9738239  54.2334684 109.3791634  19.6718080
  56.2150916 109.0622170  16.3181822  55.2646547 109.0624031  16.2046195
  56.5183402 108.3154904  15.8017857  60.1013471  86.9796056  12.4860003
  59.3345867  86.4254543  12.6316685  60.5124176  87.0517925  13.3474154
  52.1055232  93.2680852  26.5765184  52.9686694  92.9117657  26.7868508
  51.5320643  92.9294747  27.2640588  71.9503609 114.8982708  17.3827585
  72.5882019 114.7789455  16.6790925  71.8324452 115.8463552  17.4415537
  68.7593315 114.8510136  17.3189110  68.4211827 114.7351201  16.4309644
  69.6283084 114.4501301  17.2990116  64.6180131 116.7045613  13.3086000
  64.0544996 116.6135550  12.5402288  64.5032526 115.8845517  13.7888493
  69.2413098 116.0044988  23.2775315  69.2301739 115.6097786  22.4055819
  69.4033738 115.2711061  23.8709087  62.1644563 118.1996804  16.1470221
  62.9565855 117.8587629  15.7316520  62.4041213 118.3091779  17.0672374
  65.9620360 118.7882100  22.2254499  65.6710226 119.6927731  22.1101165
  66.5977344 118.8298627  22.9398569  66.8876566 116.1658948  18.8155859
  67.4840139 115.9414971  18.1012822  66.9451538 115.4243694  19.4181307
  71.5044878 112.6234162  14.4580793  72.2907967 112.2053585  14.1071210
  71.7683582 113.5280254  14.6262441  76.9053305 112.5609395  15.3613771
  77.6378477 111.9908612  15.5951601  76.1492660 112.1730996  15.8020277
  68.5229424 114.9836637  12.5577114  68.1587632 114.4567258  13.2690035
  69.3796540 114.5935106  12.3843599  74.4278725 106.2730969  19.8208380
  74.0962050 107.1426380  19.5969595  73.8324338 105.9567253  20.5002410
  70.9210245 118.4743515  19.2204293  70.6210968 119.3768554  19.1120100
  70.5761304 118.2075698  20.0725446  64.3722726 114.9257312  15.2540997
  63.4473223 114.7933526  15.4618689  64.6207139 115.7051531  15.7510940
  74.3207388 110.9926055  16.9001730  73.4124266 110.9241464  16.6060491
  74.2694984 111.4698000  17.7283556  61.7331537 114.5690586  16.0884786
  61.8623918 114.8225065  17.0024198  61.0528988 115.1618294  15.7689441
  68.3948254 112.4115701  24.8436627  67.6181588 112.9709621  24.8339492
  69.0338817 112.8972484  25.3651497  76.1869035 109.1942494  18.6779604
  75.5443415 109.4875027  18.0319399  75.6823963 109.0795414  19.4832801
  66.6494626 115.2201154  24.4054594  67.3909311 115.7586198  24.1289418
  65.9431612 115.8467443  24.5626146  72.1249966 117.3630295  23.0026756
  72.5333322 116.9212705  22.2581388  71.4027228 116.7882922  23.2560949
  68.4781036 112.3002902  20.3760313  69.3242231 112.7242315  20.5194962
  68.4179674 111.6436526  21.0698876  72.4478781 117.9231485  16.7579045
  71.8187643 118.0877200  16.0555113  72.0604443 118.3373095  17.5290009
  71.6280482 109.9607270  22.0341486  71.3841413 110.7149331  21.4975762
  71.9040412 110.3392618  22.8688733  73.5818944 116.5045882  20.7118752
  73.7935840 117.1477642  20.0353133  73.5348693 115.6708199  20.2440682
  71.1845173 109.1163703  17.6155324  70.3229652 109.4144957  17.9072062
  71.2107608 109.3334102  16.6836357  68.0006743 117.6605894  14.0229130
  68.4645088 117.9393597  13.2333752  67.7363541 116.7589338  13.8402220
  64.8930824 117.2077375  16.9608893  65.4632181 117.6364643  16.3226378
  65.4838936 116.9259960  17.6593079  66.9375629 113.7829046  10.8318695
  67.6399672 114.2350090  11.2992621  66.6056257 113.1412865  11.4598588
  65.3855990 112.3740803  25.2069904  64.7554651 113.0557083  25.4405301
  65.2792078 112.2623884  24.2623043  60.6800963 112.0412599  16.1335829
  59.8900017 112.2970127  15.6575939  61.1712210 112.8560936  16.2387869
  74.6964772 119.3817838  18.8841109  75.5182216 118.9798025  18.6023791
  74.6927175 119.2786072  19.8357225  62.6315708 112.4057178  13.0919305
  61.8346871 112.5175872  13.6102801  62.4041300 112.7443830  12.2260196
  68.4621376 118.9301881  21.0401820  68.5265808 119.3922288  21.8759992
  67.7532300 118.2999246  21.1684130  58.9638666 112.2943089  18.5650819
  59.2146704 113.1790099  18.8308395  59.4998214 112.1147691  17.7925911
  64.6636733 106.6761568  27.5695155  64.2703679 106.1227767  28.2442800
  65.4802873 106.9872147  27.9601673  61.6298791 118.1145427  11.4808725
  62.1423311 118.9088677  11.6314290  62.2821504 117.4171717  11.4142327
  67.5804694 108.0919448  25.1615412  68.3214407 108.6926601  25.0819874
  67.8122617 107.3497085  24.6033455  62.7246032 113.2775815  23.4393642
  62.6099547 112.3761072  23.7400741  61.8690550 113.5239512  23.0878458
  69.8037870 121.2193555  25.0381142  69.3601724 120.4329934  24.7202047
  70.4655083 121.4072706  24.3725033  64.5624991 122.7489357  19.5641821
  65.1132416 122.6206420  18.7918815  63.7236467 123.0484246  19.2136714
  71.9019108 121.4996355  23.0662544  71.8837583 122.3205236  22.5742813
  72.8239028 121.3750430  23.2912685  68.3592162 119.0140484  23.9086052
  68.8920499 118.2528773  23.6785360  67.8306243 118.7214136  24.6510206
  71.5261857 104.1200550  19.4379694  71.1826126 105.0102192  19.3618804
  71.8940819 103.9302208  18.5749279  59.5947707 116.4434081  12.2568296
  60.4322930 116.8531089  12.0402003  59.7725975 115.5033523  12.2268490
  69.0759251 108.9558862  13.0037367  68.2200847 108.5665713  12.8243006
  69.4886202 109.0350823  12.1437153  70.6058397 106.4905206  17.4028927
  70.1023193 106.4535341  16.5896732  70.8989004 107.3997948  17.4625584
  66.8501283 106.5743935  16.4095109  67.7154280 106.3786744  16.0500998
  66.9178792 106.3454287  17.3364465  74.7037721 116.3375497  16.5371910
  74.0461395 117.0274759  16.6252039  75.5078120 116.7271929  16.8805897
  64.4563602 108.8046143  13.7811475  65.0307354 108.5821325  13.0484668
  65.0434585 108.8734838  14.5340077  73.5143179 114.6919870  14.5875852
  74.0275061 115.3249862  15.0897562  74.1644403 114.0921066  14.2219212
  66.7586270 105.6787392  12.5086545  66.1050682 105.3636409  11.8843160
  66.7166744 105.0563133  13.2346368  69.9924010 112.1669326  16.8334192
  69.0746572 112.3884273  16.6755881  70.4084154 112.2415636  15.9745900
  73.2237895 110.6017858  13.9455662  72.4860652 110.0895244  14.2765905
  73.4764669 110.1618239  13.1338939  73.3249523 103.3794110  14.5397431
  73.6308399 102.5191473  14.2523346  74.0502127 103.9711730  14.3396425
  59.6173879 113.7824796  12.9279029  59.4198278 113.1894157  12.2030096
  59.0620543 113.4777006  13.6454968  67.5970602 113.6747903  15.0473622
  67.6519212 112.7221739  14.9716099  66.7861804 113.8307342  15.5314921
  65.5362962 112.2924962  12.8064001  64.7230828 112.5919133  13.2129193
  66.0321956 111.8980651  13.5238483  71.1337174 112.7566787  21.6378895
  71.4886562 112.9838260  22.4973361  71.7809305 113.0885164  21.0156150
  65.0277037 109.8643318  18.4225236  65.6676416 109.7232077  17.7248200
  64.1954568 109.5777831  18.0463838  65.8037341 119.1645748  14.5360229
  66.5977939 118.6696069  14.3342804  65.0929033 118.6363612  14.1727934
  70.6232185 121.5463844  18.8872596  70.6769208 122.1154780  19.6550312
  69.7546967 121.7165729  18.5226633  62.1120104 113.3088830  10.6119981
  61.1817692 113.2473286  10.8289943  62.2077576 112.7864783   9.8156623
  62.0305653 109.8343643  13.1998223  62.2912471 110.7488976  13.0907383
  62.8522826 109.3668086  13.3494836  63.5030579 111.2481400  20.3697048
  64.1753632 111.0398762  19.7209696  62.6760365 111.0503486  19.9302280
  77.7519840 117.9885450  19.8872381  77.9455730 118.8931261  20.1331656
  77.6520458 117.5292870  20.7210966  69.4056151 107.8743341  22.3862708
  68.7584066 108.5733291  22.2927185  70.1757166 108.3079485  22.7538957
  72.8134949 118.1392193  25.4613262  72.6620455 117.9102745  24.5443345
  72.8039628 119.0962795  25.4744607  69.5820285 115.7124106  20.4459528
  70.5112345 115.8635266  20.2728495  69.1611315 115.8008127  19.5908175
  68.3808617 119.7374770  18.2158066  68.2419703 119.3693555  19.0884004
  67.5923213 120.2522410  18.0442024  69.9313832 119.1156373  15.6046904
  69.5963665 119.0757143  16.5004553  69.4317778 118.4501089  15.1317314
  63.9058076 114.5224003  21.1299485  63.7677874 113.7904242  21.7311024
  64.8162999 114.4332903  20.8483672  66.5340377 114.2343962  20.6183164
  67.2439995 113.5937155  20.5769783  66.4909685 114.4856857  21.5409345
  74.5227155 121.1711316  23.5389744  74.4639701 120.4870536  22.8720327
  74.9246674 121.9130306  23.0870370  65.2469311 111.2209180  22.4378804
  64.7106668 110.7699919  23.0900400  64.6586019 111.3555089  21.6949268
  74.5244563 119.1350900  21.7703723  73.6371341 118.7976821  21.8930122
  75.0943114 118.4033931  22.0072489  56.1773710 115.4674991  15.0946775
  56.8644750 115.1536721  14.5067790  56.0221838 116.3716356  14.8214026
  60.9808432 110.3565188  19.5231798  60.8966621 109.7490858  18.7882208
  60.1591138 110.8474206  19.5241295  68.0545716 123.7952352  18.7364966
  67.9815887 124.6007324  19.2484271  67.6123109 123.9944318  17.9112988
  71.1532146 108.8418752  14.8901993  71.6500845 108.0888714  14.5703064
  70.3819127 108.8783068  14.3245203  79.0061903 114.5459117  16.5320285
  78.9951779 115.4283833  16.1614218  78.1379283 114.1930668  16.3374822
  70.5144400 123.6939186  20.8923125  71.2272372 124.3286651  20.8199027
  70.0234428 123.7903052  20.0763127  67.7367114 110.9836135  14.6173678
  67.3664902 110.4307175  15.3054584  68.2326207 110.3794268  14.0648678
  65.5656313 121.4433630  21.7128696  66.2665773 122.0770113  21.8658090
  65.0951428 121.7848361  20.9524335  73.5951141 105.8088345  17.0381352
  72.6814220 106.0392572  17.2063559  74.0244242 105.8926789  17.8895385
  73.3657599 113.9978237  19.5381246  72.7129049 114.2454144  18.8833699
  73.7437979 113.1842375  19.2043724  69.4145172 114.7398048  26.0247283
  68.7385809 114.6392177  26.6949659  70.2372806 114.5837262  26.4883281
  61.1624031 120.9769985  18.6459799  61.7477468 120.2313673  18.7787703
  60.9648870 121.2873941  19.5296462  55.7541686 113.5475585  17.3664242
  55.7925785 113.0139175  18.1601360  55.2481979 113.0210790  16.7475219
  68.1567955 126.0464976  20.2604899  68.7086263 126.2096597  21.0253985
  68.4974148 126.6369413  19.5884924  63.1332448 108.3940125  20.8626784
  63.1973775 109.2554956  20.4504182  63.0699568 107.7814127  20.1299143
  62.6084721 110.4663258  24.5099818  63.2356759 110.0840335  25.1237343
  61.7512640 110.2477460  24.8755511  73.0078829 120.8726233  26.1153554
  73.5518733 121.4856191  25.6208509  72.4265674 121.4305811  26.6320567
  59.3850263 112.2739687  10.4418173  59.6803705 111.3650365  10.3885227
  58.4838299 112.2527426  10.1199175  62.9144510 110.3495684  16.4245722
  62.1931096 110.9631651  16.2853195  63.7037766 110.8853448  16.3462368
  73.3571251 121.7955971  18.8748132  72.4101586 121.6761322  18.8026458
  73.7054024 120.9078469  18.9574393  65.7170824 107.6850110  22.6986373
  66.2405226 107.9312407  23.4612683  65.4983157 108.5170145  22.2789511
  61.1138105 109.9553785  10.5657498  60.7850811 109.0751164  10.3832604
  61.4677476 109.9001453  11.4533888  64.2279928 110.2426754  10.9332976
  64.5676001 110.7712676  10.2111584  64.6752049 110.5807161  11.7091543
  66.9223369 108.6263805  20.3836044  66.5820189 107.8271618  20.7856724
  66.2162375 108.9265516  19.8112877  67.5739841 105.7113118  18.8363367
  68.3965910 105.2373596  18.7142257  67.8177904 106.4903601  19.3362053
  66.2148075 108.7401376   9.1326269  66.9356438 109.1182629   8.6289986
  65.5913379 109.4590253   9.2361247  70.3579198 109.4446525  10.0684601
  70.5742813 110.3271163   9.7673429  69.8773265 109.0532738   9.3390243
  65.0978420 112.4032238  16.6455346  64.9523000 112.7172541  17.5379627
  64.6203623 113.0217139  16.0926244  66.9574802 109.3934786  16.6936235
  66.9436371 108.4975880  16.3568533  67.6747231 109.4005450  17.3274521
  68.8100933 109.8272126  18.7389363  68.5518711 110.7489197  18.7373693
  68.2785974 109.4302561  19.4289827  59.5724082 114.9437583  19.5843007
  59.0277550 115.7197391  19.7163281  60.4503432 115.2908387  19.4262128
  66.3611698 108.2749166  11.9623805  66.4827610 107.3465813  12.1614693
  66.0713741 108.2887852  11.0502121  69.2302889 105.9604077  15.0990525
  69.2524586 106.0243410  14.1442505  69.6470948 105.1208586  15.2931031
  60.3590104 114.0707479  22.4773164  59.6171840 114.2190114  23.0637794
  60.0382848 114.3315744  21.6139913  68.3033766 123.6123457  22.2753554
  68.6120893 123.3672604  23.1476253  69.1009248 123.8170096  21.7872424
  60.8046717 121.9572908  14.5083558  61.6304737 121.6576679  14.1282202
  60.4540769 121.1880530  14.9573347  65.7728250 121.3099376  16.5781232
  65.1508260 120.6470081  16.2783460  66.4433117 121.3360508  15.8954880
  59.0055322 119.8759234  15.4672492  58.1687231 119.4481408  15.2856493
  58.9778968 120.0691677  16.4043283  65.8452778 109.7881164  26.1713738
  65.8940933 110.6643287  25.7891508  66.3875292 109.2458557  25.5985381
  76.3307624 120.3322287  25.4514875  75.5403167 120.3146426  24.9119374
  76.0940978 120.8710581  26.2063912  76.4505499 117.1814753  22.7647604
  76.5003504 117.0164761  23.7063126  76.3419422 116.3142012  22.3745484
  73.7409261 113.1645681  24.0806910  74.6419124 113.0252146  23.7890908
  73.8157236 113.3300136  25.0205088  68.0752066 110.5412536  22.9260097
  67.2055376 110.8346102  22.6542685  68.3111547 111.1252981  23.6467360
  77.9523695 119.6011695  23.0089625  77.6608504 119.9641676  23.8453086
  77.3395827 118.8878703  22.8302957  76.2010884 114.7244310  21.4769683
  76.6765005 114.9171956  20.6688534  75.2776449 114.7803495  21.2313067
  63.0894390 115.8868477  11.0600761  62.8440432 114.9830807  11.2580972
  63.2590305 115.8885627  10.1180239  70.7791100 106.7592153  20.4425517
  71.2973044 107.4953180  20.1172006  70.4246233 107.0656146  21.2772276
  62.3590038 111.6196834   8.5586923  61.6659283 111.6941189   7.9026959
  62.1141790 110.8557178   9.0808440  71.0303694 103.1792436  15.9626414
  71.3105448 102.5115625  16.5886840  71.8154301 103.3721531  15.4501077
  74.9012553 111.6010070  19.7097989  75.8529976 111.7008167  19.7310213
  74.7316003 110.8088338  20.2196073  72.9226932 108.6865653  19.8957390
  72.3276864 108.9670666  19.2003878  72.6376629 109.1759554  20.6674131
  77.3800631 114.8216189  18.8240288  77.3476951 113.8832190  19.0099972
  77.9901254 114.9000226  18.0906113  77.5295119 111.6127233  18.8698572
  77.0134168 110.8285689  18.6828500  78.4135068 111.2845949  19.0345091
  75.1905846 105.3568248  14.8294384  74.9930667 105.0483337  15.7137716
  75.8005551 106.0829887  14.9592314  83.1977180 115.8832196  17.9646325
  83.9280569 115.6217484  18.5254028  82.5884126 115.1460918  18.0048393
  81.2792477 114.0240059  18.5620776  80.5525641 113.8896024  17.9537268
  80.8639764 114.3316887  19.3677494  69.1022654 117.7429988  26.3268149
  70.0225663 117.9208587  26.5208196  69.0672237 116.7986034  26.1747849
  58.3204819 112.9368582  15.2521424  58.0007603 112.0833890  14.9595798
  57.7738247 113.1517160  16.0079391  62.0984726 115.6531023  18.9690931
  62.3170736 116.5848131  18.9878964  62.5110500 115.2938998  19.7545734
  69.0188944 106.1599108  10.9566619  68.2089673 105.8146193  11.3321865
  69.7073361 105.8506652  11.5454230  70.9479493 105.2377155  12.5790916
  71.5010531 105.6572609  13.2380939  71.1849579 104.3112903  12.6213872
  66.9712592 111.2264229  28.3593679  66.8709319 112.1758586  28.2905771
  66.7534134 110.8982468  27.4869750  58.1893079 116.5571494  17.2214546
  57.4956550 116.1425446  16.7084500  58.9366070 116.5992030  16.6247964
  74.3258300 107.3477680  12.0869580  73.7456969 108.0062484  11.7047632
  74.0594232 106.5255025  11.6756997  72.7761866 106.7482738  14.2890900
  73.2761644 106.8599273  13.4805219  73.4197474 106.4443791  14.9291709
  66.8343862 114.6561368  27.1758741  66.3510944 115.4561728  27.3822630
  66.9204801 114.6669313  26.2226185  60.1029821 116.4889747  15.0980560
  60.0800510 116.5877435  14.1462444  60.4130458 117.3354898  15.4197727
  62.7617199 118.5465902  19.2127175  63.7160453 118.5149845  19.1457106
  62.5629723 118.0856526  20.0277401  63.3516581 117.1167018  21.7797973
  64.1709470 117.6111097  21.8032810  63.6253389 116.1998987  21.7515540
  73.1083178 109.5077771  11.1425928  72.2209033 109.7927421  10.9246123
  73.5237167 109.3471534  10.2953205  76.4597714 109.5324292  14.8580267
  77.2358104 110.0220744  15.1304884  75.7345848 109.9582346  15.3152137
  78.8970272 110.2451911  15.9154208  79.4914763 110.0047647  15.2047516
  78.9696856 109.5259042  16.5427744  61.1167428 124.0885522  16.2297373
  60.9821896 123.3285923  15.6635371  60.6999490 124.8126422  15.7626162
  64.2736554 124.9854839  16.4415815  64.1568938 125.9300271  16.3394506
  63.4529000 124.6828401  16.8301615  58.6051496 111.4505152  22.4790170
  59.2510359 110.9404106  22.9677395  58.3968647 112.1873834  23.0533595
  71.1304888 118.5186000  27.9782310  71.9996048 118.6926652  27.6168945
  70.6511639 119.3380417  27.8558040  67.1255106 105.7145197   8.2314066
  67.1133776 106.6587037   8.3882337  68.0178528 105.5315342   7.9373527
  65.2991068 125.6383101  19.6571744  66.2018315 125.6706711  19.9738239
  65.0728438 124.7083552  19.6718080  70.9407226 102.3087974  12.4860003
  70.1739621 101.7546460  12.6316685  71.3517931 102.3809842  13.3474154
  62.9448987 108.5972769  26.5765184  63.8080448 108.2409574  26.7868508
  62.3714397 108.2586664  27.2640588  79.2342009 127.7407619  24.8436627
  78.4575343 128.3001539  24.8339492  79.8732572 128.2264402  25.3651497
  76.2249745 127.7032720  25.2069904  75.5948405 128.3849001  25.4405301
  76.1185833 127.5915802  24.2623043  75.5030487 122.0053486  27.5695155
  75.1097433 121.4519685  28.2442800  76.3196628 122.3164065  27.9601673
  78.4198448 123.4211365  25.1615412  79.1608162 124.0218518  25.0819874
  78.6516371 122.6789003  24.6033455  73.5639786 128.6067732  23.4393642
  73.4493302 127.7052990  23.7400741  72.7084304 128.8531429  23.0878458
  80.2449905 123.2035259  22.3862708  79.5977820 123.9025208  22.2927185
  81.0150921 123.6371403  22.7538957  76.0863065 126.5501098  22.4378804
  75.5500422 126.0991836  23.0900400  75.4979774 126.6847007  21.6949268
  71.8202186 125.6857106  19.5231798  71.7360375 125.0782775  18.7882208
  70.9984893 126.1766124  19.5241295  80.2538927 130.0689966  26.0247283
  79.5779564 129.9684095  26.6949659  81.0766560 129.9129179  26.4883281
  73.9726203 123.7232043  20.8626784  74.0367529 124.5846874  20.4504182
  73.9093323 123.1106045  20.1299143  73.4478475 125.7955176  24.5099818
  74.0750514 125.4132253  25.1237343  72.5906394 125.5769377  24.8755511
  76.5564578 123.0142028  22.6986373  77.0798980 123.2604324  23.4612683
  76.3376912 123.8462063  22.2789511  71.1983858 129.3999397  22.4773164
  70.4565594 129.5482032  23.0637794  70.8776602 129.6607662  21.6139913
  76.6846532 125.1173082  26.1713738  76.7334688 125.9935204  25.7891508
  77.2269047 124.5750475  25.5985381  78.9145821 125.8704454  22.9260097
  78.0449130 126.1638020  22.6542685  79.1505301 126.4544899  23.6467360
  77.8106346 126.5556147  28.3593679  77.7103073 127.5050504  28.2905771
  77.5927888 126.2274385  27.4869750  77.6737616 129.9853285  27.1758741
  77.1904698 130.7853646  27.3822630  77.7598555 129.9961230  26.2226185
  69.4445250 126.7797070  22.4790170  70.0904114 126.2696024  22.9677395
  69.2362401 127.5165752  23.0533595  73.7842741 123.9264687  26.5765184
  74.6474203 123.5701492  26.7868508  73.2108152 123.5878582  27.2640588
  37.2856607  52.2379925  11.7626449  36.8420462  51.4516303  11.4447353
  37.9473821  52.4259075  11.0970340  39.3837846  52.5182725   9.7907850
  39.3656321  53.3391606   9.2988119  40.3057766  52.3936800  10.0157991
  35.8410900  50.0326854  10.6331359  36.3739237  49.2715142  10.4030666
  35.3124981  49.7400506  11.3755513  45.2338578  49.0071820   6.6117688
  45.4274468  49.9117631   6.8576963  45.1339196  48.5479239   7.4456273
  40.2953686  49.1578563  12.1858568  40.1439193  48.9289114  11.2688652
  40.2858366  50.1149164  12.1989913  42.0045893  52.1897685  10.2635050
  41.9458439  51.5056905   9.5965633  42.4065411  52.9316675   9.8115676
  42.0063300  50.1537269   8.4949030  41.1190079  49.8163191   8.6175429
  42.5761851  49.4220301   8.7317795  37.9963137  54.7125556   7.6168432
  38.7091110  55.3473020   7.5444333  37.5053166  54.8089422   6.8008434
  36.8963910  45.7584418  12.7492590  36.2204547  45.6578547  13.4194965
  37.7191544  45.6023631  13.2128587  35.6386693  57.0651345   6.9850206
  36.1905001  57.2282967   7.7499291  35.9792886  57.6555783   6.3130231
  40.4897567  51.8912603  12.8398860  41.0337471  52.5042561  12.3453815
  39.9084412  52.4492181  13.3565873  35.7852504  54.6309827   8.9998860
  36.0939630  54.3858973   9.8721560  36.5827986  54.8356465   8.5117731
  43.8126361  51.3508657  12.1760182  43.0221905  51.3332796  11.6364681
  43.5759716  51.8896950  12.9309218  43.9324236  48.2001123   9.4892910
  43.9822241  48.0351130  10.4308433  43.8238160  47.3328382   9.0990791
  41.2227999  44.1832051  10.8052217  42.1237862  44.0438516  10.5136215
  41.2975973  44.3486506  11.7450394  45.4342433  50.6198065   9.7334932
  45.1427242  50.9828045  10.5698393  44.8214565  49.9065073   9.5548264
  36.5841392  48.7616358  13.0513456  37.5044401  48.9394957  13.2453503
  36.5490975  47.8172403  12.8993155  34.3162600  45.6747737  13.9004048
  33.8329681  46.4748097  14.1067937  34.4023539  45.6855682  12.9471492
  38.6123626  49.5372369  14.7027617  39.4814785  49.7113022  14.3414252
  38.1330377  50.3566786  14.5803346  50.2716101  61.2460995   4.1072891
  50.9094511  61.1267743   3.4036232  50.1536944  62.1941839   4.1660844
  47.0805808  61.1988423   4.0434416  46.7424319  61.0829488   3.1554951
  47.9495576  60.7979589   4.0235422  47.5625591  62.3523275  10.0020622
  47.5514231  61.9576073   9.1301125  47.7246230  61.6189348  10.5954393
  40.4857055  64.5475091   2.8715528  41.2778347  64.2065916   2.4561827
  40.7253705  64.6570067   3.7917681  48.5192182  66.7194868  -4.6554228
  47.8680162  67.3048948  -5.0420214  49.3136545  67.2501062  -4.5959190
  44.2832852  65.1360387   8.9499806  43.9922718  66.0406018   8.8346472
  44.9189836  65.1776915   9.6643875  45.2089059  62.5137236   5.5401165
  45.8052631  62.2893258   4.8258128  45.2664030  61.7721981   6.1426613
  49.8257370  58.9712449   1.1826100  50.6120459  58.5531872   0.8316517
  50.0896074  59.8758541   1.3507748  55.2265797  58.9087682   2.0859078
  55.9590969  58.3386899   2.3196908  54.4705153  58.5209283   2.5265584
  46.8441917  61.3314924  -0.7177580  46.4800124  60.8045545  -0.0064658
  47.7009033  60.9413393  -0.8911094  52.7491217  52.6209257   6.5453687
  52.4174542  53.4904667   6.3214902  52.1536831  52.3045541   7.2247717
  49.2422737  64.8221803   5.9449599  48.9423460  65.7246841   5.8365407
  48.8973796  64.5553986   6.7970752  42.6935218  61.2735599   1.9786304
  41.7685715  61.1411813   2.1863996  42.9419632  62.0529819   2.4756246
  52.6419881  57.3404343   3.6247037  51.7336758  57.2719751   3.3305798
  52.5907476  57.8176288   4.4528862  40.0544029  60.9168873   2.8130093
  40.1836411  61.1703352   3.7269505  39.3741481  61.5096581   2.4934748
  44.2243517  71.5866123  -1.0879433  44.1467546  72.5373948  -1.0090952
  43.6205160  71.2411995  -0.4304507  46.7160746  58.7593988  11.5681934
  45.9394081  59.3187908  11.5584799  47.3551310  59.2450771  12.0896804
  54.5081527  55.5420781   5.4024911  53.8655907  55.8353314   4.7564705
  54.0036456  55.4273701   6.2078107  44.9707119  61.5679442  11.1299901
  45.7121803  62.1064486  10.8534725  44.2644104  62.1945730  11.2871453
  50.4462458  63.7108582   9.7272062  50.8545814  63.2690993   8.9826695
  49.7239720  63.1361210   9.9806255  46.7993528  58.6481189   7.1005619
  47.6454724  59.0720602   7.2440268  46.7392166  57.9914813   7.7944183
  50.7691273  64.2709773   3.4824351  50.1400135  64.4355487   2.7800419
  50.3816935  64.6851382   4.2535315  54.6480505  65.2064211   0.8368715
  53.9631543  65.5863112   0.2865748  54.7324354  65.8159537   1.5700663
  49.9492974  56.3085557   8.7586793  49.7053906  57.0627618   8.2221069
  50.2252904  56.6870905   9.5934040  51.9031437  62.8524170   7.4364059
  52.1148332  63.4955929   6.7598440  51.8561185  62.0186486   6.9685989
  49.5057666  55.4641990   4.3400631  48.6442145  55.7623244   4.6317368
  49.5320100  55.6812389   3.4081663  46.3219235  64.0084181   0.7474436
  46.7857580  64.2871884  -0.0420941  46.0576033  63.1067625   0.5647527
  43.2143316  63.5555662   3.6854200  43.7844673  63.9842931   3.0471684
  43.8051428  63.2738247   4.3838385  43.7068483  58.7219090  11.9315211
  43.0767143  59.4035371  12.1650608  43.6004570  58.6102171  10.9868349
  53.0177265  65.7296125   5.6086416  53.8394708  65.3276312   5.3269098
  53.0139667  65.6264359   6.5602532  46.7833868  65.2780168   7.7647126
  46.8478300  65.7400576   8.6005298  46.0744792  64.6477533   7.8929436
  37.2851158  58.6421376   5.2896126  37.5359196  59.5268386   5.5553702
  37.8210706  58.4625978   4.5171218  61.1083258  62.0734874   1.9571387
  60.3546966  61.5042272   1.8015392  61.2430799  62.0397538   2.9042022
  46.4981886  66.9448276  -2.3673893  46.3627560  67.7899812  -1.9389045
  47.0391698  67.1467553  -3.1307959  42.9849225  53.0239856  14.2940462
  42.5916171  52.4706054  14.9688106  43.8015366  53.3350434  14.6846980
  41.7606168  67.5789470   0.2876785  41.9372796  68.5007435   0.0997769
  42.5563001  67.2647889   0.7171165  45.9017186  54.4397735  11.8860719
  46.6426900  55.0404888  11.8065181  46.1335109  53.6975373  11.3278761
  41.0458524  59.6254102  10.1638948  40.9312039  58.7239359  10.4646047
  40.1903042  59.8717799   9.8123765  48.1250362  67.5671842  11.7626449
  47.6814216  66.7808221  11.4447353  48.7867576  67.7550993  11.0970340
  42.8837483  69.0967644   6.2887127  43.4344908  68.9684707   5.5164121
  42.0448959  69.3962533   5.9382020  50.2231600  67.8474642   9.7907850
  50.2050075  68.6683523   9.2988119  51.1451520  67.7228717  10.0157991
  46.6804654  65.3618772  10.6331359  47.2132991  64.6007060  10.4030666
  46.1518735  65.0692424  11.3755513  49.8474349  50.4678838   6.1625000
  49.5038619  51.3580479   6.0864111  50.2153312  50.2780495   5.2994585
  48.9270890  52.8383493   4.1274234  48.4235685  52.8013628   3.3142039
  49.2201496  53.7476236   4.1870890  54.7858906  63.2119803  -3.3949391
  54.0088349  62.8730963  -3.8394229  55.4650387  63.2172427  -4.0694426
  48.0457367  64.4904764  -1.8549829  47.5178728  63.7557524  -2.1676592
  47.5444870  65.2679441  -2.1009861  53.0250213  62.6853785   3.2617217
  52.3673887  63.3753046   3.3497345  53.8290612  63.0750217   3.6051203
  51.8355672  61.0398157   1.3121159  52.3487553  61.6728149   1.8142868
  52.4856896  60.4399353   0.9464519  49.0978046  71.0182482  -5.9318170
  48.4239745  71.3214178  -5.3233212  49.4843868  71.8211562  -6.2812713
  48.3136503  58.5147613   3.5579499  47.3959064  58.7362560   3.4001187
  48.7296646  58.5893923   2.6991206  49.0971550  59.9139029  -1.3117821
  49.8443369  60.4260426  -1.6210699  49.3663140  59.5923081  -0.4513427
  52.6017468  66.0204159  -0.5599699  52.1479795  65.1795069  -0.5034508
  51.9711435  66.6565557  -0.2224919  51.5450388  56.9496145   0.6700969
  50.8073144  56.4373531   1.0011211  51.7977161  56.5096526  -0.1415754
  51.0450407  67.8580656   0.3750119  51.3373382  68.4185713  -0.3437515
  51.5549028  68.1509217   1.1303278  45.9183095  60.0226190   1.7718929
  45.9731704  59.0700026   1.6961406  45.1074297  60.1785629   2.2560227
  46.0084032  68.6361007   1.4643573  45.9660211  68.8621853   0.5352105
  46.9246731  68.4024381   1.6129374  49.4549666  59.1045074   8.3624202
  49.8099054  59.3316547   9.2218668  50.1021797  59.4363451   7.7401457
  55.1847403  62.2263510  -0.9326469  55.0465302  62.4165106  -1.8605280
  54.8283622  62.9882893  -0.4758418  43.3489529  56.2121605   5.1470543
  43.9888909  56.0710364   4.4493506  42.5167060  55.9256119   4.7709145
  55.2116783  64.2940037   4.0784802  55.6453289  64.2015326   4.9267856
  55.9248363  64.2697538   3.4404818  44.1249833  65.5124036   1.2605535
  44.9190432  65.0174356   1.0588110  43.4141526  64.9841899   0.8973241
  48.9444678  67.8942131   5.6117903  48.9981700  68.4633067   6.3795619
  48.0759459  68.0644016   5.2471940  41.8243071  57.5959687   7.0942354
  42.4966124  57.3877050   6.4455003  40.9972858  57.3981773   6.6547586
  56.0732332  64.3363738   6.6117688  56.2668222  65.2409548   6.8576963
  55.9732950  63.8771157   7.4456273  47.7268643  54.2221628   9.1108015
  47.0796558  54.9211578   9.0172491  48.4969658  54.6557772   9.4784263
  51.1347441  64.4870480  12.1858568  50.9832947  64.2581032  11.2688652
  51.1252120  65.4441082  12.1989913  47.9032777  62.0602393   7.1704835
  48.8324837  62.2113553   6.9973802  47.4823807  62.1486414   6.3153481
  46.7021109  66.0853058   4.9403372  46.5632195  65.7171842   5.8129310
  45.9135705  66.6000697   4.7687330  47.2969261  71.1862154  -3.7171091
  47.4721017  70.7150197  -2.9025468  46.6102049  71.8127920  -3.4889830
  48.2526324  65.4634660   2.3292210  47.9176157  65.4235430   3.2249860
  47.7530270  64.7979376   1.8562620  42.2270568  60.8702290   7.8544791
  42.0890366  60.1382529   8.4556330  43.1375492  60.7811190   7.5728979
  44.8552869  60.5822250   7.3428471  45.5652487  59.9415442   7.3015089
  44.8122177  60.8335145   8.2654652  52.8439648  67.5189603  10.2635050
  52.7852194  66.8348823   9.5965633  53.2459166  68.2608593   9.8115676
  43.5681803  57.5687468   9.1624110  43.0319160  57.1178206   9.8145707
  42.9798511  57.7033376   8.4194575  41.8630346  74.3351517   3.0568769
  42.1026945  74.9670041   3.7347788  41.0199543  73.9839557   3.3434128
  52.8457055  65.4829187   8.4949030  51.9583834  65.1455109   8.6175429
  53.4155606  64.7512218   8.7317795  39.3020924  56.7043475   6.2477105
  39.2179113  56.0969145   5.5127515  38.4803631  57.1952494   6.2486601
  46.3758208  70.1430639   5.4610273  46.3028380  70.9485611   5.9729578
  45.9335601  70.3422605   4.6358294  46.1647988  69.3802409  -1.0286905
  45.3815510  69.9224090  -0.9348681  46.8640733  69.8976389  -0.6292664
  57.3274395  60.8937404   3.2565592  57.3164272  61.7762120   2.8859525
  56.4591775  60.5408955   3.0620129  48.8356892  70.0417473   7.6168432
  49.5484864  70.6764938   7.5444333  48.3446920  70.1381339   6.8008434
  50.5574419  63.9468726  -0.8114277  49.6230697  64.0670188  -0.9809572
  50.7351087  63.0441193  -1.0754267  53.9446970  59.7886045  -0.2764242
  54.4107422  60.6214037  -0.3503940  54.3954471  59.3231027   0.4281016
  43.8868805  67.7911917   8.4374003  44.5878265  68.4248400   8.5903397
  43.4163920  68.1326648   7.6769642  52.0123201  66.1329867  -3.2778090
  52.2883045  66.0186461  -2.3684216  51.1427700  65.7347351  -3.3165917
  51.9163633  52.1566632   3.7626659  51.0026713  52.3870859   3.9308866
  52.3456734  52.2405076   4.6140691  51.6870091  60.3456524   6.2626553
  51.0341542  60.5932432   5.6079006  52.0650471  59.5320662   5.9289030
  48.6477265  70.3816217   0.3654723  48.8299660  69.5637873   0.8282476
  49.4710251  70.5983910  -0.0720387  48.9819431  69.3084403  -2.3730228
  49.5107197  68.7976857  -2.9860066  49.2447650  68.9926933  -1.5084695
  47.7357664  61.0876335  12.7492590  47.0598301  60.9870465  13.4194965
  48.5585298  60.9315549  13.2128587  39.4836523  67.3248272   5.3705105
  40.0689960  66.5791960   5.5033009  39.2861362  67.6352229   6.2541769
  42.3375179  70.3599519   0.3867548  41.6685554  70.8445647  -0.0968412
  42.1988048  70.6068740   1.3010926  46.4780447  72.3943263   6.9850206
  47.0298755  72.5574884   7.7499291  46.8186641  72.9847701   6.3130231
  41.4544940  54.7418413   7.5872091  41.5186267  55.6033243   7.1749488
  41.3912061  54.1292414   6.8544449  40.9297213  56.8141545  11.2345125
  41.5569252  56.4318622  11.8482649  40.0725132  56.5955747  11.6000817
  51.3291322  67.2204520  12.8398860  51.8731225  67.8334479  12.3453815
  50.7478166  67.7784099  13.3565873  49.6148834  70.3425238   3.9713888
  49.4899974  69.5414978   3.4624834  50.2727926  70.8371432   3.4827858
  51.6783743  68.1434258   5.5993438  50.7314078  68.0239610   5.5271765
  52.0266516  67.2556756   5.6819700  44.0383316  54.0328397   9.4231680
  44.5617718  54.2790694  10.1857989  43.8195649  54.8648432   9.0034817
  48.6830176  67.9386975   1.7997790  48.5355139  67.0103682   1.9805360
  49.5083670  67.9607065   1.3154866  52.2864298  68.7615533   2.8862663
  53.2110845  68.5558395   2.7487114  52.1179601  68.5131934   3.7952005
  45.2435861  54.9742092   7.1081351  44.9032682  54.1749905   7.5102031
  44.5374868  55.2743803   6.5358184  45.8952333  52.0591405   5.5608674
  46.7178402  51.5851883   5.4387564  46.1390397  52.8381889   6.0607360
  43.4190912  58.7510525   3.3700652  43.2735493  59.0650829   4.2624934
  42.9416115  59.3695426   2.8171551  45.2787295  55.7413073   3.4181542
  45.2648863  54.8454167   3.0813840  45.9959723  55.7483737   4.0519828
  47.1313425  56.1750414   5.4634669  46.8731203  57.0967484   5.4619000
  46.5998466  55.7780848   6.1535133  52.0759614  69.2801201  -1.7575245
  52.2496492  68.7147623  -2.5101393  52.5688505  70.0802096  -1.9395755
  37.8936574  61.2915870   6.3088313  37.3490042  62.0675678   6.4408588
  38.7715924  61.6386674   6.1507435  57.9299005  62.0437624  -0.1384946
  58.3730151  61.2944949  -0.5365822  57.0525516  62.0347760  -0.5211214
  53.0634787  68.5967965  -4.6578347  53.7585691  69.2174658  -4.4391032
  53.4057937  67.7463316  -4.3825969  38.6802596  60.4185766   9.2018470
  37.9384332  60.5668401   9.7883101  38.3595340  60.6794032   8.3385220
  54.9626210  66.0467671  -3.1291016  55.4877534  66.3854943  -3.8541696
  54.8748562  65.1114686  -3.3127882  46.6246259  69.9601744   8.9998860
  46.9333385  69.7150891   9.8721560  47.4221741  70.1648383   8.5117731
  46.6466871  72.1139654   1.2304237  46.2071861  71.6216033   1.9237094
  47.3974988  71.5712622   0.9896312  39.1259210  68.3051195   1.2328865
  39.9517229  68.0054967   0.8527508  38.7753262  67.5358817   1.6818654
  44.0940743  67.6577663   3.3026539  43.4720752  66.9948368   3.0028766
  44.7645610  67.6838795   2.6200186  37.3267815  66.2237521   2.1917799
  36.4899723  65.7959696   2.0101800  37.2991460  66.4169965   3.1288590
  44.1665270  56.1359451  12.8959045  44.2153426  57.0121574  12.5136814
  44.7087784  55.5936844  12.3230688  54.6520116  66.6800574  12.1760182
  53.8615660  66.6624713  11.6364681  54.4153470  67.2188868  12.9309218
  54.7717991  63.5293041   9.4892910  54.8215996  63.3643048  10.4308433
  54.6631914  62.6620300   9.0990791  52.0621753  59.5123969  10.8052217
  52.9631616  59.3730434  10.5136215  52.1369728  59.6778424  11.7450394
  46.3964559  56.8890823   9.6505403  45.5267868  57.1824390   9.3787992
  46.6324039  57.4731268  10.3712667  56.2736188  65.9489982   9.7334932
  55.9820996  66.3119963  10.5698393  55.6608319  65.2356991   9.5548264
  57.4731870  63.5142862   2.2537502  58.3078761  63.9532666   2.4175062
  57.6090999  63.0381515   1.4345748  54.5223376  61.0722597   8.2014990
  54.9977498  61.2650243   7.3933841  53.5988941  61.1281783   7.9558373
  49.1003592  53.1070440   7.1670824  49.6185536  53.8431467   6.8417312
  48.7458725  53.4134434   8.0017583  53.2225045  57.9488357   6.4343295
  54.1742468  58.0486455   6.4555519  53.0528495  57.1566625   6.9441380
  51.2439424  55.0343940   6.6202696  50.6489357  55.3148953   5.9249185
  50.9589121  55.5237841   7.3919437  50.3746915  68.9866867  -4.6194671
  51.3077588  68.9212429  -4.4161796  50.2870128  69.8223134  -5.0780139
  53.0034932  68.3032737  -7.6590724  52.9248563  67.9692601  -6.7654966
  53.8244598  68.7954505  -7.6599251  55.7013123  61.1694477   5.5485595
  55.6689443  60.2310477   5.7345279  56.3113746  61.2478513   4.8151420
  55.8507611  57.9605520   5.5943878  55.3346660  57.1763977   5.4073807
  56.7347560  57.6324237   5.7590398  53.5118338  51.7046536   1.5539691
  53.3143159  51.3961624   2.4383023  54.1218044  52.4308175   1.6837621
  61.5189673  62.2310483   4.6891632  62.2493061  61.9695772   5.2499335
  60.9096618  61.4939205   4.7293700  59.6004970  60.3718346   5.2866083
  58.8738133  60.2374311   4.6782575  59.1852257  60.6795175   6.0922801
  47.4235146  64.0908276  13.0513456  48.3438156  64.2686875  13.2453503
  47.3884729  63.1464321  12.8993155  40.4197219  62.0009310   5.6936237
  40.6383229  62.9326418   5.7124271  40.8322993  61.6417285   6.4791041
  45.2925084  57.5742516  15.0838986  45.1921811  58.5236873  15.0151077
  45.0746626  57.2460755  14.2115056  36.5105571  62.9049781   3.9459852
  35.8169043  62.4903734   3.4329807  37.2578562  62.9470317   3.3493271
  45.1556354  61.0039655  13.9004048  44.6723436  61.8040015  14.1067937
  45.2417293  61.0147600  12.9471492  41.0829692  64.8944190   5.9372482
  42.0372945  64.8628132   5.8702413  40.8842215  64.4334813   6.7522707
  41.6729074  63.4645306   8.5043279  42.4921963  63.9589384   8.5278116
  41.9465881  62.5477274   8.4760847  54.7810206  55.8802579   1.5825574
  55.5570596  56.3699031   1.8550191  54.0558340  56.3060633   2.0397443
  57.2182765  56.5930198   2.6399515  57.8127255  56.3525934   1.9292823
  57.2909348  55.8737329   3.2673051  39.4379920  70.4363809   2.9542679
  39.3034388  69.6764210   2.3880677  39.0211983  71.1604709   2.4871468
  51.4036694  61.3710594  -1.9178475  51.3471895  61.8279145  -2.7570843
  51.9565036  60.6101279  -2.0955632  55.2141500  57.1600326  -1.0928356
  54.9578434  56.7596962  -0.2620148  54.5894368  57.8744120  -1.2178216
  59.5253837  59.8996399   1.4142936  58.9653395  59.9689588   2.1874498
  58.9197341  59.7237384   0.6942432  42.5949046  71.3333126   3.1661122
  42.4781430  72.2778559   3.0639812  41.7741493  71.0306688   3.5546921
  52.4825581  66.0583262  -5.9882285  53.3171185  65.6264460  -6.1704810
  52.3209924  65.8865276  -5.0605391  36.9263988  57.7983440   9.2035476
  37.5722852  57.2882394   9.6922701  36.7181139  58.5352121   9.7778902
  49.4517380  64.8664287  14.7027617  50.3208540  65.0404939  14.3414252
  48.9724132  65.6858704  14.5803346  43.6203560  71.9861388   6.3817050
  44.5230807  72.0184998   6.6983545  43.3940930  71.0561839   6.3963386
  45.3757162  70.7392375   3.0427129  44.4252793  70.7394236   2.9291501
  45.6789649  69.9925109   2.5263164  41.2661479  54.9451057  13.3010490
  42.1292941  54.5887862  13.5113815  40.6926890  54.6064952  13.9885895
  61.1109856  76.5752913   4.1072891  61.7488266  76.4559660   3.4036232
  60.9930699  77.5233757   4.1660844  57.9199562  76.5280341   4.0434416
  57.5818074  76.4121406   3.1554951  58.7889330  76.1271506   4.0235422
  53.7786378  78.3815818   0.0331307  53.2151243  78.2905754  -0.7352405
  53.6638773  77.5615722   0.5133800  58.4019345  77.6815193  10.0020622
  58.3907986  77.2867991   9.1301125  58.5639985  76.9481265  10.5954393
  51.3250810  79.8767009   2.8715528  52.1172102  79.5357834   2.4561827
  51.5647460  79.9861984   3.7917681  59.3585937  82.0486785  -4.6554228
  58.7073916  82.6340866  -5.0420214  60.1530299  82.5792980  -4.5959190
  53.2841564  79.1375922  -4.2567094  54.0572440  78.5904909  -4.3954218
  53.6366963  80.0020172  -4.0452632  55.1226606  80.4652305   8.9499806
  54.8316472  81.3697936   8.8346472  55.7583591  80.5068832   9.6643875
  56.0482813  77.8429153   5.5401165  56.6446385  77.6185176   4.8258128
  56.1057785  77.1013899   6.1426613  55.6207842  75.2968589  -6.6248644
  55.8733362  74.7750110  -7.3865181  54.6832401  75.1334734  -6.5221960
  60.6651124  74.3004367   1.1826100  61.4514214  73.8823790   0.8316517
  60.9289829  75.2050459   1.3507748  60.8361202  79.7377217  -4.1185244
  60.2007035  79.8111844  -3.4064339  60.5058608  80.3270816  -4.7966164
  66.0659552  74.2379600   2.0859078  66.7984723  73.6678817   2.3196908
  65.3098907  73.8501201   2.5265584  55.3404130  77.1996694  -4.4224269
  55.2240388  76.5241598  -3.7543184  55.4506390  76.7129068  -5.2392116
  57.6835671  76.6606842  -0.7177580  57.3193878  76.1337463  -0.0064658
  58.5402787  76.2705311  -0.8911094  63.5884972  67.9501174   6.5453687
  63.2568297  68.8196585   6.3214902  62.9930585  67.6337458   7.2247717
  57.3241158  71.6896741  -5.7216231  57.4915561  72.5576978  -5.3545760
  57.1338327  71.8524023  -6.6454942  60.0816491  80.1513720   5.9449599
  59.7817214  81.0538759   5.8365407  59.7367551  79.8845903   6.7970752
  53.5328973  76.6027517   1.9786304  52.6079469  76.4703731   2.1863996
  53.7813386  77.3821736   2.4756246  63.4813635  72.6696260   3.6247037
  62.5730513  72.6011669   3.3305798  63.4301231  73.1468205   4.4528862
  57.3030379  74.1454399  -4.7369564  57.1830004  74.5911450  -3.8984084
  56.6082967  74.4939716  -5.2956026  50.8937784  76.2460791   2.8130093
  51.0230165  76.4995270   3.7269505  50.2135235  76.8388499   2.4934748
  55.0637271  86.9158041  -1.0879433  54.9861301  87.8665866  -1.0090952
  54.4598915  86.5703913  -0.4304507  57.5554501  74.0885906  11.5681934
  56.7787835  74.6479826  11.5584799  58.1945064  74.5742689  12.0896804
  65.3475282  70.8712699   5.4024911  64.7049662  71.1645232   4.7564705
  64.8430210  70.7565619   6.2078107  63.0015445  74.6175872  -3.9089230
  63.9133301  74.8503259  -4.0841533  62.4925092  75.2012916  -4.4714152
  55.8100873  76.8971359  11.1299901  56.5515558  77.4356403  10.8534725
  55.1037859  77.5237648  11.2871453  61.2856213  79.0400500   9.7272062
  61.6939569  78.5982910   8.9826695  60.5633474  78.4653127   9.9806255
  57.6387283  73.9773107   7.1005619  58.4848478  74.4012520   7.2440268
  57.5785921  73.3206731   7.7944183  61.6085028  79.6001690   3.4824351
  60.9793890  79.7647405   2.7800419  61.2210690  80.0143300   4.2535315
  65.4874259  80.5356128   0.8368715  64.8025298  80.9155030   0.2865748
  65.5718109  81.1451455   1.5700663  60.7886728  71.6377475   8.7586793
  60.5447660  72.3919535   8.2221069  61.0646659  72.0162823   9.5934040
  62.7425191  78.1816087   7.4364059  62.9542086  78.8247847   6.7598440
  62.6954939  77.3478404   6.9685989  60.3451420  70.7933908   4.3400631
  59.4835899  71.0915161   4.6317368  60.3713855  71.0104307   3.4081663
  57.1612989  79.3376098   0.7474436  57.6251335  79.6163801  -0.0420941
  56.8969788  78.4359543   0.5647527  54.0537070  78.8847580   3.6854200
  54.6238428  79.3134848   3.0471684  54.6445182  78.6030165   4.3838385
  56.0981875  75.4599251  -2.4435998  56.8005919  75.9120295  -1.9762072
  55.7662504  74.8183070  -1.8156105  54.5462237  74.0511007  11.9315211
  53.9160898  74.7327288  12.1650608  54.4398325  73.9394089  10.9868349
  49.8407209  73.7182804   2.8581135  49.0506263  73.9740332   2.3821246
  50.3318457  74.5331141   2.9633176  63.8571019  81.0588043   5.6086416
  64.6788463  80.6568230   5.3269098  63.8533422  80.9556277   6.5602532
  51.7921955  74.0827383  -0.1835388  50.9953118  74.1946077   0.3348108
  51.5647547  74.4214035  -1.0494498  57.6227622  80.6072086   7.7647126
  57.6872055  81.0692493   8.6005298  56.9138546  79.9769451   7.8929436
  48.1244912  73.9713294   5.2896126  48.3752951  74.8560304   5.5553702
  48.6604461  73.7917896   4.5171218  71.9477012  77.4026791   1.9571387
  71.1940720  76.8334189   1.8015392  72.0824553  77.3689456   2.9042022
  57.3375640  82.2740193  -2.3673893  57.2021315  83.1191729  -1.9389045
  57.8785453  82.4759471  -3.1307959  53.8242980  68.3531773  14.2940462
  53.4309925  67.7997972  14.9688106  54.6409120  68.6642352  14.6846980
  50.7905037  79.7915632  -1.7945968  51.3029558  80.5858882  -1.6440403
  51.4427750  79.0941922  -1.8612367  52.5999922  82.9081388   0.2876785
  52.7766551  83.8299353   0.0997769  53.3956756  82.5939807   0.7171165
  56.7410941  69.7689652  11.8860719  57.4820654  70.3696806  11.8065181
  56.9728864  69.0267290  11.3278761  51.8852279  74.9546020  10.1638948
  51.7705794  74.0531277  10.4646047  51.0296796  75.2009716   9.8123765
  58.9644116  82.8963760  11.7626449  58.5207971  82.1100139  11.4447353
  59.6261330  83.0842911  11.0970340  53.7231238  84.4259562   6.2887127
  54.2738663  84.2976625   5.5164121  52.8842714  84.7254451   5.9382020
  61.0625355  83.1766560   9.7907850  61.0443830  83.9975441   9.2988119
  61.9845275  83.0520635  10.0157991  57.5198409  80.6910689  10.6331359
  58.0526745  79.9298978  10.4030666  56.9912490  80.3984341  11.3755513
  60.6868104  65.7970755   6.1625000  60.3432373  66.6872397   6.0864111
  61.0547066  65.6072413   5.2994585  48.7553954  78.1204286  -1.0186398
  49.5929176  78.5301294  -1.2352690  48.9332222  77.1803728  -1.0486204
  60.6518386  75.7879366  -5.3302565  60.1365010  76.5583971  -5.0914177
  60.3795695  75.1144503  -4.7069503  58.2365497  70.6329067  -0.2717326
  57.3807094  70.2435918  -0.4511688  58.6492449  70.7121028  -1.1317541
  59.7664644  68.1675411   4.1274234  59.2629440  68.1305546   3.3142039
  60.0595251  69.0768153   4.1870890  56.0107530  68.2514140   3.1340415
  56.8760527  68.0556949   2.7746305  56.0785039  68.0224492   4.0609772
  65.6252661  78.5411721  -3.3949391  64.8482103  78.2022881  -3.8394229
  66.3044141  78.5464344  -4.0694426  60.4404690  73.6606459  -3.5042783
  60.1354825  73.9752608  -2.6532640  61.3935132  73.7387878  -3.4615450
  58.8851121  79.8196682  -1.8549829  58.3572483  79.0849441  -2.1676592
  58.3838624  80.5971358  -2.1009861  63.8643967  78.0145702   3.2617217
  63.2067642  78.7044964   3.3497345  64.6684367  78.4042134   3.6051203
  53.6169849  70.4816348   0.5056782  54.1913601  70.2591530  -0.2270025
  54.2040831  70.5505043   1.2585383  62.6749426  76.3690075   1.3121159
  63.1881308  77.0020067   1.8142868  63.3250650  75.7691271   0.9464519
  53.9439436  72.5120809  -5.4747333  53.1076748  72.8495496  -5.1538058
  53.8044206  72.3769789  -6.4120196  55.9192517  67.3557597  -0.7668149
  55.2656929  67.0406614  -1.3911534  55.8772991  66.7333338  -0.0408326
  57.0303722  77.6376892  -8.8514856  56.1230783  77.4066146  -8.6523707
  57.5274754  76.8414511  -8.6640875  59.9371800  86.3474399  -5.9318170
  59.2633499  86.6506096  -5.3233212  60.3237622  87.1503480  -6.2812713
  59.1530257  73.8439531   3.5579499  58.2352818  74.0654478   3.4001187
  59.5690401  73.9185841   2.6991206  59.9365305  75.2430946  -1.3117821
  60.6837124  75.7552344  -1.6210699  60.2056894  74.9214999  -0.4513427
  58.2091955  77.7389487  -4.3290866  57.3003174  77.4548520  -4.2318397
  58.2387039  78.1588566  -5.1887559  63.4411222  81.3496077  -0.5599699
  62.9873550  80.5086986  -0.5034508  62.8105189  81.9857475  -0.2224919
  62.3844142  72.2788063   0.6700969  61.6466899  71.7665449   1.0011211
  62.6370916  71.8388444  -0.1415754  61.8844162  83.1872573   0.3750119
  62.1767136  83.7477630  -0.3437515  62.3942782  83.4801134   1.1303278
  62.4855769  65.0564315   1.2642738  62.7914646  64.1961678   0.9768653
  63.2108374  65.6481935   1.0641732  48.7780125  75.4595001  -0.3475664
  48.5804525  74.8664362  -1.0724598  48.2226789  75.1547211   0.3700275
  56.7576849  75.3518108   1.7718929  56.8125459  74.3991944   1.6961406
  55.9468051  75.5077547   2.2560227  57.9068043  79.2798231  -6.9902788
  57.4687473  78.5634090  -7.4497150  58.6478484  79.5074346  -7.5517696
  54.6969209  73.9695167  -0.4690692  53.8837075  74.2689338  -0.0625500
  55.1928203  73.5750856   0.2483790  56.8477787  83.9652924   1.4643573
  56.8053966  84.1913771   0.5352105  57.7640486  83.7316299   1.6129374
  60.2943421  74.4336992   8.3624202  60.6492808  74.6608465   9.2218668
  60.9415552  74.7655369   7.7401457  66.0241158  77.5555428  -0.9326469
  65.8859056  77.7457024  -1.8605280  65.6677376  78.3174811  -0.4758418
  54.1883284  71.5413523   5.1470543  54.8282663  71.4002282   4.4493506
  53.3560814  71.2548036   4.7709145  66.0510537  79.6231955   4.0784802
  66.4847044  79.5307244   4.9267856  66.7642118  79.5989455   3.4404818
  54.9643588  80.8415953   1.2605535  55.7584186  80.3466273   1.0588110
  54.2535280  80.3133816   0.8973241  59.7838432  83.2234049   5.6117903
  59.8375454  83.7924985   6.3795619  58.9153213  83.3935934   5.2471940
  51.2726351  74.9859035  -2.6634712  50.3423939  74.9243491  -2.4464750
  51.3683823  74.4634988  -3.4598071  51.1911900  71.5113848  -0.0756470
  51.4518717  72.4259181  -0.1847310  52.0129072  71.0438290   0.0740142
  52.6636825  72.9251605   7.0942354  53.3359879  72.7168967   6.4455003
  51.8366612  72.7273691   6.6547586  66.9126087  79.6655655   6.6117688
  67.1061977  80.5701466   6.8576963  66.8126705  79.2063074   7.4456273
  58.5662398  69.5513546   9.1108015  57.9190313  70.2503496   9.0172491
  59.3363413  69.9849690   9.4784263  61.9741195  79.8162398  12.1858568
  61.8226702  79.5872950  11.2688652  61.9645875  80.7733000  12.1989913
  58.7426532  77.3894311   7.1704835  59.6718592  77.5405470   6.9973802
  58.3217562  77.4778332   6.3153481  57.5414864  81.4144975   4.9403372
  57.4025949  81.0463760   5.8129310  56.7529460  81.9292615   4.7687330
  58.1363016  86.5154072  -3.7171091  58.3114771  86.0442115  -2.9025468
  57.4495804  87.1419838  -3.4889830  59.0920079  80.7926578   2.3292210
  58.7569911  80.7527348   3.2249860  58.5924024  80.1271294   1.8562620
  53.0664323  76.1994208   7.8544791  52.9284121  75.4674447   8.4556330
  53.9769246  76.1103108   7.5728979  62.0279270  78.1382612  -7.3970730
  61.4108441  77.4129440  -7.4937677  61.5595759  78.8991973  -7.7403656
  55.6946623  75.9114167   7.3428471  56.4046242  75.2707360   7.3015089
  55.6515932  76.1627062   8.2654652  63.6833402  82.8481521  10.2635050
  63.6245948  82.1640741   9.5965633  64.0852920  83.5900511   9.8115676
  54.4075557  72.8979385   9.1624110  53.8712914  72.4470124   9.8145707
  53.8192266  73.0325294   8.4194575  52.7024101  89.6643435   3.0568769
  52.9420699  90.2961959   3.7347788  51.8593297  89.3131475   3.3434128
  53.8177816  72.3568037  -8.2749426  52.9407283  72.2356837  -8.6387179
  54.2935569  71.5654115  -8.5270537  63.6850809  80.8121105   8.4949030
  62.7977588  80.4747026   8.6175429  64.2549360  80.0804136   8.7317795
  45.3379956  77.1445196   1.8192081  46.0250996  76.8306926   1.2313097
  45.1828085  78.0486561   1.5459333  50.1414679  72.0335393   6.2477105
  50.0572867  71.4261062   5.5127515  49.3197385  72.5244411   6.2486601
  57.2151963  85.4722557   5.4610273  57.1422134  86.2777528   5.9729578
  56.7729356  85.6714523   4.6358294  57.0041742  84.7094327  -1.0286905
  56.2209264  85.2516007  -0.9348681  57.7034488  85.2268307  -0.6292664
  60.3138392  70.5188956   1.6147300  60.8107092  69.7658919   1.2948370
  59.5425374  70.5553273   1.0490509  68.1668150  76.2229322   3.2565592
  68.1558026  77.1054037   2.8859525  67.2985529  75.8700873   3.0620129
  59.6750646  85.3709391   7.6168432  60.3878618  86.0056856   7.5444333
  59.1840675  85.4673257   6.8008434  61.3968173  79.2760644  -0.8114277
  60.4624452  79.3962106  -0.9809572  61.5744842  78.3733110  -1.0754267
  56.8973361  72.6606339   1.3418985  56.5271149  72.1077380   2.0299890
  57.3932454  72.0564473   0.7893985  64.7840725  75.1177963  -0.2764242
  65.2501177  75.9505955  -0.3503940  65.2348225  74.6522945   0.4281016
  54.7262560  83.1203834   8.4374003  55.4272019  83.7540317   8.5903397
  54.2557675  83.4618566   7.6769642  62.8516956  81.4621784  -3.2778090
  63.1276800  81.3478379  -2.3684216  61.9821454  81.0639269  -3.3165917
  62.7557387  67.4858550   3.7626659  61.8420467  67.7162777   3.9308866
  63.1850489  67.5696994   4.6140691  62.5263846  75.6748442   6.2626553
  61.8735296  75.9224349   5.6079006  62.9044226  74.8612580   5.9289030
  59.4871020  85.7108135   0.3654723  59.6693414  84.8929791   0.8282476
  60.3104006  85.9275827  -0.0720387  59.8213185  84.6376320  -2.3730228
  60.3500952  84.1268775  -2.9860066  60.0841405  84.3218850  -1.5084695
  58.5751419  76.4168253  12.7492590  57.8992056  76.3162382  13.4194965
  59.3979053  76.2607467  13.2128587  50.3230278  82.6540190   5.3705105
  50.9083715  81.9083877   5.5033009  50.1255116  82.9644146   6.2541769
  53.1768933  85.6891437   0.3867548  52.5079308  86.1737565  -0.0968412
  53.0381803  85.9360657   1.3010926  44.9147933  75.2245790   4.0909548
  44.9532032  74.6909380   4.8846666  44.4088225  74.6980995   3.4720526
  57.3174202  87.7235180   6.9850206  57.8692510  87.8866802   7.7499291
  57.6580395  88.3139618   6.3130231  52.2938695  70.0710330   7.5872091
  52.3580021  70.9325161   7.1749488  52.2305815  69.4584332   6.8544449
  51.7690967  72.1433463  11.2345125  52.3963006  71.7610540  11.8482649
  50.9118886  71.9247665  11.6000817  62.1685076  82.5496438  12.8398860
  62.7124980  83.1626396  12.3453815  61.5871921  83.1076016  13.3565873
  48.5456510  73.9509892  -2.8336520  48.8409951  73.0420570  -2.8869467
  47.6444546  73.9297631  -3.1555518  60.4542589  85.6717156   3.9713888
  60.3293728  84.8706896   3.4624834  61.1121680  86.1663349   3.4827858
  52.0750757  72.0265888   3.1491028  51.3537343  72.6401856   3.0098502
  52.8644013  72.5623653   3.0707674  62.5177497  83.4726176   5.5993438
  61.5707833  83.3531527   5.5271765  62.8660270  82.5848674   5.6819700
  54.8777071  69.3620315   9.4231680  55.4011473  69.6082611  10.1857989
  54.6589404  70.1940350   9.0034817  50.2744352  71.6323990  -2.7097195
  49.9457058  70.7521368  -2.8922089  50.6283722  71.5771658  -1.8220806
  59.5223931  83.2678892   1.7997790  59.3748893  82.3395600   1.9805360
  60.3477424  83.2898983   1.3154866  53.3886175  71.9196959  -2.3421717
  53.7282247  72.4482881  -3.0643109  53.8358295  72.2577365  -1.5663151
  63.1258052  84.0907451   2.8862663  64.0504600  83.8850312   2.7487114
  62.9573356  83.8423852   3.7952005  56.0829616  70.3034010   7.1081351
  55.7426436  69.5041823   7.5102031  55.3768622  70.6035721   6.5358184
  56.7346088  67.3883322   5.5608674  57.5572157  66.9143801   5.4387564
  56.9784151  68.1673806   6.0607360  55.3754322  70.4171581  -4.1428425
  56.0962685  70.7952834  -4.6464708  54.7519626  71.1360458  -4.0393447
  59.5185445  71.1216730  -3.2070092  59.7349059  72.0041368  -3.5081264
  59.0379512  70.7302943  -3.9364450  54.2584666  74.0802443   3.3700652
  54.1129247  74.3942746   4.2624934  53.7809870  74.6987343   2.8171551
  56.1181049  71.0704991   3.4181542  56.1042618  70.1746084   3.0813840
  56.8353477  71.0775655   4.0519828  57.9707180  71.5042331   5.4634669
  57.7124958  72.4259402   5.4619000  57.4392220  71.1072766   6.1535133
  62.9153369  84.6093118  -1.7575245  63.0890246  84.0439541  -2.5101393
  63.4082260  85.4094013  -1.9395755  48.7330328  76.6207788   6.3088313
  48.1883797  77.3967595   6.4408588  49.6109678  76.9678592   6.1507435
  55.5217945  69.9519371  -1.3130888  55.6433856  69.0236018  -1.1140001
  55.2319988  69.9658057  -2.2252573  58.3909136  67.6374282   1.8235832
  58.4130832  67.7013615   0.8687811  58.8077195  66.7978790   2.0176338
  68.7692760  77.3729541  -0.1384946  69.2123906  76.6236867  -0.5365822
  67.8919270  77.3639678  -0.5211214  63.9028541  83.9259883  -4.6578347
  64.5979446  84.5466576  -4.4391032  64.2451691  83.0755234  -4.3825969
  49.5196350  75.7477684   9.2018470  48.7778086  75.8960319   9.7883101
  49.1989095  76.0085949   8.3385220  65.8019964  81.3759588  -3.1291016
  66.3271288  81.7146861  -3.8541696  65.7142317  80.4406604  -3.3127882
  57.4640013  85.2893662   8.9998860  57.7727139  85.0442809   9.8721560
  58.2615495  85.4940300   8.5117731  57.4860625  87.4431572   1.2304237
  57.0465615  86.9507950   1.9237094  58.2368742  86.9004539   0.9896312
  49.9652964  83.6343113   1.2328865  50.7910984  83.3346884   0.8527508
  49.6147016  82.8650735   1.6818654  54.9334497  82.9869581   3.3026539
  54.3114506  82.3240286   3.0028766  55.6039364  83.0130713   2.6200186
  48.1661569  81.5529439   2.1917799  47.3293477  81.1251613   2.0101800
  48.1385215  81.7461882   3.1288590  55.0059025  71.4651369  12.8959045
  55.0547180  72.3413492  12.5136814  55.5481539  70.9228762  12.3230688
  65.4913870  82.0092492  12.1760182  64.7009414  81.9916631  11.6364681
  65.2547225  82.5480786  12.9309218  65.6111745  78.8584958   9.4892910
  65.6609750  78.6934966  10.4308433  65.5025669  77.9912217   9.0990791
  54.4948004  81.5373504  -3.2215001  54.6436124  82.2208968  -3.8748328
  55.3014448  81.5178594  -2.7065545  62.9015508  74.8415886  10.8052217
  63.8025371  74.7022351  10.5136215  62.9763482  75.0070341  11.7450394
  57.2358313  72.2182741   9.6505403  56.3661623  72.5116307   9.3787992
  57.4717793  72.8023186  10.3712667  67.1129942  81.2781900   9.7334932
  66.8214751  81.6411880  10.5698393  66.5002074  80.5648908   9.5548264
  68.3125625  78.8434780   2.2537502  69.1472516  79.2824584   2.4175062
  68.4484753  78.3673433   1.4345748  65.3617130  76.4014515   8.2014990
  65.8371252  76.5942161   7.3933841  64.4382696  76.4573700   7.9558373
  52.2500637  77.5638682  -2.2153932  52.0046679  76.6601012  -2.0173722
  52.4196552  77.5655832  -3.1574454  59.9397347  68.4362358   7.1670824
  60.4579291  69.1723385   6.8417312  59.5852480  68.7426351   8.0017583
  51.5196285  73.2967039  -4.7167771  50.8265530  73.3711394  -5.3727735
  51.2748037  72.5327383  -4.1946254  60.1909941  64.8562641   2.6871720
  60.4711695  64.1885830   3.3132147  60.9760548  65.0491736   2.1746384
  57.9943410  84.0321635  -5.7503253  57.4217377  84.6511822  -6.2032782
  58.5676203  84.5820996  -5.2163332  64.0618799  73.2780275   6.4343295
  65.0136222  73.3778372   6.4555519  63.8922250  72.4858543   6.9441380
  62.0833179  70.3635858   6.6202696  61.4883111  70.6440871   5.9249185
  61.7982876  70.8529759   7.3919437  61.2140669  84.3158785  -4.6194671
  62.1471343  84.2504346  -4.4161796  61.1263882  85.1515052  -5.0780139
  63.8428686  83.6324655  -7.6590724  63.7642318  83.2984519  -6.7654966
  64.6638353  84.1246423  -7.6599251  66.5406877  76.4986394   5.5485595
  66.5083197  75.5602395   5.7345279  67.1507501  76.5770431   4.8151420
  58.3790208  75.3682447  -8.4087201  59.3249313  75.2388655  -8.3398783
  58.0004453  74.6297109  -7.9317773  66.6901366  73.2897438   5.5943878
  66.1740414  72.5055894   5.4073807  67.5741314  72.9616154   5.7590398
  64.3512093  67.0338453   1.5539691  64.1536914  66.7253541   2.4383023
  64.9611798  67.7600092   1.6837621  72.3583427  77.5602401   4.6891632
  73.0886816  77.2987689   5.2499335  71.7490373  76.8231123   4.7293700
  70.4398724  75.7010264   5.2866083  69.7131888  75.5666229   4.6782575
  70.0246011  76.0087092   6.0922801  58.2628901  79.4200193  13.0513456
  59.1831910  79.5978792  13.2453503  58.2278484  78.4756239  12.8993155
  56.5633125  73.2932424  -8.4732316  55.6564581  72.9965536  -8.3969602
  56.8409106  72.9962242  -9.3398030  47.4811066  74.6138787   1.9766731
  47.1613850  73.7604095   1.6841105  46.9344494  74.8287365   2.7324698
  51.2590973  77.3301228   5.6936237  51.4776983  78.2618336   5.7124271
  51.6716747  76.9709202   6.4791041  58.1795191  67.8369313  -2.3188074
  57.3695919  67.4916398  -1.9432828  58.8679608  67.5276857  -1.7300463
  60.1085739  66.9147360  -0.6963778  60.6616778  67.3342814  -0.0373755
  60.3455826  65.9883108  -0.6540822  56.1318839  72.9034434  15.0838986
  56.0315565  73.8528791  15.0151077  55.9140381  72.5752673  14.2115056
  55.3331910  70.1519359  -8.3320337  56.1951074  70.4774257  -8.0724519
  55.5182254  69.3650855  -8.8447271  47.3499326  78.2341699   3.9459852
  46.6562797  77.8195651   3.4329807  48.0972317  78.2762235   3.3493271
  63.4864546  69.0247885  -1.1885114  62.9063215  69.6832689  -1.5707061
  63.2200479  68.2025230  -1.5997696  61.9368113  68.4252943   1.0136207
  62.4367891  68.5369478   0.2050526  62.5803721  68.1213996   1.6537015
  55.9950109  76.3331573  13.9004048  55.5117190  77.1331933  14.1067937
  56.0811048  76.3439518  12.9471492  49.2636068  78.1659952   1.8225867
  49.2406756  78.2647640   0.8707750  49.5736705  79.0125103   2.1443033
  51.9223446  80.2236107   5.9372482  52.8766700  80.1920050   5.8702413
  51.7235970  79.7626731   6.7522707  52.5122828  78.7937223   8.5043279
  53.3315717  79.2881302   8.5278116  52.7859636  77.8769192   8.4760847
  62.2689424  71.1847976  -2.1328765  61.3815279  71.4697626  -2.3508571
  62.6843413  71.0241739  -2.9801488  65.6203961  71.2094497   1.5825574
  66.3964351  71.6990949   1.8550191  64.8952095  71.6352551   2.0397443
  68.0576519  71.9222116   2.6399515  68.6521010  71.6817852   1.9292823
  68.1303103  71.2029246   3.2673051  50.2773675  85.7655727   2.9542679
  50.1428143  85.0056128   2.3880677  49.8605737  86.4896627   2.4871468
  61.4132638  80.9492650  -8.0380745  62.1168488  81.1542653  -7.4223090
  60.6895287  81.5169412  -7.7731662  62.2430448  76.7002512  -1.9178475
  62.1865650  77.1571063  -2.7570843  62.7958791  75.9393196  -2.0955632
  66.0535254  72.4892244  -1.0928356  65.7972188  72.0888879  -0.2620148
  65.4288122  73.2036037  -1.2178216  70.3647592  75.2288317   1.4142936
  69.8047150  75.2981506   2.1874498  69.7591095  75.0529301   0.6942432
  53.4342801  86.6625044   3.1661122  53.3175185  87.6070476   3.0639812
  52.6135247  86.3598605   3.5546921  63.3219335  81.3875180  -5.9882285
  64.1564939  80.9556378  -6.1704810  63.1603678  81.2157193  -5.0605391
  62.9765227  77.8907293  -4.6225946  62.9214031  77.7251564  -5.5637502
  62.3511283  78.5983326  -4.4663756  47.7657742  73.1275357   9.2035476
  48.4116606  72.6174311   9.6922701  47.5574894  73.8644039   9.7778902
  60.2911135  80.1956205  14.7027617  61.1602294  80.3696857  14.3414252
  59.8117886  81.0150622  14.5803346  56.2861353  67.3915402  -5.0440628
  56.2740023  68.3357242  -4.8872357  57.1784775  67.2085547  -5.3381166
  54.4597315  87.3153306   6.3817050  55.3624562  87.3476916   6.6983545
  54.2334685  86.3853757   6.3963386  56.2150917  86.0684292   3.0427129
  55.2646548  86.0686154   2.9291501  56.5183403  85.3217027   2.5263164
  60.1013472  63.9858179  -0.7894691  59.3345868  63.4316665  -0.6438008
  60.5124177  64.0580047   0.0719461  52.1055233  70.2742974  13.3010490
  52.9686695  69.9179779  13.5113815  51.5320644  69.9356869  13.9885895
  71.9503610  91.9044831   4.1072891  72.5882020  91.7851578   3.4036232
  71.8324453  92.8525675   4.1660844  68.7593317  91.8572259   4.0434416
  68.4211828  91.7413324   3.1554951  69.6283085  91.4563424   4.0235422
  64.6180132  93.7107735   0.0331307  64.0544997  93.6197672  -0.7352405
  64.5032527  92.8907640   0.5133800  69.2413100  93.0107111  10.0020622
  69.2301740  92.6159909   9.1301125  69.4033739  92.2773183  10.5954393
  62.1644564  95.2058927   2.8715528  62.9565856  94.8649751   2.4561827
  62.4041214  95.3153902   3.7917681  65.9620361  95.7944222   8.9499806
  65.6710227  96.6989853   8.8346472  66.5977345  95.8360750   9.6643875
  66.8876568  93.1721071   5.5401165  67.4840140  92.9477093   4.8258128
  66.9451539  92.4305816   6.1426613  71.5044879  89.6296285   1.1826100
  72.2907968  89.2115708   0.8316517  71.7683583  90.5342377   1.3507748
  76.9053306  89.5671518   2.0859078  77.6378478  88.9970735   2.3196908
  76.1492662  89.1793118   2.5265584  68.5229426  91.9898759  -0.7177580
  68.1587633  91.4629380  -0.0064658  69.3796542  91.5997228  -0.8911094
  74.4278726  83.2793092   6.5453687  74.0962051  84.1488503   6.3214902
  73.8324340  82.9629376   7.2247717  70.9210246  95.4805638   5.9449599
  70.6210969  96.3830677   5.8365407  70.5761305  95.2137821   6.7970752
  64.3722727  91.9319435   1.9786304  63.4473224  91.7995649   2.1863996
  64.6207141  92.7113654   2.4756246  74.3207390  87.9988178   3.6247037
  73.4124267  87.9303586   3.3305798  74.2694985  88.4760123   4.4528862
  61.7331538  91.5752708   2.8130093  61.8623920  91.8287187   3.7269505
  61.0528990  92.1680416   2.4934748  68.3948255  89.4177824  11.5681934
  67.6181589  89.9771744  11.5584799  69.0338818  89.9034607  12.0896804
  76.1869036  86.2004616   5.4024911  75.5443416  86.4937150   4.7564705
  75.6823965  86.0857537   6.2078107  66.6494628  92.2263277  11.1299901
  67.3909312  92.7648321  10.8534725  65.9431613  92.8529566  11.2871453
  72.1249967  94.3692417   9.7272062  72.5333323  93.9274828   8.9826695
  71.4027229  93.7945045   9.9806255  68.4781037  89.3065024   7.1005619
  69.3242233  89.7304438   7.2440268  68.4179675  88.6498649   7.7944183
  72.4478782  94.9293608   3.4824351  71.8187644  95.0939322   2.7800419
  72.0604444  95.3435218   4.2535315  71.6280483  86.9669393   8.7586793
  71.3841415  87.7211453   8.2221069  71.9040413  87.3454740   9.5934040
  73.5818946  93.5108005   7.4364059  73.7935841  94.1539765   6.7598440
  73.5348694  92.6770322   6.9685989  71.1845174  86.1225826   4.3400631
  70.3229654  86.4207079   4.6317368  71.2107609  86.3396225   3.4081663
  68.0006744  94.6668016   0.7474436  68.4645089  94.9455719  -0.0420941
  67.7363542  93.7651461   0.5647527  64.8930825  94.2139498   3.6854200
  65.4632182  94.6426766   3.0471684  65.4838937  93.9322082   4.3838385
  66.9375630  90.7891169  -2.4435998  67.6399673  91.2412212  -1.9762072
  66.6056258  90.1474987  -1.8156105  65.3855991  89.3802925  11.9315211
  64.7554652  90.0619206  12.1650608  65.2792079  89.2686007  10.9868349
  60.6800964  89.0474721   2.8581135  59.8900018  89.3032250   2.3821246
  61.1712211  89.8623059   2.9633176  74.6964773  96.3879960   5.6086416
  75.5182217  95.9860148   5.3269098  74.6927176  96.2848195   6.5602532
  62.6315709  89.4119300  -0.1835388  61.8346873  89.5237995   0.3348108
  62.4041302  89.7505953  -1.0494498  68.4621377  95.9364004   7.7647126
  68.5265809  96.3984411   8.6005298  67.7532301  95.3061369   7.8929436
  58.9638667  89.3005212   5.2896126  59.2146705  90.1852222   5.5553702
  59.4998215  89.1209813   4.5171218  64.6636734  83.6823691  14.2940462
  64.2703680  83.1289890  14.9688106  65.4802875  83.9934269  14.6846980
  61.6298792  95.1207549  -1.7945968  62.1423313  95.9150799  -1.6440403
  62.2821505  94.4233840  -1.8612367  67.5804695  85.0981570  11.8860719
  68.3214409  85.6988723  11.8065181  67.8122618  84.3559208  11.3278761
  62.7246033  90.2837937  10.1638948  62.6099548  89.3823195  10.4646047
  61.8690551  90.5301634   9.8123765  69.8037871  98.2255678  11.7626449
  69.3601725  97.4392056  11.4447353  70.4655085  98.4134828  11.0970340
  64.5624992  99.7551479   6.2887127  65.1132417  99.6268543   5.5164121
  63.7236468 100.0546368   5.9382020  71.9019109  98.5058478   9.7907850
  71.8837584  99.3267359   9.2988119  72.8239029  98.3812553  10.0157991
  68.3592163  96.0202607  10.6331359  68.8920500  95.2590895  10.4030666
  67.8306244  95.7276259  11.3755513  71.5261858  81.1262673   6.1625000
  71.1826128  82.0164315   6.0864111  71.8940821  80.9364331   5.2994585
  59.5947709  93.4496204  -1.0186398  60.4322931  93.8593212  -1.2352690
  59.7725976  92.5095646  -1.0486204  69.0759252  85.9620985  -0.2717326
  68.2200848  85.5727835  -0.4511688  69.4886204  86.0412946  -1.1317541
  70.6058399  83.4967328   4.1274234  70.1023194  83.4597463   3.3142039
  70.8989005  84.4060071   4.1870890  66.8501284  83.5806058   3.1340415
  67.7154281  83.3848867   2.7746305  66.9178793  83.3516410   4.0609772
  74.7037722  93.3437620   3.2617217  74.0461396  94.0336881   3.3497345
  75.5078121  93.7334052   3.6051203  64.4563603  85.8108266   0.5056782
  65.0307355  85.5883447  -0.2270025  65.0434586  85.8796960   1.2585383
  73.5143181  91.6981993   1.3121159  74.0275062  92.3311985   1.8142868
  74.1644405  91.0983188   0.9464519  66.7586271  82.6849515  -0.7668149
  66.1050684  82.3698532  -1.3911534  66.7166745  82.0625255  -0.0408326
  69.9924012  89.1731448   3.5579499  69.0746573  89.3946395   3.4001187
  70.4084155  89.2477759   2.6991206  73.2237896  87.6079980   0.6700969
  72.4860653  87.0957366   1.0011211  73.4764670  87.1680362  -0.1415754
  73.3249524  80.3856232   1.2642738  73.6308401  79.5253596   0.9768653
  74.0502129  80.9773852   1.0641732  59.6173880  90.7886919  -0.3475664
  59.4198280  90.1956280  -1.0724598  59.0620544  90.4839129   0.3700275
  67.5970604  90.6810025   1.7718929  67.6519213  89.7283862   1.6961406
  66.7861806  90.8369464   2.2560227  65.5362963  89.2987085  -0.4690692
  64.7230829  89.5981256  -0.0625500  66.0321958  88.9042774   0.2483790
  71.1337175  89.7628910   8.3624202  71.4886563  89.9900383   9.2218668
  71.7809306  90.0947286   7.7401457  65.0277038  86.8705441   5.1470543
  65.6676418  86.7294200   4.4493506  64.1954569  86.5839954   4.7709145
  65.8037342  96.1707871   1.2605535  66.5977941  95.6758191   1.0588110
  65.0929035  95.6425734   0.8973241  70.6232187  98.5525967   5.6117903
  70.6769209  99.1216903   6.3795619  69.7546968  98.7227852   5.2471940
  62.1120106  90.3150953  -2.6634712  61.1817694  90.2535408  -2.4464750
  62.2077578  89.7926905  -3.4598071  62.0305655  86.8405766  -0.0756470
  62.2912472  87.7551099  -0.1847310  62.8522827  86.3730208   0.0740142
  63.5030580  88.2543523   7.0942354  64.1753633  88.0460885   6.4455003
  62.6760367  88.0565609   6.6547586  77.7519841  94.9947573   6.6117688
  77.9455731  95.8993384   6.8576963  77.6520459  94.5354992   7.4456273
  69.4056152  84.8805464   9.1108015  68.7584067  85.5795413   9.0172491
  70.1757167  85.3141608   9.4784263  72.8134950  95.1454316  12.1858568
  72.6620456  94.9164868  11.2688652  72.8039629  96.1024917  12.1989913
  69.5820286  92.7186229   7.1704835  70.5112346  92.8697388   6.9973802
  69.1611316  92.8070249   6.3153481  68.3808618  96.7436893   4.9403372
  68.2419704  96.3755677   5.8129310  67.5923214  97.2584532   4.7687330
  69.9313833  96.1218496   2.3292210  69.5963666  96.0819266   3.2249860
  69.4317779  95.4563212   1.8562620  63.9058077  91.5286126   7.8544791
  63.7677875  90.7966365   8.4556330  64.8163001  91.4395026   7.5728979
  66.5340378  91.2406085   7.3428471  67.2439996  90.5999277   7.3015089
  66.4909686  91.4918980   8.2654652  74.5227157  98.1773438  10.2635050
  74.4639703  97.4932658   9.5965633  74.9246675  98.9192428   9.8115676
  65.2469312  88.2271303   9.1624110  64.7106669  87.7762041   9.8145707
  64.6586020  88.3617212   8.4194575  74.5244564  96.1413022   8.4949030
  73.6371343  95.8038944   8.6175429  75.0943115  95.4096054   8.7317795
  56.1773711  92.4737114   1.8192081  56.8644751  92.1598844   1.2313097
  56.0221840  93.3778479   1.5459333  60.9808433  87.3627311   6.2477105
  60.8966622  86.7552980   5.5127515  60.1591140  87.8536329   6.2486601
  68.0545717 100.8014475   5.4610273  67.9815889 101.6069446   5.9729578
  67.6123110 101.0006440   4.6358294  71.1532147  85.8480874   1.6147300
  71.6500847  85.0950836   1.2948370  70.3819128  85.8845191   1.0490509
  79.0061904  91.5521240   3.2565592  78.9951781  92.4345955   2.8859525
  78.1379284  91.1992791   3.0620129  70.5144401 100.7001309   7.6168432
  71.2272373 101.3348774   7.5444333  70.0234429 100.7965175   6.8008434
  67.7367116  87.9898257   1.3418985  67.3664903  87.4369298   2.0299890
  68.2326208  87.3856391   0.7893985  65.5656314  98.4495752   8.4374003
  66.2665774  99.0832235   8.5903397  65.0951429  98.7910484   7.6769642
  73.5951142  82.8150468   3.7626659  72.6814222  83.0454694   3.9308866
  74.0244243  82.8988912   4.6140691  73.3657600  91.0040360   6.2626553
  72.7129051  91.2516267   5.6079006  73.7437980  90.1904498   5.9289030
  69.4145173  91.7460171  12.7492590  68.7385810  91.6454300  13.4194965
  70.2372807  91.5899384  13.2128587  61.1624032  97.9832107   5.3705105
  61.7477469  97.2375795   5.5033009  60.9648871  98.2936064   6.2541769
  55.7541687  90.5537707   4.0909548  55.7925787  90.0201298   4.8846666
  55.2481980  90.0272913   3.4720526  68.1567956 103.0527098   6.9850206
  68.7086264 103.2158720   7.7499291  68.4974150 103.6431536   6.3130231
  63.1332449  85.4002248   7.5872091  63.1973776  86.2617079   7.1749488
  63.0699570  84.7876250   6.8544449  62.6084722  87.4725380  11.2345125
  63.2356761  87.0902458  11.8482649  61.7512641  87.2539582  11.6000817
  73.0078830  97.8788356  12.8398860  73.5518734  98.4918314  12.3453815
  72.4265675  98.4367934  13.3565873  59.3850265  89.2801810  -2.8336520
  59.6803706  88.3712488  -2.8869467  58.4838300  89.2589549  -3.1555518
  62.9144512  87.3557806   3.1491028  62.1931097  87.9693774   3.0098502
  63.7037767  87.8915571   3.0707674  73.3571252  98.8018094   5.5993438
  72.4101587  98.6823445   5.5271765  73.7054025  97.9140592   5.6819700
  65.7170825  84.6912233   9.4231680  66.2405227  84.9374529  10.1857989
  65.4983158  85.5232267   9.0034817  61.1138106  86.9615907  -2.7097195
  60.7850812  86.0813286  -2.8922089  61.4677477  86.9063576  -1.8220806
  64.2279929  87.2488877  -2.3421717  64.5676002  87.7774798  -3.0643109
  64.6752050  87.5869283  -1.5663151  66.9223370  85.6325928   7.1081351
  66.5820191  84.8333741   7.5102031  66.2162377  85.9327639   6.5358184
  67.5739842  82.7175240   5.5608674  68.3965911  82.2435718   5.4387564
  67.8177906  83.4965724   6.0607360  66.2148077  85.7463499  -4.1428425
  66.9356439  86.1244751  -4.6464708  65.5913381  86.4652375  -4.0393447
  70.3579199  86.4508648  -3.2070092  70.5742814  87.3333285  -3.5081264
  69.8773267  86.0594861  -3.9364450  65.0978421  89.4094361   3.3700652
  64.9523002  89.7234664   4.2624934  64.6203624  90.0279261   2.8171551
  66.9574804  86.3996909   3.4181542  66.9436372  85.5038002   3.0813840
  67.6747232  86.4067573   4.0519828  68.8100934  86.8334249   5.4634669
  68.5518712  87.7551320   5.4619000  68.2785975  86.4364684   6.1535133
  59.5724083  91.9499705   6.3088313  59.0277551  92.7259513   6.4408588
  60.4503433  92.2970510   6.1507435  66.3611700  85.2811289  -1.3130888
  66.4827611  84.3527935  -1.1140001  66.0713742  85.2949975  -2.2252573
  69.2302890  82.9666200   1.8235832  69.2524587  83.0305533   0.8687811
  69.6470949  82.1270708   2.0176338  60.3590105  91.0769601   9.2018470
  59.6171841  91.2252237   9.7883101  60.0382849  91.3377867   8.3385220
  68.3033767 100.6185580   8.9998860  68.6120894 100.3734726   9.8721560
  69.1009250 100.8232218   8.5117731  60.8046719  98.9635030   1.2328865
  61.6304738  98.6638802   0.8527508  60.4540771  98.1942653   1.6818654
  65.7728252  98.3161498   3.3026539  65.1508261  97.6532203   3.0028766
  66.4433119  98.3422630   2.6200186  59.0055324  96.8821357   2.1917799
  58.1687232  96.4543531   2.0101800  58.9778969  97.0753800   3.1288590
  65.8452779  86.7943286  12.8959045  65.8940935  87.6705409  12.5136814
  66.3875293  86.2520679  12.3230688  76.3307625  97.3384410  12.1760182
  75.5403169  97.3208549  11.6364681  76.0940979  97.8772703  12.9309218
  76.4505500  94.1876876   9.4892910  76.5003505  94.0226884  10.4308433
  76.3419423  93.3204135   9.0990791  73.7409262  90.1707804  10.8052217
  74.6419125  90.0314269  10.5136215  73.8157237  90.3362259  11.7450394
  68.0752068  87.5474659   9.6505403  67.2055377  87.8408225   9.3787992
  68.3111548  88.1315104  10.3712667  77.9523697  96.6073818   9.7334932
  77.6608505  96.9703798  10.5698393  77.3395828  95.8940826   9.5548264
  76.2010885  91.7306432   8.2014990  76.6765007  91.9234079   7.3933841
  75.2776450  91.7865618   7.9558373  63.0894392  92.8930599  -2.2153932
  62.8440434  91.9892929  -2.0173722  63.2590306  92.8947750  -3.1574454
  70.7791101  83.7654276   7.1670824  71.2973045  84.5015303   6.8417312
  70.4246234  84.0718269   8.0017583  62.3590039  88.6258957  -4.7167771
  61.6659284  88.7003312  -5.3727735  62.1141791  87.8619301  -4.1946254
  71.0303696  80.1854558   2.6871720  71.3105449  79.5177747   3.3132147
  71.8154303  80.3783654   2.1746384  74.9012554  88.6072192   6.4343295
  75.8529977  88.7070290   6.4555519  74.7316004  87.8150461   6.9441380
  72.9226933  85.6927776   6.6202696  72.3276866  85.9732788   5.9249185
  72.6376630  86.1821676   7.3919437  77.3800632  91.8278312   5.5485595
  77.3476952  90.8894313   5.7345279  77.9901255  91.9062349   4.8151420
  77.5295120  88.6189355   5.5943878  77.0134169  87.8347812   5.4073807
  78.4135069  88.2908072   5.7590398  75.1905847  82.3630371   1.5539691
  74.9930668  82.0545459   2.4383023  75.8005553  83.0892010   1.6837621
  83.1977182  92.8894319   4.6891632  83.9280570  92.6279607   5.2499335
  82.5884127  92.1523041   4.7293700  81.2792479  91.0302181   5.2866083
  80.5525642  90.8958146   4.6782575  80.8639766  91.3379010   6.0922801
  69.1022655  94.7492111  13.0513456  70.0225665  94.9270710  13.2453503
  69.0672238  93.8048156  12.8993155  58.3204820  89.9430705   1.9766731
  58.0007605  89.0896013   1.6841105  57.7738248  90.1579283   2.7324698
  62.0984728  92.6593146   5.6936237  62.3170737  93.5910254   5.7124271
  62.5110502  92.3001120   6.4791041  69.0188946  83.1661231  -2.3188074
  68.2089674  82.8208316  -1.9432828  69.7073362  82.8568775  -1.7300463
  70.9479494  82.2439278  -0.6963778  71.5010532  82.6634731  -0.0373755
  71.1849580  81.3175026  -0.6540822  66.9712593  88.2326352  15.0838986
  66.8709320  89.1820708  15.0151077  66.7534135  87.9044590  14.2115056
  58.1893080  93.5633616   3.9459852  57.4956552  93.1487569   3.4329807
  58.9366071  93.6054153   3.3493271  74.3258301  84.3539803  -1.1885114
  73.7456970  85.0124607  -1.5707061  74.0594234  83.5317148  -1.5997696
  72.7761867  83.7544861   1.0136207  73.2761646  83.8661395   0.2050526
  73.4197475  83.4505914   1.6537015  66.8343863  91.6623490  13.9004048
  66.3510945  92.4623850  14.1067937  66.9204802  91.6731435  12.9471492
  60.1029823  93.4951870   1.8225867  60.0800511  93.5939557   0.8707750
  60.4130459  94.3417021   2.1443033  62.7617201  95.5528025   5.9372482
  63.7160454  95.5211967   5.8702413  62.5629724  95.0918649   6.7522707
  63.3516583  94.1229141   8.5043279  64.1709472  94.6173220   8.5278116
  63.6253390  93.2061109   8.4760847  73.1083179  86.5139893  -2.1328765
  72.2209034  86.7989544  -2.3508571  73.5237168  86.3533657  -2.9801488
  76.4597715  86.5386414   1.5825574  77.2358105  87.0282867   1.8550191
  75.7345849  86.9644469   2.0397443  78.8970274  87.2514034   2.6399515
  79.4914764  87.0109770   1.9292823  78.9696857  86.5321164   3.2673051
  61.1167429 101.0947645   2.9542679  60.9821897 100.3348045   2.3880677
  60.6999492 101.8188544   2.4871468  64.2736555 101.9916962   3.1661122
  64.1568939 102.9362394   3.0639812  63.4529001 101.6890523   3.5546921
  58.6051497  88.4567275   9.2035476  59.2510361  87.9466229   9.6922701
  58.3968648  89.1935957   9.7778902  71.1304889  95.5248122  14.7027617
  71.9996049  95.6988775  14.3414252  70.6511641  96.3442539  14.5803346
  67.1255107  82.7207320  -5.0440628  67.1133777  83.6649160  -4.8872357
  68.0178529  82.5377465  -5.3381166  65.2991069 102.6445223   6.3817050
  66.2018316 102.6768834   6.6983545  65.0728439 101.7145674   6.3963386
  70.9407227  79.3150096  -0.7894691  70.1739623  78.7608583  -0.6438008
  71.3517932  79.3871965   0.0719461  62.9448988  85.6034892  13.3010490
  63.8080449  85.2471697  13.5113815  62.3714399  85.2648787  13.9885895
  79.2342010 104.7469741  11.5681934  78.4575344 105.3063661  11.5584799
  79.8732573 105.2326524  12.0896804  76.2249746 104.7094843  11.9315211
  75.5948407 105.3911124  12.1650608  76.1185834 104.5977924  10.9868349
  75.5030489  99.0115609  14.2940462  75.1097434  98.4581807  14.9688106
  76.3196629  99.3226187  14.6846980  78.4198450 100.4273488  11.8860719
  79.1608163 101.0280641  11.8065181  78.6516373  99.6851126  11.3278761
  73.5639788 105.6129855  10.1638948  73.4493303 104.7115112  10.4646047
  72.7084305 105.8593552   9.8123765  80.2449906 100.2097381   9.1108015
  79.5977822 100.9087331   9.0172491  81.0150922 100.6433525   9.4784263
  76.0863066 103.5563221   9.1624110  75.5500423 103.1053959   9.8145707
  75.4979775 103.6909129   8.4194575  71.8202188 102.6919228   6.2477105
  71.7360376 102.0844898   5.5127515  70.9984894 103.1828247   6.2486601
  80.2538928 107.0752088  12.7492590  79.5779565 106.9746218  13.4194965
  81.0766562 106.9191302  13.2128587  73.9726204 100.7294166   7.5872091
  74.0367530 101.5908996   7.1749488  73.9093324 100.1168167   6.8544449
  73.4478476 102.8017298  11.2345125  74.0750515 102.4194375  11.8482649
  72.5906395 102.5831500  11.6000817  76.5564580 100.0204150   9.4231680
  77.0798982 100.2666447  10.1857989  76.3376913 100.8524185   9.0034817
  71.1983859 106.4061519   9.2018470  70.4565595 106.5544154   9.7883101
  70.8776604 106.6669785   8.3385220  76.6846534 102.1235204  12.8959045
  76.7334689 102.9997327  12.5136814  77.2269048 101.5812597  12.3230688
  78.9145822 102.8766577   9.6505403  78.0449132 103.1700143   9.3787992
  79.1505302 103.4607022  10.3712667  77.8106348 103.5618269  15.0838986
  77.7103074 104.5112626  15.0151077  77.5927890 103.2336508  14.2115056
  77.6737618 106.9915408  13.9004048  77.1904699 107.7915768  14.1067937
  77.7598557 107.0023353  12.9471492  69.4445251 103.7859193   9.2035476
  70.0904115 103.2758147   9.6922701  69.2362403 104.5227874   9.7778902
  73.7842742 100.9326810  13.3010490  74.6474204 100.5763615  13.5113815
  73.2108153 100.5940705  13.9885895  58.9644118  59.9025883  -1.5128244
  58.5207972  59.1162261  -1.8307340  59.6261331  60.0905033  -2.1784354
  61.0625356  60.1828683  -3.4846843  61.0443831  61.0037564  -3.9766574
  61.9845276  60.0582758  -3.2596702  57.5198410  57.6972812  -2.6423335
  58.0526747  56.9361100  -2.8724027  56.9912491  57.4046464  -1.8999180
  66.9126088  56.6717778  -6.6637006  67.1061978  57.5763588  -6.4177731
  66.8126706  56.2125197  -5.8298421  61.9741197  56.8224521  -1.0896125
  61.8226703  56.5935072  -2.0066041  61.9645876  57.7795122  -1.0764780
  63.6833403  59.8543643  -3.0119643  63.6245950  59.1702863  -3.6789060
  64.0852922  60.5962633  -3.4639017  63.6850811  57.8183227  -4.7805664
  62.7977589  57.4809149  -4.6579265  64.2549362  57.0866258  -4.5436898
  59.6750648  62.3771514  -5.6586262  60.3878620  63.0118978  -5.7310360
  59.1840676  62.4735380  -6.4746260  58.5751420  53.4230376  -0.5262103
  57.8992057  53.3224505   0.1440272  59.3979054  53.2669589  -0.0626106
  57.3174203  64.7297303  -6.2904487  57.8692511  64.8928925  -5.5255402
  57.6580396  65.3201741  -6.9624463  62.1685077  59.5558561  -0.4355833
  62.7124981  60.1688519  -0.9300878  61.5871922  60.1138139   0.0811180
  57.4640014  62.2955785  -4.2755833  57.7727141  62.0504931  -3.4033133
  58.2615496  62.5002423  -4.7636963  65.4913872  59.0154615  -1.0994512
  64.7009415  58.9978753  -1.6390012  65.2547226  59.5542908  -0.3445475
  65.6111747  55.8647081  -3.7861783  65.6609752  55.6997088  -2.8446260
  65.5025670  54.9974340  -4.1763902  62.9015509  51.8478009  -2.4702476
  63.8025372  51.7084474  -2.7618479  62.9763484  52.0132464  -1.5304299
  67.1129944  58.2844022  -3.5419762  66.8214752  58.6474003  -2.7056301
  66.5002075  57.5711031  -3.7206430  58.2628902  56.4262316  -0.2241237
  59.1831911  56.6040915  -0.0301191  58.2278485  55.4818361  -0.3761538
  55.9950110  53.3393695   0.6249354  55.5117192  54.1394055   0.8313243
  56.0811049  53.3501640  -0.3283202  60.2911136  57.2018327   1.4272923
  61.1602296  57.3758980   1.0659558  59.8117887  58.0212744   1.3048653
  71.9503612  68.9106953  -9.1681802  72.5882022  68.7913701  -9.8718462
  71.8324455  69.8587797  -9.1093850  68.7593318  68.8634381  -9.2320277
  68.4211829  68.7475446 -10.1199742  69.6283086  68.4625547  -9.2519271
  69.2413101  70.0169233  -3.2734072  69.2301742  69.6222031  -4.1453568
  69.4033740  69.2835306  -2.6800300  62.1644566  72.2121049 -10.4039166
  62.9565857  71.8711874 -10.8192866  62.4041216  72.3216024  -9.4837012
  65.9620362  72.8006345  -4.3254888  65.6710228  73.7051976  -4.4408221
  66.5977346  72.8422873  -3.6110818  66.8876569  70.1783193  -7.7353528
  67.4840141  69.9539216  -8.4496565  66.9451540  69.4367939  -7.1328080
  71.5044880  66.6358407 -12.0928594  72.2907969  66.2177830 -12.4438177
  71.7683584  67.5404499 -11.9246945  76.9053307  66.5733640 -11.1895615
  77.6378479  66.0032857 -10.9557786  76.1492663  66.1855241 -10.7489110
  68.5229427  68.9960882 -13.9932273  68.1587634  68.4691503 -13.2819351
  69.3796543  68.6059351 -14.1665787  74.4278728  60.2855214  -6.7301007
  74.0962052  61.1550625  -6.9539792  73.8324341  59.9691498  -6.0506976
  70.9210247  72.4867760  -7.3305094  70.6210970  73.3892799  -7.4389287
  70.5761307  72.2199944  -6.4783941  64.3722729  68.9381557 -11.2968390
  63.4473225  68.8057771 -11.0890698  64.6207142  69.7175777 -10.7998447
  74.3207391  65.0050301  -9.6507657  73.4124268  64.9365709  -9.9448896
  74.2694987  65.4822246  -8.8225831  61.7331540  68.5814831 -10.4624600
  61.8623921  68.8349310  -9.5485189  61.0528991  69.1742539 -10.7819945
  68.3948257  66.4239946  -1.7072759  67.6181591  66.9833866  -1.7169895
  69.0338820  66.9096729  -1.1857889  76.1869037  63.2066739  -7.8729783
  75.5443418  63.4999272  -8.5189988  75.6823966  63.0919659  -7.0676586
  66.6494629  69.2325400  -2.1454792  67.3909313  69.7710444  -2.4219969
  65.9431614  69.8591688  -1.9883241  72.1249969  71.3754540  -3.5482631
  72.5333325  70.9336951  -4.2927999  71.4027230  70.8007168  -3.2948438
  68.4781039  66.3127147  -6.1749074  69.3242234  66.7366560  -6.0314425
  68.4179676  65.6560771  -5.4810511  72.4478783  71.9355731  -9.7930342
  71.8187646  72.1001445 -10.4954274  72.0604445  72.3497340  -9.0219378
  71.6280484  63.9731515  -4.5167900  71.3841416  64.7273576  -5.0533625
  71.9040415  64.3516863  -3.6820653  73.5818947  70.5170128  -5.8390635
  73.7935842  71.1601887  -6.5156254  73.5348695  69.6832444  -6.3068705
  71.1845176  63.1287948  -8.9354063  70.3229655  63.4269202  -8.6437325
  71.2107610  63.3458347  -9.8673030  68.0006745  71.6730139 -12.5280257
  68.4645091  71.9517842 -13.3175634  67.7363543  70.7713583 -12.7107166
  64.8930826  71.2201620  -9.5900494  65.4632183  71.6488889 -10.2283009
  65.4838938  70.9384205  -8.8916308  65.3855993  66.3865048  -1.3439482
  64.7554653  67.0681329  -1.1104086  65.2792081  66.2748129  -2.2886344
  74.6964775  73.3942083  -7.6668277  75.5182218  72.9922270  -7.9485596
  74.6927178  73.2910317  -6.7152162  68.4621378  72.9426126  -5.5107567
  68.5265811  73.4046534  -4.6749395  67.7532302  72.3123491  -5.3825257
  58.9638668  66.3067334  -7.9858567  59.2146707  67.1914344  -7.7200991
  59.4998217  66.1271936  -8.7583476  64.6636735  60.6885814   1.0185769
  64.2703681  60.1352012   1.6933413  65.4802876  60.9996392   1.4092286
  67.5804696  62.1043693  -1.3893975  68.3214410  62.7050846  -1.4689512
  67.8122619  61.3621330  -1.9475932  62.7246034  67.2900060  -3.1115745
  62.6099550  66.3885317  -2.8108646  61.8690552  67.5363757  -3.4630929
  69.8037872  75.2317800  -1.5128244  69.3601726  74.4454179  -1.8307340
  70.4655086  75.4196951  -2.1784354  64.5624993  76.7613602  -6.9867566
  65.1132419  76.6330665  -7.7590572  63.7236469  77.0608491  -7.3372673
  71.9019110  75.5120600  -3.4846843  71.8837586  76.3329481  -3.9766574
  72.8239030  75.3874675  -3.2596702  68.3592164  73.0264730  -2.6423335
  68.8920501  72.2653018  -2.8724027  67.8306246  72.7338381  -1.8999180
  71.5261859  58.1324796  -7.1129693  71.1826129  59.0226437  -7.1890583
  71.8940822  57.9426453  -7.9760108  70.6058400  60.5029451  -9.1480460
  70.1023195  60.4659586  -9.9612655  70.8989007  61.4122194  -9.0883803
  74.7037723  70.3499743 -10.0137477  74.0461398  71.0399004  -9.9257348
  75.5078122  70.7396175  -9.6703490  73.5143182  68.7044115 -11.9633535
  74.0275064  69.3374107 -11.4611825  74.1644406  68.1045311 -12.3290175
  69.9924013  66.1793571  -9.7175194  69.0746574  66.4008518  -9.8753506
  70.4084156  66.2539881 -10.5763487  73.2237898  64.6142103 -12.6053725
  72.4860655  64.1019489 -12.2743482  73.4764671  64.1742484 -13.4170448
  67.5970605  67.6872148 -11.5035764  67.6519215  66.7345984 -11.5793288
  66.7861807  67.8431587 -11.0194466  71.1337176  66.7691032  -4.9130492
  71.4886564  66.9962505  -4.0536026  71.7809308  67.1009409  -5.5353236
  65.0277039  63.8767563  -8.1284151  65.6676419  63.7356322  -8.8261187
  64.1954570  63.5902077  -8.5045549  65.8037343  73.1769994 -12.0149158
  66.5977942  72.6820314 -12.2166583  65.0929036  72.6487857 -12.3781453
  70.6232188  75.5588089  -7.6636790  70.6769210  76.1279025  -6.8959075
  69.7546969  75.7289974  -8.0282753  63.5030581  65.2605645  -6.1812339
  64.1753635  65.0523007  -6.8299690  62.6760368  65.0627731  -6.6207107
  77.7519843  72.0009696  -6.6637006  77.9455733  72.9055506  -6.4177731
  77.6520461  71.5417115  -5.8298421  69.4056153  61.8867586  -4.1646678
  68.7584068  62.5857536  -4.2582202  70.1757169  62.3203730  -3.7970430
  72.8134951  72.1516438  -1.0896125  72.6620458  71.9226990  -2.0066041
  72.8039631  73.1087040  -1.0764780  69.5820288  69.7248351  -6.1049859
  70.5112348  69.8759511  -6.2780891  69.1611318  69.8132372  -6.9601212
  68.3808619  73.7499016  -8.3351321  68.2419705  73.3817800  -7.4625383
  67.5923216  74.2646655  -8.5067363  69.9313835  73.1280618 -10.9462483
  69.5963667  73.0881388 -10.0504833  69.4317780  72.4625334 -11.4192073
  63.9058078  68.5348248  -5.4209902  63.7677876  67.8028487  -4.8198363
  64.8163002  68.4457148  -5.7025714  66.5340379  68.2468208  -5.9326222
  67.2439998  67.6061400  -5.9739604  66.4909687  68.4981102  -5.0100042
  74.5227158  75.1835561  -3.0119643  74.4639704  74.4994781  -3.6789060
  74.9246676  75.9254551  -3.4639017  65.2469313  65.2333426  -4.1130583
  64.7106670  64.7824164  -3.4608987  64.6586022  65.3679334  -4.8560119
  74.5244565  73.1475145  -4.7805664  73.6371344  72.8101067  -4.6579265
  75.0943116  72.4158176  -4.5436898  60.9808434  64.3689433  -7.0277588
  60.8966623  63.7615103  -7.7627178  60.1591141  64.8598452  -7.0268092
  68.0545719  77.8076597  -7.8144420  67.9815890  78.6131569  -7.3025116
  67.6123112  78.0068563  -8.6396399  79.0061906  68.5583362 -10.0189102
  78.9951782  69.4408078 -10.3895169  78.1379285  68.2054913 -10.2134565
  70.5144402  77.7063431  -5.6586262  71.2272374  78.3410896  -5.7310360
  70.0234431  77.8027297  -6.4746260  65.5656316  75.4557875  -4.8380691
  66.2665775  76.0894358  -4.6851297  65.0951431  75.7972606  -5.5985052
  73.5951143  59.8212590  -9.5128034  72.6814223  60.0516817  -9.3445828
  74.0244244  59.9051034  -8.6614002  73.3657602  68.0102482  -7.0128140
  72.7129052  68.2578390  -7.6675688  73.7437981  67.1966620  -7.3465663
  69.4145175  68.7522293  -0.5262103  68.7385812  68.6516423   0.1440272
  70.2372808  68.5961507  -0.0626106  61.1624034  74.9894230  -7.9049588
  61.7477470  74.2437918  -7.7721684  60.9648872  75.2998187  -7.0212924
  68.1567957  80.0589221  -6.2904487  68.7086265  80.2220842  -5.5255402
  68.4974151  80.6493659  -6.9624463  63.1332451  62.4064371  -5.6882603
  63.1973777  63.2679201  -6.1005205  63.0699571  61.7938372  -6.4210244
  62.6084723  64.4787503  -2.0409568  63.2356762  64.0964580  -1.4272044
  61.7512642  64.2601705  -1.6753876  73.0078832  74.8850478  -0.4355833
  73.5518736  75.4980436  -0.9300878  72.4265677  75.4430057   0.0811180
  73.3571253  75.8080216  -7.6761255  72.4101589  75.6885567  -7.7482928
  73.7054026  74.9202714  -7.5934994  65.7170826  61.6974355  -3.8523013
  66.2405228  61.9436652  -3.0896704  65.4983160  62.5294390  -4.2719876
  66.9223372  62.6388050  -6.1673343  66.5820192  61.8395863  -5.7652663
  66.2162378  62.9389761  -6.7396510  67.5739843  59.7237363  -7.7146020
  68.3965913  59.2497841  -7.8367129  67.8177907  60.5027847  -7.2147333
  65.0978422  66.4156483  -9.9054041  64.9523003  66.7296786  -9.0129760
  64.6203626  67.0341384 -10.4583142  66.9574805  63.4059031  -9.8573152
  66.9436374  62.5100125 -10.1940854  67.6747233  63.4129695  -9.2234865
  68.8100936  63.8396372  -7.8120024  68.5518714  64.7613442  -7.8135694
  68.2785976  63.4426806  -7.1219560  59.5724084  68.9561828  -6.9666380
  59.0277552  69.7321636  -6.8346106  60.4503434  69.3032632  -7.1247258
  60.3590106  68.0831724  -4.0736223  59.6171842  68.2314359  -3.4871593
  60.0382850  68.3439990  -4.9369474  68.3033769  77.6247702  -4.2755833
  68.6120895  77.3796849  -3.4033133  69.1009251  77.8294341  -4.7636963
  60.8046720  75.9697153 -12.0425828  61.6304740  75.6700925 -12.4227185
  60.4540772  75.2004775 -11.5936040  65.7728253  75.3223621  -9.9728155
  65.1508262  74.6594326 -10.2725927  66.4433120  75.3484753 -10.6554507
  59.0055325  73.8883479 -11.0836895  58.1687233  73.4605654 -11.2652894
  58.9778970  74.0815923 -10.1466104  65.8452780  63.8005409  -0.3795649
  65.8940936  64.6767532  -0.7617879  66.3875295  63.2582802  -0.9524006
  76.3307626  74.3446532  -1.0994512  75.5403170  74.3270671  -1.6390012
  76.0940981  74.8834826  -0.3445475  76.4505501  71.1938999  -3.7861783
  76.5003506  71.0289006  -2.8446260  76.3419425  70.3266258  -4.1763902
  73.7409264  67.1769927  -2.4702476  74.6419126  67.0376392  -2.7618479
  73.8157238  67.3424382  -1.5304299  68.0752069  64.5536781  -3.6249290
  67.2055378  64.8470347  -3.8966702  68.3111549  65.1377226  -2.9042027
  77.9523698  73.6135940  -3.5419762  77.6608506  73.9765921  -2.7056301
  77.3395829  72.9002948  -3.7206430  76.2010886  68.7368555  -5.0739704
  76.6765008  68.9296201  -5.8820852  75.2776452  68.7927741  -5.3196320
  70.7791103  60.7716398  -6.1083870  71.2973047  61.5077425  -6.4337381
  70.4246235  61.0780392  -5.2737111  74.9012555  65.6134315  -6.8411398
  75.8529978  65.7132413  -6.8199174  74.7316006  64.8212583  -6.3313314
  72.9226935  62.6989898  -6.6551997  72.3276867  62.9794911  -7.3505508
  72.6376631  63.1883799  -5.8835256  77.3800633  68.8340435  -7.7269098
  77.3476953  67.8956435  -7.5409415  77.9901257  68.9124471  -8.4603274
  77.5295122  65.6251478  -7.6810815  77.0134170  64.8409935  -7.8680886
  78.4135070  65.2970195  -7.5164296  75.1905848  59.3692494 -11.7215003
  74.9930670  59.0607582 -10.8371671  75.8005554  60.0954132 -11.5917073
  83.1977183  69.8956441  -8.5863062  83.9280571  69.6341730  -8.0255358
  82.5884128  69.1585163  -8.5460994  81.2792480  68.0364304  -7.9888610
  80.5525644  67.9020269  -8.5972119  80.8639767  68.3441133  -7.1831892
  69.1022656  71.7554234  -0.2241237  70.0225666  71.9332833  -0.0301191
  69.0672239  70.8110279  -0.3761538  62.0984729  69.6655268  -7.5818456
  62.3170739  70.5972376  -7.5630422  62.5110503  69.3063243  -6.7963652
  66.9712594  65.2388474   1.8084293  66.8709321  66.1882831   1.7396384
  66.7534136  64.9106713   0.9360363  58.1893081  70.5695739  -9.3294841
  57.4956553  70.1549692  -9.8424887  58.9366072  70.6116275  -9.9261422
  66.8343864  68.6685613   0.6249354  66.3510946  69.4685973   0.8313243
  66.9204803  68.6793558  -0.3283202  62.7617202  72.5590148  -7.3382212
  63.7160455  72.5274090  -7.4052280  62.5629725  72.0980771  -6.5231986
  63.3516584  71.1291264  -4.7711414  64.1709473  71.6235342  -4.7476577
  63.6253392  70.2123232  -4.7993847  76.4597716  63.5448537 -11.6929119
  77.2358106  64.0344989 -11.4204503  75.7345850  63.9706591 -11.2357250
  78.8970275  64.2576156 -10.6355179  79.4914766  64.0171892 -11.3461871
  78.9696859  63.5383287 -10.0081643  61.1167431  78.1009767 -10.3212014
  60.9821899  77.3410168 -10.8874016  60.6999493  78.8250667 -10.7883225
  64.2736556  78.9979084 -10.1093571  64.1568941  79.9424517 -10.2114881
  63.4529003  78.6952646  -9.7207772  58.6051498  65.4629398  -4.0719217
  59.2510362  64.9528352  -3.5831992  58.3968649  66.1998079  -3.4975792
  71.1304890  72.5310245   1.4272923  71.9996050  72.7050897   1.0659558
  70.6511642  73.3504662   1.3048653  65.2991071  79.6507346  -6.8937643
  66.2018317  79.6830956  -6.5771148  65.0728441  78.7207797  -6.8791307
  62.9448989  62.6097015   0.0255797  63.8080451  62.2533819   0.2359122
  62.3714400  62.2710909   0.7131201  79.2342011  81.7531864  -1.7072759
  78.4575345  82.3125784  -1.7169895  79.8732574  82.2388647  -1.1857889
  76.2249747  81.7156965  -1.3439482  75.5948408  82.3973246  -1.1104086
  76.1185835  81.6040047  -2.2886344  75.5030490  76.0177731   1.0185769
  75.1097436  75.4643930   1.6933413  76.3196630  76.3288310   1.4092286
  78.4198451  77.4335610  -1.3893975  79.1608164  78.0342764  -1.4689512
  78.6516374  76.6913248  -1.9475932  73.5639789  82.6191978  -3.1115745
  73.4493304  81.7177235  -2.8108646  72.7084307  82.8655674  -3.4630929
  80.2449908  77.2159504  -4.1646678  79.5977823  77.9149454  -4.2582202
  81.0150923  77.6495648  -3.7970430  76.0863068  80.5625343  -4.1130583
  75.5500425  80.1116082  -3.4608987  75.4979776  80.6971252  -4.8560119
  71.8202189  79.6981351  -7.0277588  71.7360378  79.0907020  -7.7627178
  70.9984895  80.1890369  -7.0268092  80.2538929  84.0814211  -0.5262103
  79.5779566  83.9808340   0.1440272  81.0766563  83.9253425  -0.0626106
  73.9726205  77.7356288  -5.6882603  74.0367532  78.5971119  -6.1005205
  73.9093325  77.1230290  -6.4210244  73.4478478  79.8079421  -2.0409568
  74.0750516  79.4256498  -1.4272044  72.5906397  79.5893623  -1.6753876
  76.5564581  77.0266273  -3.8523013  77.0798983  77.2728569  -3.0896704
  76.3376914  77.8586308  -4.2719876  71.1983861  83.4123642  -4.0736223
  70.4565597  83.5606277  -3.4871593  70.8776605  83.6731907  -4.9369474
  76.6846535  79.1297327  -0.3795649  76.7334690  80.0059450  -0.7617879
  77.2269049  78.5874720  -0.9524006  78.9145823  79.8828699  -3.6249290
  78.0449133  80.1762265  -3.8966702  79.1505304  80.4669144  -2.9042027
  77.8106349  80.5680392   1.8084293  77.7103076  81.5174749   1.7396384
  77.5927891  80.2398631   0.9360363  77.6737619  83.9977531   0.6249354
  77.1904701  84.7977891   0.8313243  77.7598558  84.0085475  -0.3283202
  69.4445253  80.7921315  -4.0719217  70.0904116  80.2820269  -3.5831992
  69.2362404  81.5289997  -3.4975792  73.7842744  77.9388932   0.0255797
  74.6474205  77.5825737   0.2359122  73.2108154  77.6002827   0.7131201
  80.2538930  61.0876334 -13.8016797  79.5779567  60.9870463 -13.1314422
  81.0766564  60.9315547 -13.3380800  77.6737620  61.0039653 -12.6505339
  77.1904702  61.8040013 -12.4441450  77.7598559  61.0147598 -13.6037895
   3.0213987 117.9097873  55.7418285   3.6158478 117.6693608  55.0311593
   3.0940571 117.1905003  56.3691821   6.9114481 100.3964670  41.7835464
   6.1578190  99.8272068  41.6279469   7.0462023 100.3627335  42.7306099
   0.9878627 100.5493307  38.8937608   0.8496525 100.7394903  37.9658797
   0.6314846 101.3112690  39.3505659   1.0148006 102.6169834  43.9048879
   1.4484513 102.5245123  44.7531933   1.7279587 102.5927334  43.2668895
   1.8763556 102.6593535  46.4381765   2.0699446 103.5639345  46.6841040
   1.7764174 102.2000954  47.2720350   3.1305619  99.2167201  43.0829669
   3.1195495 100.0991917  42.7123602   2.2622999  98.8638752  42.8884206
   3.7330229 100.3667421  39.6879131   4.1761375  99.6174746  39.2898255
   2.8556739 100.3577557  39.3052863   0.7657434 104.3697468  36.6973061
   1.2908758 104.7084740  35.9722381   0.6779786 103.4344483  36.5136195
   0.5749215 101.8522838  49.3156987   0.6247220 101.6872845  50.2572510
   0.4663138 100.9850097  48.9254868   2.0767412 104.2719779  49.5599009
   1.7852220 104.6349760  50.3962470   1.4639543 103.5586787  49.3812341
   3.2763094 101.8372659  42.0801579   4.1109985 102.2762463  42.2439139
   3.4122223 101.3611312  41.2609825   1.5044347  99.4924273  45.3749672
   1.4720667  98.5540274  45.5609356   2.1144970  99.5708310  44.6415497
   1.6538835  96.2835317  45.4207955   1.1377884  95.4993774  45.2337884
   2.5378784  95.9554034  45.5854475   7.3220896 100.5540280  44.5155709
   8.0524285 100.2925568  45.0763412   6.7127842  99.8169002  44.5557777
   5.4036194  98.6948143  45.1130160   4.6769357  98.5604108  44.5046652
   4.9883480  99.0024972  45.9186878   3.0213988  94.9159995  42.4663592
   3.6158479  94.6755731  41.7556900   3.0940572  94.1967126  43.0937128
   1.0172723  95.4830123  38.7335721   0.7609658  95.0826758  39.5643929
   0.3925591  96.1973917  38.6085861   5.3285061  98.2226196  41.2407013
   4.7684619  98.2919385  42.0138575   4.7228565  98.0467181  40.5206509
   6.9141080 114.8982710  43.9336968   7.5519490 114.7789457  43.2300309
   6.7961923 115.8463554  43.9924921   3.7230786 114.8510138  43.8698493
   3.3849297 114.7351203  42.9819028   4.5920554 114.4501303  43.8499499
   4.2050569 116.0044990  49.8284699   4.1939210 115.6097788  48.9565202
   4.3671208 115.2711062  50.4218470   1.8514037 116.1658950  45.3665242
   2.4477609 115.9414972  44.6522205   1.9089008 115.4243696  45.9690690
   6.4682348 112.6234164  41.0090177   7.2545437 112.2053587  40.6580594
   6.7321052 113.5280256  41.1771825  11.8690775 112.5609397  41.9123155
  12.6015947 111.9908614  42.1460985  11.1130131 112.1730997  42.3529661
   3.4866895 114.9836638  39.1086498   3.1225102 114.4567259  39.8199419
   4.3434011 114.5935107  38.9352983   9.3916196 106.2730971  46.3717764
   9.0599520 107.1426382  46.1478979   8.7961809 105.9567255  47.0511794
   5.8847715 118.4743517  45.7713676   5.5848438 119.3768556  45.6629484
   5.5398775 118.2075700  46.6234829   9.2844859 110.9926057  43.4511114
   8.3761736 110.9241466  43.1569875   9.2332455 111.4698002  44.2792939
   3.3585725 112.4115703  51.3946011   2.5819059 112.9709623  51.3848876
   3.9976288 112.8972486  51.9160881  11.1506505 109.1942496  45.2288988
  10.5080886 109.4875029  44.5828782  10.6461434 109.0795416  46.0342184
   8.8046669 112.9405669  35.9174847   9.7164525 113.1733056  35.7422544
   8.2956316 113.5242713  35.3549925   1.6132097 115.2201156  50.9563978
   2.3546781 115.7586200  50.6798802   0.9069082 115.8467445  51.1135530
   7.0887437 117.3630297  49.5536139   7.4970793 116.9212707  48.8090772
   6.3664698 116.7882924  49.8070332   3.4418507 112.3002903  46.9269696
   4.2879702 112.7242317  47.0704345   3.3817144 111.6436528  47.6208260
   7.4116251 117.9231487  43.3088428   6.7825114 118.0877201  42.6064496
   7.0241913 118.3373097  44.0799392  11.2905483 118.8585925  40.6632792
  10.6056521 119.2384826  40.1129825  11.3749333 119.4681252  41.3964740
   6.5917952 109.9607272  48.5850870   6.3478884 110.7149332  48.0485146
   6.8677883 110.3392619  49.4198117   8.5456415 116.5045884  47.2628136
   8.7573310 117.1477644  46.5862517   8.4986163 115.6708201  46.7950066
   6.1482644 109.1163705  44.1664708   5.2867123 109.4144958  44.4581445
   6.1745078 109.3334104  43.2345740   2.9644213 117.6605895  40.5738513
   3.4282559 117.9393598  39.7843136   2.7001011 116.7589340  40.3911604
   9.6602243 119.3817840  45.4350493  10.4819686 118.9798027  45.1533175
   9.6564646 119.2786074  46.3866609  17.7508236 115.7256588  41.7835464
  16.9971944 115.1563986  41.6279469  17.8855777 115.6919253  42.7306099
   2.5442164 108.0919449  51.7124796   3.2851878 108.6926602  51.6329258
   2.7760087 107.3497087  51.1542838   6.4899327 104.1200552  45.9889077
   6.1463597 105.0102194  45.9128188   6.8578290 103.9302210  45.1258662
   4.0396721 108.9558864  39.5546751   3.1838318 108.5665715  39.3752389
   4.4523673 109.0350825  38.6946536   5.5695868 106.4905207  43.9538311
   5.0660663 106.4535343  43.1406116   5.8626475 107.3997950  44.0134967
   1.8138754 106.5743937  42.9604492   2.6791750 106.3786746  42.6010382
   1.8816263 106.3454289  43.8873849  11.4283884 116.8641518  36.4314686
  10.6513327 116.5252677  35.9869848  12.1075365 116.8694141  35.7569651
   6.2435913 111.9836255  36.3221294   5.9386049 112.2982405  37.1731437
   7.1966355 112.0617675  36.3648627   9.6675191 116.3375499  43.0881294
   9.0098866 117.0274761  43.1761422  10.4715590 116.7271931  43.4315280
   8.4780650 114.6919872  41.1385236   8.9912532 115.3249864  41.6406945
   9.1281874 114.0921067  40.7728596   1.7223741 105.6787394  39.0595928
   1.0688153 105.3636411  38.4352543   1.6804215 105.0563134  39.7855751
   4.9561481 112.1669327  43.3843576   4.0384042 112.3884274  43.2265264
   5.3721624 112.2415638  42.5255283   5.7396529 113.5660743  38.5146256
   6.4868348 114.0782140  38.2053378   6.0088118 113.2444796  39.3750650
   9.2442446 119.6725873  39.2664378   8.7904773 118.8316783  39.3229569
   8.6136413 120.3087272  39.6039158   8.1875366 110.6017859  40.4965046
   7.4498123 110.0895246  40.8275288   8.4402139 110.1618241  39.6848323
   8.2886993 103.3794111  41.0906815   8.5945870 102.5191475  40.8032730
   9.0139598 103.9711732  40.8905809   2.5608073 113.6747904  41.5983006
   2.6156683 112.7221741  41.5225483   1.7499275 113.8307344  42.0824304
   6.0974644 112.7566789  48.1888279   6.4524032 112.9838262  49.0482745
   6.7446776 113.0885165  47.5665534  11.8272381 115.8785225  38.8937608
  11.6890280 116.0686821  37.9658797  11.4708600 116.6404607  39.3505659
  11.8541761 117.9461752  43.9048879  12.2878268 117.8537041  44.7531933
  12.5673342 117.9219252  43.2668895  12.7157311 117.9885452  46.4381765
  12.9093201 118.8931263  46.6841040  12.6157929 117.5292871  47.2720350
   4.3693621 107.8743343  48.9372092   3.7221536 108.5733292  48.8436568
   5.1394637 108.3079487  49.3048340   7.7772419 118.1392195  52.0122645
   7.6257926 117.9102747  51.0952729   7.7677099 119.0962796  52.0253990
   4.5457756 115.7124108  46.9968912   5.4749816 115.8635267  46.8237879
   4.1248786 115.8008129  46.1417558   1.4977847 114.2343964  47.1692548
   2.2077466 113.5937156  47.1279166   1.4547155 114.4856859  48.0918729
   9.4882033 119.1350901  48.3213107   8.6008812 118.7976823  48.4439506
  10.0580584 118.4033933  48.5581872   6.1169616 108.8418753  41.4411377
   6.6138316 108.0888716  41.1212447   5.3456598 108.8783070  40.8754586
  13.9699374 114.5459119  43.0829669  13.9589250 115.4283834  42.7123602
  13.1016753 114.1930670  42.8884206   7.1999397 117.5990441  39.0149800
   6.2655676 117.7191903  38.8454505   7.3776065 116.6962907  38.7509810
   2.7004585 110.9836136  41.1683062   2.3302373 110.4307177  41.8563967
   3.1963677 110.3794270  40.6158062  10.5871948 113.4407760  39.5499835
  11.0532401 114.2735751  39.4760137  11.0379449 112.9752741  40.2545093
   8.6548179 119.7851581  36.5485987   8.9308023 119.6708176  37.4579861
   7.7852678 119.3869066  36.5098160   8.5588611 105.8088347  43.5890736
   7.6451691 106.0392574  43.7572943   8.9881713 105.8926791  44.4404768
   8.3295070 113.9978239  46.0890630   7.6766520 114.2454146  45.4343083
   8.7075449 113.1842377  45.7553107   4.3782643 114.7398050  52.5756667
   3.7023280 114.6392179  53.2459042   5.2010276 114.5837264  53.0392664
   0.6808294 107.6850112  49.2495757   1.2042696 107.9312408  50.0122066
   0.4620628 108.5170147  48.8298894   1.8860840 108.6263807  46.9345428
   1.5457660 107.8271620  47.3366108   1.1799846 108.9265518  46.3622261
   2.5377311 105.7113119  45.3872751   3.3603381 105.2373598  45.2651641
   2.7815375 106.4903603  45.8871437   5.3216669 109.4446527  36.6193985
   5.5380283 110.3271165  36.3182813   4.8410736 109.0532740  35.8899627
   1.9212273 109.3934788  43.2445619   1.9073842 108.4975881  42.9077917
   2.6384701 109.4005452  43.8783905   3.7738404 109.8272128  45.2898746
   3.5156182 110.7489199  45.2883077   3.2423444 109.4302563  45.9799210
   1.3249169 108.2749168  38.5133189   1.4465080 107.3465814  38.7124076
   1.0351211 108.2887854  37.6011504   4.1940359 105.9604079  41.6499909
   4.2162056 106.0243412  40.6951888   4.6108418 105.1208587  41.8440415
  14.5723984 115.6959338  39.6879131  15.0155130 114.9466663  39.2898255
  13.6950494 115.6869475  39.3052863  11.6051188 119.6989385  36.6973061
  12.1302512 120.0376658  35.9722381  11.5173541 118.7636401  36.5136195
   0.8090248 109.7881166  52.7223122   0.8578404 110.6643288  52.3400891
   1.3512763 109.2458559  52.1494765  11.2945094 120.3322289  52.0024259
  10.5040638 120.3146428  51.4628758  11.0578449 120.8710583  52.7573295
  11.4142969 117.1814755  49.3156987  11.4640974 117.0164763  50.2572510
  11.3056893 116.3142014  48.9254868   8.7046732 113.1645683  50.6316294
   9.6056594 113.0252148  50.3400292   8.7794706 113.3300138  51.5714471
   3.0389537 110.5412538  49.4769480   2.1692846 110.8346104  49.2052069
   3.2749017 111.1252983  50.1976744  12.9161166 119.6011697  49.5599009
  12.6245974 119.9641677  50.3962470  12.3033297 118.8878705  49.3812341
  14.1156848 117.1664577  42.0801579  14.9503740 117.6054381  42.2439139
  14.2515977 116.6903230  41.2609825  11.1648354 114.7244311  48.0279067
  11.6402476 114.9171958  47.2197918  10.2413920 114.7803497  47.7822450
   5.7428571 106.7592155  46.9934901   6.2610515 107.4953182  46.6681389
   5.3883704 107.0656148  47.8281660   5.9941165 103.1792437  42.5135797
   6.2742919 102.5115627  43.1396224   6.7791772 103.3721533  42.0010461
   9.8650023 111.6010071  46.2607372  10.8167446 111.7008169  46.2819596
   9.6953474 110.8088340  46.7705457   7.8864403 108.6865655  46.4466773
   7.2914335 108.9670667  45.7513262   7.6014099 109.1759556  47.2183514
  12.3438101 114.8216191  45.3749672  12.3114421 113.8832192  45.5609356
  12.9538725 114.9000228  44.6415497  12.4932590 111.6127235  45.4207955
  11.9771638 110.8285691  45.2337884  13.3772538 111.2845951  45.5854475
  10.1543316 105.3568250  41.3803768   9.9568138 105.0483338  42.2647100
  10.7643022 106.0829889  41.5101698  18.1614651 115.8832198  44.5155709
  18.8918039 115.6217486  45.0763412  17.5521596 115.1460920  44.5557777
  16.2429948 114.0240061  45.1130160  15.5163112 113.8896026  44.5046652
  15.8277235 114.3316889  45.9186878   4.0660124 117.7429990  52.8777533
   4.9863134 117.9208589  53.0717580   4.0309707 116.7986036  52.7257232
   3.9826415 106.1599110  37.5076003   3.1727143 105.8146195  37.8831249
   4.6710832 105.8506654  38.0963614   5.9116963 105.2377157  39.1300299
   6.4648002 105.6572610  39.7890322   6.1487049 104.3112905  39.1723255
   1.9350062 111.2264231  54.9103063   1.8346789 112.1758588  54.8415154
   1.7171604 110.8982470  54.0379133   9.2895770 107.3477682  38.6378963
   8.7094439 108.0062486  38.2557016   9.0231703 106.5255027  38.2266381
   7.7399337 106.7482740  40.8400284   8.2399115 106.8599274  40.0314603
   8.3834944 106.4443793  41.4801092   1.7981332 114.6561370  53.7268125
   1.3148414 115.4561730  53.9332014   1.8842271 114.6669314  52.7735569
   8.0720648 109.5077773  37.6935312   7.1846503 109.7927423  37.4755506
   8.4874637 109.3471536  36.8462589  11.4235184 109.5324294  41.4089651
  12.1995574 110.0220746  41.6814268  10.6983318 109.9582348  41.8661520
  13.8607743 110.2451913  42.4663592  14.4552234 110.0047649  41.7556900
  13.9334327 109.5259043  43.0937128   8.0461672 115.0232309  37.9085602
   7.9896873 115.4800860  37.0693234   8.5990014 114.2622993  37.7308445
  11.8566478 110.8122040  38.7335721  11.6003412 110.4118676  39.5643929
  11.2319346 111.5265834  38.6085861  16.1678816 113.5518114  41.2407013
  15.6078374 113.6211303  42.0138575  15.5622319 113.3759098  40.5206509
   8.7796451 116.2137090  35.2038131   8.7245255 116.0481361  34.2626575
   8.1542507 116.9213123  35.3600321   6.0942358 118.5186002  54.5291694
   6.9633518 118.6926654  54.1678329   5.6149110 119.3380418  54.4067423
   2.0892577 105.7145199  34.7823449   2.0771247 106.6587039  34.9391720
   2.9815999 105.5315344  34.4882911   5.9044696 102.3087975  39.0369386
   5.1377092 101.7546462  39.1826069   6.3155401 102.3809844  39.8983538
  20.2309950 121.6022889  46.3717764  19.8993275 122.4718300  46.1478979
  19.6355564 121.2859173  47.0511794  21.9900260 124.5234413  45.2288988
  21.3474640 124.8166946  44.5828782  21.4855188 124.4087334  46.0342184
  17.3293082 119.4492470  45.9889077  16.9857351 120.3394112  45.9128188
  17.6972045 119.2594128  45.1258662  16.4089622 121.8197125  43.9538311
  15.9054418 121.7827260  43.1406116  16.7020229 122.7289868  44.0134967
  12.5617495 121.0079312  39.0595928  11.9081907 120.6928329  38.4352543
  12.5197969 120.3855052  39.7855751  19.1280748 118.7086029  41.0906815
  19.4339624 117.8483393  40.8032730  19.8533352 119.3003649  40.8905809
  19.3982366 121.1380264  43.5890736  18.4845445 121.3684491  43.7572943
  19.8275467 121.2218709  44.4404768  13.3771066 121.0405037  45.3872751
  14.1997135 120.5665515  45.2651641  13.6209129 121.8195521  45.8871437
  15.0334114 121.2895996  41.6499909  15.0555811 121.3535329  40.6951888
  15.4502173 120.4500505  41.8440415  16.5822325 122.0884073  46.9934901
  17.1004269 122.8245100  46.6681389  16.2277458 122.3948066  47.8281660
  16.8334919 118.5084355  42.5135797  17.1136673 117.8407544  43.1396224
  17.6185526 118.7013451  42.0010461  20.9937071 120.6860168  41.3803768
  20.7961892 120.3775256  42.2647100  21.6036777 121.4121807  41.5101698
  14.8220169 121.4891028  37.5076003  14.0120898 121.1438113  37.8831249
  15.5104586 121.1798572  38.0963614  16.7510718 120.5669075  39.1300299
  17.3041756 120.9864528  39.7890322  16.9880804 119.6404823  39.1723255
  20.1289525 122.6769600  38.6378963  19.5488194 123.3354404  38.2557016
  19.8625457 121.8546944  38.2266381  18.5793091 122.0774658  40.8400284
  19.0792869 122.1891192  40.0314603  19.2228699 121.7735710  41.4801092
  24.7001497 125.5743830  42.4663592  25.2945988 125.3339566  41.7556900
  24.7728081 124.8550961  43.0937128  16.7438451 117.6379893  39.0369386
  15.9770846 117.0838380  39.1826069  17.1549156 117.7101762  39.8983538
   6.9114483  77.4026793  28.5080771   6.1578191  76.8334191  28.3524776
   7.0462024  77.3689457  29.4551406   0.9878628  77.5555430  25.6182914
   0.8496527  77.7457025  24.6904104   0.6314847  78.3174812  26.0750966
   1.0148008  79.6231957  30.6294186   1.4484514  79.5307246  31.4777240
   1.7279588  79.5989457  29.9914202   1.8763557  79.6655657  33.1627071
   2.0699447  80.5701468  33.4086346   1.7764175  79.2063076  33.9965656
   3.1305620  76.2229324  29.8074975   3.1195497  77.1054039  29.4368908
   2.2623000  75.8700875  29.6129512   3.7330230  77.3729543  26.4124438
   4.1761376  76.6236868  26.0143561   2.8556741  77.3639680  26.0298170
   0.7657435  81.3759590  23.4218367   1.2908759  81.7146863  22.6967687
   0.6779787  80.4406605  23.2381502   0.5749216  78.8584960  36.0402294
   0.6247221  78.6934968  36.9817817   0.4663139  77.9912219  35.6500175
   2.0767413  81.2781902  36.2844315   1.7852221  81.6411882  37.1207776
   1.4639544  80.5648910  36.1057647   3.2763095  78.8434781  28.8046886
   4.1109986  79.2824586  28.9684446   3.4122224  78.3673435  27.9855131
   1.5044348  76.4986396  32.0994979   1.4720668  75.5602397  32.2854662
   2.1144971  76.5770433  31.3660803   1.6538836  73.2897440  32.1453262
   1.1377885  72.5055896  31.9583191   2.5378785  72.9616156  32.3099781
   7.3220898  77.5602403  31.2401015   8.0524286  77.2987691  31.8008719
   6.7127843  76.8231125  31.2803083   5.4036195  75.7010266  31.8375467
   4.6769358  75.5666230  31.2291958   4.9883482  76.0087094  32.6432185
   3.0213990  71.9222118  29.1908898   3.6158481  71.6817854  28.4802206
   3.0940573  71.2029248  29.8182434   1.0172725  72.4892245  25.4581028
   0.7609659  72.0888881  26.2889236   0.3925593  73.2036039  25.3331167
   5.3285062  75.2288319  27.9652319   4.7684620  75.2981508  28.7383881
   4.7228566  75.0529303  27.2451816   6.9141081  91.9044832  30.6582275
   7.5519491  91.7851580  29.9545615   6.7961924  92.8525676  30.7170227
   3.7230787  91.8572261  30.5943800   3.3849299  91.7413325  29.7064335
   4.5920555  91.4563426  30.5744806   4.2050570  93.0107112  36.5530005
   4.1939211  92.6159911  35.6810509   4.3671210  92.2773185  37.1463777
   0.9257831  95.7944224  35.5009189   0.6347697  96.6989855  35.3855856
   1.5614816  95.8360752  36.2153259   1.8514038  93.1721073  32.0910549
   2.4477610  92.9477095  31.3767512   1.9089010  92.4305818  32.6935997
   6.4682349  89.6296286  27.7335483   7.2545439  89.2115710  27.3825900
   6.7321054  90.5342379  27.9017132  11.8690777  89.5671520  28.6368462
  12.6015948  88.9970736  28.8706291  11.1130132  89.1793120  29.0774967
   3.4866896  91.9898761  25.8331804   3.1225103  91.4629382  26.5444726
   4.3434012  91.5997230  25.6598290   9.3916197  83.2793094  33.0963070
   9.0599522  84.1488505  32.8724285   8.7961810  82.9629378  33.7757101
   5.8847716  95.4805640  32.4958983   5.5848440  96.3830678  32.3874790
   5.5398776  95.2137823  33.3480136   9.2844860  87.9988180  30.1756420
   8.3761738  87.9303588  29.8815181   9.2332456  88.4760125  31.0038246
   3.3585726  89.4177825  38.1191318   2.5819060  89.9771746  38.1094182
   3.9976289  89.9034608  38.6406188  11.1506507  86.2004618  31.9534294
  10.5080887  86.4937151  31.3074089  10.6461435  86.0857539  32.7587491
   8.8046670  89.9467791  22.6420154   9.7164526  90.1795178  22.4667851
   8.2956317  90.5304836  22.0795232   1.6132098  92.2263279  37.6809285
   2.3546783  92.7648323  37.4044108   0.9069084  92.8529568  37.8380836
   7.0887438  94.3692419  36.2781446   7.4970794  93.9274830  35.5336078
   6.3664699  93.7945047  36.5315639   3.4418508  89.3065026  33.6515003
   4.2879703  89.7304440  33.7949652   3.3817146  88.6498650  34.3453566
   7.4116253  94.9293610  30.0333735   6.7825115  95.0939324  29.3309803
   7.0241915  95.3435219  30.8044699  11.2905484  95.8648048  27.3878099
  10.6056523  96.2446949  26.8375132  11.3749334  96.4743374  28.1210047
   6.5917953  86.9669394  35.3096177   6.3478885  87.7211455  34.7730452
   6.8677884  87.3454742  36.1443424   8.5456416  93.5108007  33.9873442
   8.7573311  94.1539767  33.3107823   8.4986164  92.6770323  33.5195372
   6.1482645  86.1225827  30.8910014   5.2867124  86.4207081  31.1826752
   6.1745080  86.3396226  29.9591047   2.9644214  94.6668018  27.2983820
   3.4282560  94.9455721  26.5088443   2.7001013  93.7651463  27.1156911
   9.6602244  96.3879962  32.1595800  10.4819688  95.9860149  31.8778481
   9.6564647  96.2848196  33.1111915   3.4258847  95.9364005  34.3156510
   3.4903280  96.3984413  35.1514682   2.7169771  95.3061370  34.4438820
  17.7508237  92.7318711  28.5080771  16.9971945  92.1626109  28.3524776
  17.8855778  92.6981375  29.4551406   2.5442166  85.0981572  38.4370102
   3.2851879  85.6988725  38.3574565   2.7760089  84.3559210  37.8788145
   4.7675342  98.2255679  38.3135833   4.3239196  97.4392058  37.9956737
   5.4292555  98.4134830  37.6479723   6.8656580  98.5058479  36.3417234
   6.8475055  99.3267360  35.8497503   7.7876500  98.3812555  36.5667375
   3.3229634  96.0202609  37.1840742   3.8557971  95.2590897  36.9540050
   2.7943715  95.7276261  37.9264897   6.4899329  81.1262675  32.7134384
   6.1463598  82.0164317  32.6373494   6.8578291  80.9364332  31.8503969
   4.0396722  85.9620987  26.2792057   3.1838319  85.5727837  26.0997696
   4.4523674  86.0412948  25.4191843   5.5695869  83.4967330  30.6783617
   5.0660665  83.4597465  29.8651422   5.8626476  84.4060073  30.7380274
   1.8138755  83.5806060  29.6849799   2.6791752  83.3848868  29.3255688
   1.8816264  83.3516411  30.6119156  11.4283886  93.8703641  23.1559992
  10.6513328  93.5314800  22.7115155  12.1075367  93.8756264  22.4814958
   6.2435915  88.9898378  23.0466600   5.9386050  89.3044527  23.8976743
   7.1966357  89.0679798  23.0893933   9.6675192  93.3437622  29.8126600
   9.0098867  94.0336883  29.9006729  10.4715592  93.7334054  30.1560587
   8.4780651  91.6981995  27.8630542   8.9912533  92.3311986  28.3652252
   9.1281875  91.0983190  27.4973902   1.7223742  82.6849517  25.7841235
   1.0688154  82.3698534  25.1597850   1.6804216  82.0625257  26.5101058
   4.9561482  89.1731450  30.1088883   4.0384043  89.3946397  29.9510571
   5.3721626  89.2477761  29.2500590   5.7396530  90.5722866  25.2391563
   6.4868349  91.0844263  24.9298685   6.0088119  90.2506918  26.0995957
   9.2442447  96.6787996  25.9909685   8.7904775  95.8378906  26.0474875
   8.6136414  97.3149394  26.3284465   8.1875367  87.6079982  27.2210352
   7.4498124  87.0957368  27.5520595   8.4402141  87.1680364  26.4093629
   7.6875387  98.5164493  26.9259503   7.9798361  99.0769550  26.2071869
   8.1974007  98.8093054  27.6812662   8.2886994  80.3856234  27.8152122
   8.5945871  79.5253597  27.5278037   9.0139599  80.9773854  27.6151115
   2.5608074  90.6810027  28.3228313   2.6156684  89.7283863  28.2470789
   1.7499276  90.8369466  28.8069611   6.0974646  89.7628911  34.9133585
   6.4524033  89.9900384  35.7728051   6.7446777  90.0947288  34.2910841
  11.8272383  92.8847347  25.6182914  11.6890281  93.0748943  24.6904104
  11.4708601  93.6466730  26.0750966  11.8541762  94.9523874  30.6294186
  12.2878269  94.8599163  31.4777240  12.5673343  94.9281375  29.9914202
   5.5869657  98.5525968  32.1627287   5.6406679  99.1216905  32.9305002
   4.7184439  98.7227853  31.7981324  12.7157312  94.9947575  33.1627071
  12.9093202  95.8993385  33.4086346  12.6157930  94.5354994  33.9965656
   4.3693623  84.8805465  35.6617399   3.7221538  85.5795415  35.5681875
   5.1394638  85.3141609  36.0293647   7.7772420  95.1454318  38.7367952
   7.6257927  94.9164869  37.8198036   7.7677100  96.1024919  38.7499297
   4.5457757  92.7186230  33.7214218   5.4749817  92.8697390  33.5483186
   4.1248787  92.8070251  32.8662865   3.3446089  96.7436895  31.4912756
   3.2057174  96.3755679  32.3638694   2.5560685  97.2584534  31.3196714
   4.8951304  96.1218497  28.8801594   4.5601136  96.0819267  29.7759244
   4.3955249  95.4563213  28.4072004   1.4977848  91.2406087  33.8937855
   2.2077467  90.5999279  33.8524473   1.4547157  91.4918982  34.8164035
   9.4864627  98.1773440  36.8144434   9.4277173  97.4932660  36.1475017
   9.8884146  98.9192430  36.3625060   9.4882034  96.1413024  35.0458414
   8.6008813  95.8038946  35.1684812  10.0580585  95.4096055  35.2827179
   3.0183188 100.8014476  32.0119657   2.9453359 101.6069448  32.5238961
   2.5760581 101.0006442  31.1867678   6.1169618  85.8480876  28.1656684
   6.6138317  85.0950838  27.8457754   5.3456599  85.8845193  27.5999893
  13.9699375  91.5521241  29.8074975  13.9589251  92.4345957  29.4368908
  13.1016754  91.1992792  29.6129512   5.4781871 100.7001310  34.1677815
   6.1909844 101.3348775  34.0953717   4.9871900 100.7965176  33.3517817
   7.1999398  94.6052563  25.7395107   6.2655677  94.7254026  25.5699811
   7.3776067  93.7025030  25.4755117   2.7004586  87.9898259  27.8928368
   2.3302374  87.4369299  28.5809274   3.1963679  87.3856392  27.3403368
  10.5871950  90.4469882  26.2745141  11.0532402  91.2797874  26.2005444
  11.0379450  89.9814864  26.9790400   8.6548181  96.7913704  23.2731293
   8.9308025  96.6770298  24.1825167   7.7852679  96.3931189  23.2343466
   8.5588612  82.8150469  30.3136043   7.6451692  83.0454696  30.4818249
   8.9881714  82.8988913  31.1650075   8.3295071  91.0040361  32.8135937
   7.6766521  91.2516269  32.1588389   8.7075451  90.1904500  32.4798414
   4.3782644  91.7460172  39.3001974   3.7023281  91.6454302  39.9704349
   5.2010278  91.5899386  39.7637971   3.1205427 103.0527100  33.5359590
   3.6723735 103.2158721  34.3008675   3.4611620 103.6431538  32.8639614
   7.9716301  97.8788357  39.3908244   8.5156205  98.4918316  38.8963199
   7.3903146  98.4367936  39.9075257   6.2573814 101.0009075  30.5223272
   6.1324953 100.1998815  30.0134217   6.9152905 101.4955269  30.0337242
   8.3208722  98.8018095  32.1502822   7.3739058  98.6823447  32.0781149
   8.6691495  97.9140594  32.2329083   0.6808296  84.6912234  35.9741064
   1.2042698  84.9374531  36.7367373   0.4620629  85.5232269  35.5544201
   5.3255156  98.5970812  28.3507174   5.1780118  97.6687519  28.5314744
   6.1508649  98.6190902  27.8664249   8.9289278  99.4199370  29.4372047
   9.8535825  99.2142232  29.2996498   8.7604581  99.1715772  30.3461388
   1.8860841  85.6325930  33.6590734   1.5457661  84.8333743  34.0611414
   1.1799847  85.9327640  33.0867567   2.5377313  82.7175242  32.1118057
   3.3603382  82.2435720  31.9896948   2.7815376  83.4965726  32.6116744
   5.3216670  86.4508649  23.3439291   5.5380284  87.3333287  23.0428119
   4.8410737  86.0594863  22.6144933   1.9212274  86.3996911  29.9690925
   1.9073843  85.5038004  29.6323223   2.6384702  86.4067574  30.6029212
   3.7738405  86.8334251  32.0144053   3.5156183  87.7551321  32.0128383
   3.2423445  86.4364685  32.7044517   8.7184594  99.9385038  24.7934138
   8.8921471  99.3731460  24.0407991   9.2113485 100.7385933  24.6113628
   1.3249170  85.2811291  25.2378496   1.4465081  84.3527937  25.4369383
   1.0351213  85.2949977  24.3256811   4.1940361  82.9666201  28.3745215
   4.2162057  83.0305534  27.4197195   4.6108420  82.1270710  28.5685722
  14.5723985  92.7021461  26.4124438  15.0155131  91.9528786  26.0143561
  13.6950495  92.6931597  26.0298170  11.6051189  96.7051508  23.4218367
  12.1302513  97.0438781  22.6967687  11.5173542  95.7698523  23.2381502
   3.2671238 100.6185581  35.5508244   3.5758364 100.3734728  36.4230944
   4.0646720 100.8232220  35.0627114   0.8090250  86.7943288  39.4468428
   0.8578405  87.6705411  39.0646198   1.3512764  86.2520681  38.8740071
  11.2945095  97.3384411  38.7269565  10.5040639  97.3208550  38.1874065
  11.0578450  97.8772705  39.4818602  11.4142970  94.1876878  36.0402294
  11.4640975  94.0226885  36.9817817  11.3056894  93.3204137  35.6500175
   8.7046733  90.1707806  37.3561601   9.6056596  90.0314271  37.0645598
   8.7794707  90.3362261  38.2959778   3.0389538  87.5474661  36.2014787
   2.1692848  87.8408227  35.9297375   3.2749019  88.1315106  36.9222051
  12.9161167  96.6073819  36.2844315  12.6245976  96.9703800  37.1207776
  12.3033299  95.8940828  36.1057647  14.1156850  94.1726699  28.8046886
  14.9503741  94.6116503  28.9684446  14.2515978  93.6965352  27.9855131
  11.1648356  91.7306434  34.7524373  11.6402477  91.9234080  33.9443225
  10.2413921  91.7865620  34.5067757   5.7428572  83.7654278  33.7180207
   6.2610516  84.5015304  33.3926696   5.3883705  84.0718271  34.5526966
   5.9941166  80.1854560  29.2381104   6.2742920  79.5177749  29.8641530
   6.7791773  80.3783656  28.7255768   9.8650025  88.6072194  32.9852679
  10.8167447  88.7070292  33.0064903   9.6953475  87.8150463  33.4950763
   7.8864404  85.6927777  33.1712080   7.2914336  85.9732790  32.4758569
   7.6014101  86.1821678  33.9428821  12.3438102  91.8278314  32.0994979
  12.3114422  90.8894314  32.2854662  12.9538726  91.9062350  31.3660803
  12.4932591  88.6189357  32.1453262  11.9771639  87.8347814  31.9583191
  13.3772539  88.2908074  32.3099781  10.1543318  82.3630373  28.1049074
   9.9568139  82.0545461  28.9892406  10.7643023  83.0892012  28.2347004
  18.1614652  92.8894321  31.2401015  18.8918041  92.6279609  31.8008719
  17.5521598  92.1523043  31.2803083  16.2429949  91.0302183  31.8375467
  15.5163113  90.8958148  31.2291958  15.8277236  91.3379012  32.6432185
   4.0660126  94.7492113  39.6022840   4.9863135  94.9270712  39.7962886
   4.0309709  93.8048158  39.4502539   3.9826416  83.1661233  24.2321309
   3.1727144  82.8208318  24.6076555   4.6710833  82.8568777  24.8208921
   5.9116964  82.2439280  25.8545606   6.4648003  82.6634733  26.5135629
   6.1487051  81.3175028  25.8968562   1.9350064  88.2326353  41.6348370
   1.8346790  89.1820710  41.5660461   1.7171606  87.9044592  40.7624440
   9.2895771  84.3539805  25.3624270   8.7094440  85.0124609  24.9802322
   9.0231704  83.5317149  24.9511688   7.7399338  83.7544863  27.5645590
   8.2399116  83.8661397  26.7559909   8.3834946  83.4505915  28.2046399
   1.7981334  91.6623492  40.4513431   1.3148415  92.4623852  40.6577320
   1.8842273  91.6731437  39.4980875   8.0720649  86.5139895  24.4180618
   7.1846504  86.7989546  24.2000813   8.4874639  86.3533659  23.5707895
  11.4235186  86.5386416  28.1334958  12.1995576  87.0282869  28.4059574
  10.6983320  86.9644470  28.5906827  13.8607744  87.2514035  29.1908898
  14.4552235  87.0109771  28.4802206  13.9334328  86.5321166  29.8182434
   8.0461673  92.0294431  24.6330908   7.9896875  92.4862983  23.7938541
   8.5990016  91.2685116  24.4553751  11.8566479  87.8184163  25.4581028
  11.6003413  87.4180799  26.2889236  11.2319347  88.5327957  25.3331167
  16.1678817  90.5580236  27.9652319  15.6078375  90.6273426  28.7383881
  15.5622320  90.3821221  27.2451816   8.7796453  93.2199212  21.9283438
   8.7245256  93.0543484  20.9871882   8.1542508  93.9275245  22.0845627
   6.0942360  95.5248124  41.2537000   6.9633519  95.6988777  40.8923635
   5.6149111  96.3442541  41.1312730   2.0892578  82.7207321  21.5068756
   2.0771248  83.6649161  21.6637027   2.9816000  82.5377467  21.2128217
   5.9044697  79.3150098  25.7614693   5.1377093  78.7608585  25.9071375
   6.3155402  79.3871967  26.6228844  17.7534835 107.2336750  30.6582275
  18.3913245 107.1143498  29.9545615  17.6355678 108.1817594  30.7170227
  14.5624542 107.1864178  30.5943800  14.2243053 107.0705243  29.7064335
  15.4314310 106.7855343  30.5744806  15.0444325 108.3399030  36.5530005
  15.0332965 107.9451828  35.6810509  15.2064964 107.6065103  37.1463777
  11.7651586 111.1236142  35.5009189  11.4741452 112.0281773  35.3855856
  12.4008570 111.1652669  36.2153259  12.6907793 108.5012990  32.0910549
  13.2871365 108.2769013  31.3767512  12.7482764 107.7597736  32.6935997
  17.3076104 104.9588204  27.7335483  18.0939193 104.5407627  27.3825900
  17.5714808 105.8634296  27.9017132  22.7084531 104.8963437  28.6368462
  23.4409703 104.3262654  28.8706291  21.9523887 104.5085038  29.0774967
  14.3260651 107.3190679  25.8331804  13.9618858 106.7921300  26.5444726
  15.1827767 106.9289148  25.6598290  20.2309951  98.6085011  33.0963070
  19.8993276  99.4780422  32.8724285  19.6355565  98.2921295  33.7757101
  16.7241471 110.8097557  32.4958983  16.4242194 111.7122596  32.3874790
  16.3792530 110.5429741  33.3480136  10.1753952 107.2611354  28.5295687
   9.2504449 107.1287568  28.7373379  10.4238366 108.0405573  29.0265630
  20.1238615 103.3280098  30.1756420  19.2155492 103.2595506  29.8815181
  20.0726210 103.8052042  31.0038246  14.1979480 104.7469743  38.1191318
  13.4212815 105.3063663  38.1094182  14.8370044 105.2326526  38.6406188
  21.9900261 101.5296536  31.9534294  21.3474641 101.8229069  31.3074089
  21.4855190 101.4149456  32.7587491  19.6440425 105.2759709  22.6420154
  20.5558281 105.5087096  22.4667851  19.1350072 105.8596753  22.0795232
  12.4525853 107.5555196  37.6809285  13.1940537 108.0940240  37.4044108
  11.7462838 108.1821485  37.8380836  17.9281192 109.6984337  36.2781446
  18.3364548 109.2566747  35.5336078  17.2058454 109.1236964  36.5315639
  14.2812262 104.6356944  33.6515003  15.1273458 105.0596357  33.7949652
  14.2210900 103.9790568  34.3453566  18.2510007 110.2585528  30.0333735
  17.6218870 110.4231242  29.3309803  17.8635669 110.6727137  30.8044699
  22.1299239 111.1939965  27.3878099  21.4450277 111.5738867  26.8375132
  22.2143088 111.8035292  28.1210047  17.4311708 102.2961312  35.3096177
  17.1872640 103.0503373  34.7730452  17.7071638 102.6746660  36.1443424
  19.3850171 108.8399924  33.9873442  19.5967066 109.4831684  33.3107823
  19.3379919 108.0062241  33.5195372  16.9876400 101.4517745  30.8910014
  16.1260879 101.7498999  31.1826752  17.0138834 101.6688144  29.9591047
  13.8037969 109.9959936  27.2983820  14.2676314 110.2747639  26.5088443
  13.5394767 109.0943380  27.1156911  10.6962050 109.5431417  30.2363583
  11.2663407 109.9718686  29.5981068  11.2870162 109.2614002  30.9347769
  11.1887217 104.7094845  38.4824595  10.5585877 105.3911125  38.7159991
  11.0823304 104.5977926  37.5377733  20.4995999 111.7171880  32.1595800
  21.3213442 111.3152067  31.8778481  20.4958401 111.6140114  33.1111915
  14.2652602 111.2655923  34.3156510  14.3297034 111.7276330  35.1514682
  13.5563526 110.6353288  34.4438820   4.7669892 104.6297131  31.8405510
   5.0177930 105.5144141  32.1063086   5.3029440 104.4501733  31.0680601
  28.5901992 108.0610628  28.5080771  27.8365700 107.4918026  28.3524776
  28.7249533 108.0273293  29.4551406  10.4667959  99.0115610  40.8449846
  10.0734905  98.4581809  41.5197490  11.2834100  99.3226189  41.2356363
  13.3835920 100.4273490  38.4370102  14.1245634 101.0280643  38.3574565
  13.6153843  99.6851127  37.8788145   8.5277258 105.6129857  36.7148332
   8.4130773 104.7115114  37.0155431   7.6721776 105.8593554  36.3633148
  15.6069096 113.5547597  38.3135833  15.1632950 112.7683976  37.9956737
  16.2686310 113.7426748  37.6479723  10.3656217 115.0843399  32.8396511
  10.9163642 114.9560462  32.0673505   9.5267693 115.3838288  32.4891404
  17.7050334 113.8350397  36.3417234  17.6868809 114.6559278  35.8497503
  18.6270254 113.7104472  36.5667375  14.1623388 111.3494527  37.1840742
  14.6951725 110.5882815  36.9540050  13.6337469 111.0568178  37.9264897
  17.3293083  96.4554593  32.7134384  16.9857353  97.3456234  32.6373494
  17.6972046  96.2656250  31.8503969  14.8790477 101.2912904  26.2792057
  14.0232073 100.9019755  26.0997696  15.2917429 101.3704865  25.4191843
  16.4089624  98.8259248  30.6783617  15.9054419  98.7889383  29.8651422
  16.7020230  99.7351990  30.7380274  12.6532509  98.9097977  29.6849799
  13.5185506  98.7140786  29.3255688  12.7210018  98.6808329  30.6119156
  22.2677640 109.1995558  23.1559992  21.4907083 108.8606718  22.7115155
  22.9469121 109.2048181  22.4814958  17.0829669 104.3190296  23.0466600
  16.7779805 104.6336445  23.8976743  18.0360111 104.3971716  23.0893933
  20.5068947 108.6729540  29.8126600  19.8492621 109.3628801  29.9006729
  21.3109346 109.0625971  30.1560587  10.2594829 101.1400185  27.0566166
  10.8338580 100.9175367  26.3239359  10.8465811 101.2088880  27.8094767
  19.3174406 107.0273912  27.8630542  19.8306287 107.6603904  28.3652252
  19.9675630 106.4275108  27.4973902  12.5617496  98.0141434  25.7841235
  11.9081909  97.6990451  25.1597850  12.5197970  97.3917175  26.5101058
  15.7955237 104.5023368  30.1088883  14.8777798 104.7238315  29.9510571
  16.2115380 104.5769678  29.2500590  16.5790284 105.9014783  25.2391563
  17.3262103 106.4136181  24.9298685  16.8481874 105.5798836  26.0995957
  20.0836202 112.0079914  25.9909685  19.6298529 111.1670824  26.0474875
  19.4530169 112.6441312  26.3284465  19.0269122 102.9371900  27.2210352
  18.2891878 102.4249286  27.5520595  19.2795895 102.4972281  26.4093629
  18.5269141 113.8456410  26.9259503  18.8192116 114.4061467  26.2071869
  19.0367762 114.1384971  27.6812662  19.1280749  95.7148152  27.8152122
  19.4339626  94.8545515  27.5278037  19.8533354  96.3065772  27.6151115
  13.4001829 106.0101945  28.3228313  13.4550438 105.0575781  28.2470789
  12.5893031 106.1661384  28.8069611  11.3394189 104.6279004  26.0818692
  10.5262054 104.9273175  26.4883884  11.8353183 104.2334693  26.7993174
  16.9368400 105.0920829  34.9133585  17.2917788 105.3192302  35.7728051
  17.5840531 105.4239206  34.2910841  22.6666137 108.2139265  25.6182914
  22.5284036 108.4040861  24.6904104  22.3102356 108.9758648  26.0750966
  10.8308263 102.1997360  31.6979926  11.4707643 102.0586119  31.0002890
   9.9985794 101.9131873  31.3218528  22.6935517 110.2815792  30.6294186
  23.1272023 110.1891081  31.4777240  23.4067097 110.2573292  29.9914202
  16.4263412 113.8817886  32.1627287  16.4800434 114.4508822  32.9305002
  15.5578193 114.0519771  31.7981324   9.3061805 103.5835442  33.6451738
   9.9784858 103.3752804  32.9964387   8.4791592 103.3857528  33.2056970
  23.5551066 110.3239493  33.1627071  23.7486956 111.2285303  33.4086346
  23.4551684 109.8646912  33.9965656  15.2087377 100.2097383  35.6617399
  14.5615292 100.9087333  35.5681875  15.9788392 100.6433527  36.0293647
  18.6166175 110.4746235  38.7367952  18.4651681 110.2456787  37.8198036
  18.6070854 111.4316837  38.7499297  15.3851511 108.0478148  33.7214218
  16.3143571 108.1989308  33.5483186  14.9642541 108.1362169  32.8662865
  14.1839843 112.0728812  31.4912756  14.0450929 111.7047597  32.3638694
  13.3954439 112.5876452  31.3196714  15.7345058 111.4510415  28.8801594
  15.3994891 111.4111185  29.7759244  15.2349004 110.7855131  28.4072004
   9.7089302 106.8578045  34.4054175   9.5709100 106.1258284  35.0065714
  10.6194226 106.7686945  34.1238363  12.3371603 106.5698004  33.8937855
  13.0471221 105.9291197  33.8524473  12.2940911 106.8210899  34.8164035
  20.3258382 113.5065358  36.8144434  20.2670928 112.8224578  36.1475017
  20.7277900 114.2484348  36.3625060  11.0500537 103.5563222  35.7133494
  10.5137894 103.1053961  36.3655090  10.4617245 103.6909131  34.9703958
  20.3275789 111.4704942  35.0458414  19.4402568 111.1330864  35.1684812
  20.8974340 110.7387973  35.2827179   6.7839658 102.6919230  32.7986489
   6.6997847 102.0844900  32.0636899   5.9622365 103.1828248  32.7995985
  13.8576942 116.1306394  32.0119657  13.7847114 116.9361366  32.5238961
  13.4154335 116.3298360  31.1867678  16.9563372 101.1772794  28.1656684
  17.4532072 100.4242756  27.8457754  16.1850354 101.2137110  27.5999893
  24.8093129 106.8813159  29.8074975  24.7983006 107.7637875  29.4368908
  23.9410509 106.5284710  29.6129512  16.3175626 116.0293228  34.1677815
  17.0303598 116.6640693  34.0953717  15.8265654 116.1257094  33.3517817
  18.0393153 109.9344481  25.7395107  17.1049431 110.0545943  25.5699811
  18.2169821 109.0316948  25.4755117  13.5398341 103.3190177  27.8928368
  13.1696128 102.7661217  28.5809274  14.0357433 102.7148310  27.3403368
  21.4265704 105.7761800  26.2745141  21.8926156 106.6089792  26.2005444
  21.8773205 105.3106782  26.9790400  11.3687539 113.7787672  34.9883386
  12.0696999 114.4124155  35.1412780  10.8982654 114.1202403  34.2279025
  19.4941935 112.1205621  23.2731293  19.7701779 112.0062216  24.1825167
  18.6246434 111.7223106  23.2343466  19.3982367  98.1442387  30.3136043
  18.4845447  98.3746614  30.4818249  19.8275468  98.2280831  31.1650075
  19.1688825 106.3332279  32.8135937  18.5160276 106.5808186  32.1588389
  19.5469205 105.5196417  32.4798414  15.2176398 107.0752090  39.3001974
  14.5417035 106.9746219  39.9704349  16.0404032 106.9191304  39.7637971
  13.9599181 118.3819018  33.5359590  14.5117489 118.5450639  34.3008675
  14.3005375 118.9723455  32.8639614   8.9363674 100.7294167  34.1381474
   9.0005001 101.5908998  33.7258872   8.8730795 100.1168169  33.4053833
   8.4115947 102.8017300  37.7854509   9.0387986 102.4194377  38.3992033
   7.5543866 102.5831502  38.1510201  18.8110056 113.2080275  39.3908244
  19.3549960 113.8210233  38.8963199  18.2296900 113.7659853  39.9075257
  17.0967568 116.3300993  30.5223272  16.9718708 115.5290733  30.0134217
  17.7546660 116.8247186  30.0337242   8.7175737 102.6849726  29.7000412
   7.9962322 103.2985693  29.5607885   9.5068992 103.2207490  29.6217058
  19.1602477 114.1310013  32.1502822  18.2132812 114.0115364  32.0781149
  19.5085250 113.2432511  32.2329083  11.5202050 100.0204152  35.9741064
  12.0436452 100.2666449  36.7367373  11.3014384 100.8524187  35.5544201
  16.1648910 113.9262729  28.3507174  16.0173873 112.9979437  28.5314744
  16.9902404 113.9482820  27.8664249  19.7683032 114.7491288  29.4372047
  20.6929579 114.5434149  29.2996498  19.5998335 114.5007689  30.3461388
  12.7254595 100.9617847  33.6590734  12.3851416 100.1625660  34.0611414
  12.0193602 101.2619558  33.0867567  13.3771067  98.0467160  32.1118057
  14.1997136  97.5727638  31.9896948  13.6209131  98.8257643  32.6116744
  16.1610424 101.7800567  23.3439291  16.3774039 102.6625205  23.0428119
  15.6804492 101.3886780  22.6144933  10.9009646 104.7386280  29.9210036
  10.7554227 105.0526583  30.8134317  10.4234849 105.3571181  29.3680935
  12.7606029 101.7288828  29.9690925  12.7467598 100.8329922  29.6323223
  13.4778457 101.7359492  30.6029212  14.6132159 102.1626168  32.0144053
  14.3549937 103.0843239  32.0128383  14.0817200 101.7656603  32.7044517
  19.5578348 115.2676956  24.7934138  19.7315226 114.7023378  24.0407991
  20.0507239 116.0677850  24.6113628   5.3755308 107.2791625  32.8597697
   4.8308776 108.0551433  32.9917971   6.2534658 107.6262429  32.7016819
  12.1642925 100.6103209  25.2378496  12.2858836  99.6819855  25.4369383
  11.8744967 100.6241894  24.3256811  15.0334115  98.2958119  28.3745215
  15.0555812  98.3597452  27.4197195  15.4502174  97.4562628  28.5685722
  25.4117739 108.0313379  26.4124438  25.8548885 107.2820704  26.0143561
  24.5344250 108.0223515  26.0298170   6.1621330 106.4061521  35.7527854
   5.4203066 106.5544156  36.3392484   5.8414074 106.6669787  34.8894603
  22.4444944 112.0343426  23.4218367  22.9696268 112.3730698  22.6967687
  22.3567296 111.0990441  23.2381502  14.1064993 115.9477499  35.5508244
  14.4152119 115.7026646  36.4230944  14.9040475 116.1524138  35.0627114
  11.6484004 102.1235206  39.4468428  11.6972160 102.9997329  39.0646198
  12.1906518 101.5812599  38.8740071  22.1338850 112.6676329  38.7269565
  21.3434394 112.6500468  38.1874065  21.8972204 113.2064623  39.4818602
  22.2536725 109.5168796  36.0402294  22.3034730 109.3518803  36.9817817
  22.1450648 108.6496055  35.6500175  19.5440487 105.4999724  37.3561601
  20.4450350 105.3606188  37.0645598  19.6188462 105.6654178  38.2959778
  13.8783293 102.8766578  36.2014787  13.0086602 103.1700144  35.9297375
  14.1142773 103.4607023  36.9222051  23.7554922 111.9365737  36.2844315
  23.4639730 112.2995718  37.1207776  23.1427053 111.2232745  36.1057647
  24.9550604 109.5018617  28.8046886  25.7897495 109.9408421  28.9684446
  25.0909733 109.0257270  27.9855131  22.0042110 107.0598352  34.7524373
  22.4796232 107.2525998  33.9443225  21.0807675 107.1157537  34.5067757
  16.5822326  99.0946195  33.7180207  17.1004270  99.8307222  33.3926696
  16.2277459  99.4010189  34.5526966  16.8334921  95.5146478  29.2381104
  17.1136674  94.8469667  29.8641530  17.6185528  95.7075573  28.7255768
  20.7043779 103.9364112  32.9852679  21.6561202 104.0362209  33.0064903
  20.5347229 103.1442380  33.4950763  18.7258158 101.0219695  33.1712080
  18.1308091 101.3024708  32.4758569  18.4407855 101.5113596  33.9428821
  23.1831857 107.1570231  32.0994979  23.1508177 106.2186232  32.2854662
  23.7932480 107.2354268  31.3660803  23.3326345 103.9481275  32.1453262
  22.8165394 103.1639732  31.9583191  24.2166294 103.6199991  32.3099781
  20.9937072  97.6922290  28.1049074  20.7961893  97.3837379  28.9892406
  21.6036778  98.4183929  28.2347004  29.0008407 108.2186238  31.2401015
  29.7311795 107.9571526  31.8008719  28.3915352 107.4814960  31.2803083
  27.0823704 106.3594101  31.8375467  26.3556867 106.2250066  31.2291958
  26.6670991 106.6670929  32.6432185  14.9053880 110.0784031  39.6022840
  15.8256890 110.2562630  39.7962886  14.8703463 109.1340076  39.4502539
   7.9015953 107.9885065  32.2445621   8.1201963 108.9202173  32.2633655
   8.3141727 107.6293040  33.0300425  14.8220171  98.4953151  24.2321309
  14.0120899  98.1500235  24.6076555  15.5104587  98.1860694  24.8208921
  16.7510719  97.5731197  25.8545606  17.3041757  97.9926651  26.5135629
  16.9880805  96.6466945  25.8968562  12.7743818 103.5618271  41.6348370
  12.6740545 104.5112628  41.5660461  12.5565360 103.2336510  40.7624440
  20.1289526  99.6831722  25.3624270  19.5488195 100.3416527  24.9802322
  19.8625459  98.8609067  24.9511688  18.5793092  99.0836780  27.5645590
  19.0792871  99.1953315  26.7559909  19.2228700  98.7797833  28.2046399
  12.6375088 106.9915410  40.4513431  12.1542170 107.7915770  40.6577320
  12.7236027 107.0023355  39.4980875   8.5648426 110.8819945  32.4881865
   9.5191679 110.8503887  32.4211797   8.3660949 110.4210568  33.3032091
   9.1547808 109.4521061  35.0552663   9.9740697 109.9465139  35.0787500
   9.4284615 108.5353029  35.0270230  18.9114404 101.8431813  24.4180618
  18.0240259 102.1281463  24.2000813  19.3268393 101.6825576  23.5707895
  22.2628940 101.8678334  28.1334958  23.0389330 102.3574786  28.4059574
  21.5377074 102.2936388  28.5906827  24.7001499 102.5805953  29.1908898
  25.2945989 102.3401689  28.4802206  24.7728082 101.8613084  29.8182434
  18.8855428 107.3586349  24.6330908  18.8290629 107.8154900  23.7938541
  19.4383770 106.5977033  24.4553751  22.6960234 103.1476081  25.4581028
  22.4397168 102.7472716  26.2889236  22.0713102 103.8619875  25.3331167
  27.0072571 105.8872154  27.9652319  26.4472129 105.9565343  28.7383881
  26.4016075 105.7113139  27.2451816  19.6190207 108.5491130  21.9283438
  19.5639011 108.3835401  20.9871882  18.9936262 109.2567163  22.0845627
   4.4082722 103.7859194  35.7544860   5.0541586 103.2758148  36.2432085
   4.1999873 104.5227876  36.3288285  16.9336114 110.8540042  41.2537000
  17.8027274 111.0280694  40.8923635  16.4542866 111.6734459  41.1312730
  12.9286332  98.0499239  21.5068756  12.9165002  98.9941079  21.6637027
  13.8209754  97.8669384  21.2128217  11.1022294 117.9737143  32.9326434
  12.0049541 118.0060753  33.2492929  10.8759664 117.0437594  32.9472770
  16.7438452  94.6442016  25.7614693  15.9770848  94.0900502  25.9071375
  17.1549157  94.7163884  26.6228844   8.7480213 100.9326811  39.8519874
   9.6111675 100.5763616  40.0623199   8.1745624 100.5940706  40.5395278
  28.5928590 122.5628668  30.6582275  29.2307000 122.4435415  29.9545615
  28.4749433 123.5109512  30.7170227  25.4018296 122.5156096  30.5943800
  25.0636808 122.3997161  29.7064335  26.2708064 122.1147261  30.5744806
  25.8838079 123.6690948  36.5530005  25.8726720 123.2743746  35.6810509
  26.0458719 122.9357020  37.1463777  23.5301547 123.8304908  32.0910549
  24.1265119 123.6060930  31.3767512  23.5876519 123.0889653  32.6935997
  28.1469858 120.2880122  27.7335483  28.9332948 119.8699545  27.3825900
  28.4108563 121.1926214  27.9017132  33.5478286 120.2255355  28.6368462
  34.2803457 119.6554572  28.8706291  32.7917641 119.8376955  29.0774967
  25.1654405 122.6482596  25.8331804  24.8012612 122.1213217  26.5444726
  26.0221521 122.2581065  25.6598290  31.0703706 113.9376929  33.0963070
  30.7387031 114.8072340  32.8724285  30.4749319 113.6213213  33.7757101
  27.5635225 126.1389475  32.4958983  27.2635948 127.0414514  32.3874790
  27.2186285 125.8721658  33.3480136  21.0147707 122.5903272  28.5295687
  20.0898203 122.4579486  28.7373379  21.2632120 123.3697491  29.0265630
  30.9632369 118.6572015  30.1756420  30.0549247 118.5887424  29.8815181
  30.9119965 119.1343960  31.0038246  25.0373235 120.0761661  38.1191318
  24.2606569 120.6355581  38.1094182  25.6763798 120.5618444  38.6406188
  32.8294016 116.8588454  31.9534294  32.1868396 117.1520987  31.3074089
  32.3248944 116.7441374  32.7587491  30.4834179 120.6051627  22.6420154
  31.3952035 120.8379014  22.4667851  29.9743826 121.1888671  22.0795232
  23.2919607 122.8847114  37.6809285  24.0334292 123.4232158  37.4044108
  22.5856593 123.5113403  37.8380836  28.7674947 125.0276255  36.2781446
  29.1758303 124.5858665  35.5336078  28.0452208 124.4528882  36.5315639
  25.1206017 119.9648861  33.6515003  25.9667212 120.3888275  33.7949652
  25.0604655 119.3082486  34.3453566  29.0903762 125.5877445  30.0333735
  28.4612624 125.7523159  29.3309803  28.7029424 126.0019055  30.8044699
  32.9692993 126.5231883  27.3878099  32.2844032 126.9030784  26.8375132
  33.0536843 127.1327210  28.1210047  28.2705462 117.6253230  35.3096177
  28.0266394 118.3795290  34.7730452  28.5465393 118.0038577  36.1443424
  30.2243925 124.1691842  33.9873442  30.4360820 124.8123602  33.3107823
  30.1773673 123.3354159  33.5195372  27.8270154 116.7809663  30.8910014
  26.9654633 117.0790916  31.1826752  27.8532589 116.9980062  29.9591047
  24.6431723 125.3251853  27.2983820  25.1070069 125.6039556  26.5088443
  24.3788522 124.4235298  27.1156911  22.0280971 120.0386762  38.4824595
  21.3979632 120.7203043  38.7159991  21.9217059 119.9269844  37.5377733
  31.3389753 127.0463798  32.1595800  32.1607197 126.6443985  31.8778481
  31.3352156 126.9432032  33.1111915  15.6063646 119.9589049  31.8405510
  15.8571685 120.8436059  32.1063086  16.1423195 119.7793650  31.0680601
  39.4295746 123.3902546  28.5080771  38.6759454 122.8209944  28.3524776
  39.5643287 123.3565210  29.4551406  21.3061714 114.3407528  40.8449846
  20.9128659 113.7873727  41.5197490  22.1227854 114.6518107  41.2356363
  24.2229675 115.7565407  38.4370102  24.9639388 116.3572560  38.3574565
  24.4547598 115.0143045  37.8788145  19.3671013 120.9421775  36.7148332
  19.2524528 120.0407032  37.0155431  18.5115530 121.1885471  36.3633148
  28.1686838 111.7846510  32.7134384  27.8251107 112.6748152  32.6373494
  28.5365800 111.5948168  31.8503969  25.7184231 116.6204822  26.2792057
  24.8625828 116.2311672  26.0997696  26.1311183 116.6996783  25.4191843
  27.2483378 114.1551165  30.6783617  26.7448174 114.1181300  29.8651422
  27.5413985 115.0643908  30.7380274  23.4926264 114.2389895  29.6849799
  24.3579261 114.0432704  29.3255688  23.5603773 114.0100247  30.6119156
  33.1071395 124.5287476  23.1559992  32.3300837 124.1898635  22.7115155
  33.7862876 124.5340099  22.4814958  27.9223424 119.6482213  23.0466600
  27.6173559 119.9628363  23.8976743  28.8753866 119.7263633  23.0893933
  31.3462701 124.0021457  29.8126600  30.6886376 124.6920719  29.9006729
  32.1503101 124.3917889  30.1560587  21.0988583 116.4692103  27.0566166
  21.6732335 116.2467284  26.3239359  21.6859565 116.5380797  27.8094767
  30.1568160 122.3565830  27.8630542  30.6700042 122.9895822  28.3652252
  30.8069384 121.7567025  27.4973902  23.4011251 113.3433352  25.7841235
  22.7475663 113.0282369  25.1597850  23.3591725 112.7209092  26.5101058
  26.6348991 119.8315285  30.1088883  25.7171552 120.0530232  29.9510571
  27.0509135 119.9061596  29.2500590  27.4184039 121.2306701  25.2391563
  28.1655858 121.7428098  24.9298685  27.6875628 120.9090754  26.0995957
  30.9229956 127.3371831  25.9909685  30.4692284 126.4962741  26.0474875
  30.2923923 127.9733230  26.3284465  29.8662876 118.2663817  27.2210352
  29.1285633 117.7541204  27.5520595  30.1189650 117.8264199  26.4093629
  29.9674503 111.0440069  27.8152122  30.2733380 110.1837433  27.5278037
  30.6927108 111.6357690  27.6151115  24.2395583 121.3393862  28.3228313
  24.2944193 120.3867699  28.2470789  23.4286785 121.4953302  28.8069611
  22.1787943 119.9570922  26.0818692  21.3655809 120.2565093  26.4883884
  22.6746937 119.5626611  26.7993174  27.7762155 120.4212747  34.9133585
  28.1311542 120.6484220  35.7728051  28.4234286 120.7531123  34.2910841
  33.5059892 123.5431183  25.6182914  33.3677790 123.7332779  24.6904104
  33.1496110 124.3050565  26.0750966  21.6702018 117.5289278  31.6979926
  22.3101397 117.3878037  31.0002890  20.8379548 117.2423791  31.3218528
  33.5329271 125.6107710  30.6294186  33.9665778 125.5182999  31.4777240
  34.2460852 125.5865210  29.9914202  20.1455560 118.9127360  33.6451738
  20.8178613 118.7044722  32.9964387  19.3185346 118.7149446  33.2056970
  34.3944821 125.6531410  33.1627071  34.5880711 126.5577221  33.4086346
  34.2945439 125.1938829  33.9965656  26.0481132 115.5389301  35.6617399
  25.4009047 116.2379250  35.5681875  26.8182147 115.9725445  36.0293647
  29.4559929 125.8038153  38.7367952  29.3045436 125.5748705  37.8198036
  29.4464609 126.7608754  38.7499297  26.2245266 123.3770066  33.7214218
  27.1537326 123.5281225  33.5483186  25.8036296 123.4654086  32.8662865
  20.5483057 122.1869963  34.4054175  20.4102855 121.4550202  35.0065714
  21.4587980 122.0978863  34.1238363  23.1765357 121.8989922  33.8937855
  23.8864976 121.2583114  33.8524473  23.1334666 122.1502817  34.8164035
  21.8894291 118.8855140  35.7133494  21.3531648 118.4345878  36.3655090
  21.3011000 119.0201049  34.9703958  31.1669543 126.7996859  35.0458414
  30.2796322 126.4622781  35.1684812  31.7368094 126.0679891  35.2827179
  17.6233413 118.0211148  32.7986489  17.5391601 117.4136817  32.0636899
  16.8016119 118.5120166  32.7995985  27.7957127 116.5064711  28.1656684
  28.2925826 115.7534674  27.8457754  27.0244108 116.5429028  27.5999893
  35.6486884 122.2105077  29.8074975  35.6376760 123.0929792  29.4368908
  34.7804263 121.8576628  29.6129512  28.8786907 125.2636398  25.7395107
  27.9443186 125.3837861  25.5699811  29.0563576 124.3608865  25.4755117
  24.3792095 118.6482094  27.8928368  24.0089883 118.0953135  28.5809274
  24.8751188 118.0440228  27.3403368  32.2659459 121.1053718  26.2745141
  32.7319911 121.9381709  26.2005444  32.7166959 120.6398699  26.9790400
  30.3335690 127.4497539  23.2731293  30.6095534 127.3354134  24.1825167
  29.4640188 127.0515024  23.2343466  30.2376121 113.4734305  30.3136043
  29.3239201 113.7038532  30.4818249  30.6669223 113.5572749  31.1650075
  30.0082580 121.6624197  32.8135937  29.3554030 121.9100104  32.1588389
  30.3862960 120.8488335  32.4798414  26.0570153 122.4044008  39.3001974
  25.3810790 122.3038137  39.9704349  26.8797787 122.2483222  39.7637971
  19.7757429 116.0586085  34.1381474  19.8398755 116.9200916  33.7258872
  19.7124549 115.4460087  33.4053833  19.2509701 118.1309218  37.7854509
  19.8781740 117.7486295  38.3992033  18.3937620 117.9123420  38.1510201
  19.5569491 118.0141643  29.7000412  18.8356077 118.6277611  29.5607885
  20.3462747 118.5499408  29.6217058  22.3595805 115.3496070  35.9741064
  22.8830207 115.5958366  36.7367373  22.1408138 116.1816105  35.5544201
  23.5648350 116.2909765  33.6590734  23.2245170 115.4917578  34.0611414
  22.8587356 116.5911476  33.0867567  24.2164822 113.3759077  32.1118057
  25.0390891 112.9019555  31.9896948  24.4602885 114.1549561  32.6116744
  27.0004179 117.1092485  23.3439291  27.2167793 117.9917123  23.0428119
  26.5198246 116.7178698  22.6144933  21.7403400 120.0678198  29.9210036
  21.5947981 120.3818501  30.8134317  21.2628604 120.6863098  29.3680935
  23.5999783 117.0580746  29.9690925  23.5861352 116.1621839  29.6323223
  24.3172211 117.0651410  30.6029212  25.4525914 117.4918086  32.0144053
  25.1943692 118.4135157  32.0128383  24.9210954 117.0948521  32.7044517
  23.0036679 115.9395126  25.2378496  23.1252590 115.0111772  25.4369383
  22.7138722 115.9533812  24.3256811  25.8727870 113.6250037  28.3745215
  25.8949566 113.6889370  27.4197195  26.2895929 112.7854545  28.5685722
  36.2511494 123.3605296  26.4124438  36.6942640 122.6112621  26.0143561
  35.3738004 123.3515433  26.0298170  17.0015084 121.7353439  35.7527854
  16.2596820 121.8836074  36.3392484  16.6807829 121.9961704  34.8894603
  33.2838698 127.3635343  23.4218367  33.8090022 127.7022616  22.6967687
  33.1961051 126.4282359  23.2381502  22.4877759 117.4527124  39.4468428
  22.5365914 118.3289246  39.0646198  23.0300273 116.9104517  38.8740071
  32.9732604 127.9968247  38.7269565  32.1828148 127.9792386  38.1874065
  32.7365959 128.5356541  39.4818602  33.0930479 124.8460713  36.0402294
  33.1428484 124.6810721  36.9817817  32.9844403 123.9787972  35.6500175
  30.3834242 120.8291641  37.3561601  31.2844105 120.6898106  37.0645598
  30.4582216 120.9946096  38.2959778  24.7177047 118.2058496  36.2014787
  23.8480357 118.4992062  35.9297375  24.9536528 118.7898941  36.9222051
  34.5948676 127.2657655  36.2844315  34.3033485 127.6287635  37.1207776
  33.9820808 126.5524663  36.1057647  35.7944359 124.8310534  28.8046886
  36.6291250 125.2700339  28.9684446  35.9303487 124.3549188  27.9855131
  32.8435865 122.3890269  34.7524373  33.3189986 122.5817916  33.9443225
  31.9201430 122.4449455  34.5067757  27.4216081 114.4238113  33.7180207
  27.9398025 115.1599140  33.3926696  27.0671214 114.7302106  34.5526966
  27.6728675 110.8438395  29.2381104  27.9530429 110.1761584  29.8641530
  28.4579282 111.0367491  28.7255768  31.5437534 119.2656029  32.9852679
  32.4954956 119.3654127  33.0064903  31.3740984 118.4734298  33.4950763
  29.5651913 116.3511613  33.1712080  28.9701845 116.6316625  32.4758569
  29.2801610 116.8405514  33.9428821  34.0225611 122.4862149  32.0994979
  33.9901931 121.5478150  32.2854662  34.6326235 122.5646186  31.3660803
  34.1720100 119.2773193  32.1453262  33.6559148 118.4931649  31.9583191
  35.0560048 118.9491909  32.3099781  31.8330827 113.0214208  28.1049074
  31.6355648 112.7129296  28.9892406  32.4430532 113.7475847  28.2347004
  39.8402161 123.5478156  31.2401015  40.5705550 123.2863444  31.8008719
  39.2309107 122.8106878  31.2803083  37.9217458 121.6886019  31.8375467
  37.1950622 121.5541983  31.2291958  37.5064745 121.9962847  32.6432185
  25.7447635 125.4075948  39.6022840  26.6650644 125.5854547  39.7962886
  25.7097218 124.4631994  39.4502539  25.6613925 113.8245068  24.2321309
  24.8514653 113.4792153  24.6076555  26.3498342 113.5152612  24.8208921
  27.5904473 112.9023115  25.8545606  28.1435512 113.3218568  26.5135629
  27.8274560 111.9758863  25.8968562  23.6137573 118.8910189  41.6348370
  23.5134299 119.8404546  41.5660461  23.3959115 118.5628428  40.7624440
  30.9683280 115.0123640  25.3624270  30.3881949 115.6708444  24.9802322
  30.7019213 114.1900985  24.9511688  29.4186847 114.4128698  27.5645590
  29.9186625 114.5245232  26.7559909  30.0622455 114.1089751  28.2046399
  23.4768843 122.3207327  40.4513431  22.9935924 123.1207688  40.6577320
  23.5629782 122.3315272  39.4980875  29.7508158 117.1723731  24.4180618
  28.8634013 117.4573381  24.2000813  30.1662147 117.0117494  23.5707895
  33.1022695 117.1970252  28.1334958  33.8783085 117.6866704  28.4059574
  32.3770829 117.6228306  28.5906827  35.5395253 117.9097871  29.1908898
  36.1339744 117.6693607  28.4802206  35.6121837 117.1905001  29.8182434
  29.7249182 122.6878266  24.6330908  29.6684384 123.1446818  23.7938541
  30.2777525 121.9268951  24.4553751  33.5353988 118.4767998  25.4581028
  33.2790922 118.0764634  26.2889236  32.9106856 119.1911792  25.3331167
  37.8466326 121.2164072  27.9652319  37.2865884 121.2857261  28.7383881
  37.2409829 121.0405056  27.2451816  30.4583961 123.8783048  21.9283438
  30.4032765 123.7127319  20.9871882  29.8330017 124.5859081  22.0845627
  15.2476476 119.1151112  35.7544860  15.8935340 118.6050066  36.2432085
  15.0393628 119.8519794  36.3288285  27.7729869 126.1831960  41.2537000
  28.6421028 126.3572612  40.8923635  27.2936620 127.0026376  41.1312730
  23.7680087 113.3791157  21.5068756  23.7558757 114.3232997  21.6637027
  24.6603509 113.1961302  21.2128217  27.5832206 109.9733933  25.7614693
  26.8164602 109.4192420  25.9071375  27.9942911 110.0455802  26.6228844
  19.5873967 116.2618729  39.8519874  20.4505429 115.9055534  40.0623199
  19.0139378 115.9232624  40.5395278  41.9097460 129.2668847  33.0963070
  41.5780785 130.1364258  32.8724285  41.3143074 128.9505131  33.7757101
  43.6687770 132.1880371  31.9534294  43.0262150 132.4812904  31.3074089
  43.1642699 132.0733292  32.7587491  39.0080592 127.1138428  32.7134384
  38.6644862 128.0040070  32.6373494  39.3759555 126.9240085  31.8503969
  38.0877133 129.4843083  30.6783617  37.5841928 129.4473218  29.8651422
  38.3807739 130.3935826  30.7380274  34.2405005 128.6725270  25.7841235
  33.5869418 128.3574287  25.1597850  34.1985479 128.0501010  26.5101058
  40.8068258 126.3731987  27.8152122  41.1127135 125.5129350  27.5278037
  41.5320863 126.9649607  27.6151115  41.0769876 128.8026222  30.3136043
  40.1632956 129.0330449  30.4818249  41.5062977 128.8864667  31.1650075
  35.0558576 128.7050995  32.1118057  35.8784645 128.2311473  31.9896948
  35.2996640 129.4841479  32.6116744  36.7121624 128.9541954  28.3745215
  36.7343321 129.0181287  27.4197195  37.1289683 128.1146463  28.5685722
  38.2609835 129.7530031  33.7180207  38.7791779 130.4891058  33.3926696
  37.9064968 130.0594024  34.5526966  38.5122430 126.1730313  29.2381104
  38.7924183 125.5053502  29.8641530  39.2973037 126.3659409  28.7255768
  42.6724581 128.3506126  28.1049074  42.4749402 128.0421214  28.9892406
  43.2824287 129.0767765  28.2347004  36.5007680 129.1536986  24.2321309
  35.6908408 128.8084071  24.6076555  37.1892096 128.8444530  24.8208921
  38.4298228 128.2315033  25.8545606  38.9829266 128.6510486  26.5135629
  38.6668314 127.3050781  25.8968562  41.8077035 130.3415558  25.3624270
  41.2275704 131.0000362  24.9802322  41.5412968 129.5192902  24.9511688
  40.2580601 129.7420616  27.5645590  40.7580380 129.8537150  26.7559909
  40.9016209 129.4381668  28.2046399  46.3789008 133.2389788  29.1908898
  46.9733498 132.9985524  28.4802206  46.4515591 132.5196919  29.8182434
  38.4225961 125.3025851  25.7614693  37.6558357 124.7484338  25.9071375
  38.8336666 125.3747720  26.6228844   1.8763559  56.6717780  19.8872378
   2.0699449  57.5763590  20.1331653   1.7764177  56.2125199  20.7210963
   0.5749217  55.8647083  22.7647600   0.6247222  55.6997090  23.7063123
   0.4663141  54.9974342  22.3745481   2.0767414  58.2844024  23.0089622
   1.7852222  58.6474005  23.8453083   1.4639545  57.5711033  22.8302954
   6.9141082  68.9106955  17.3827582   7.5519492  68.7913702  16.6790922
   6.7961925  69.8587799  17.4415534   3.7230788  68.8634383  17.3189106
   3.3849300  68.7475448  16.4309641   4.5920557  68.4625548  17.2990113
   4.2050571  70.0169235  23.2775312   4.1939212  69.6222033  22.4055816
   4.3671211  69.2835308  23.8709083   0.9257833  72.8006347  22.2254496
   0.6347699  73.7051978  22.1101162   1.5614817  72.8422874  22.9398566
   1.8514039  70.1783195  18.8155856   2.4477612  69.9539218  18.1012819
   1.9089011  69.4367941  19.4181303   6.4682351  66.6358409  14.4580790
   7.2545440  66.2177832  14.1071207   6.7321055  67.5404501  14.6262438
  11.8690778  66.5733642  15.3613768  12.6015950  66.0032859  15.5951598
  11.1130133  66.1855243  15.8020274   3.4866898  68.9960884  12.5577111
   3.1225105  68.4691505  13.2690032   4.3434013  68.6059353  12.3843596
   9.3916198  60.2855216  19.8208377   9.0599523  61.1550627  19.5969592
   8.7961812  59.9691500  20.5002407   5.8847718  72.4867762  19.2204290
   5.5848441  73.3892801  19.1120097   5.5398777  72.2199945  20.0725443
   9.2844861  65.0050302  16.9001727   8.3761739  64.9365711  16.6060488
   9.2332457  65.4822247  17.7283552   3.3585727  66.4239948  24.8436624
   2.5819061  66.9833868  24.8339489   3.9976290  66.9096731  25.3651494
  11.1506508  63.2066741  18.6779601  10.5080888  63.4999274  18.0319395
  10.6461436  63.0919661  19.4832798   1.6132100  69.2325401  24.4054591
   2.3546784  69.7710445  24.1289415   0.9069085  69.8591690  24.5626143
   7.0887439  71.3754542  23.0026753   7.4970795  70.9336952  22.2581385
   6.3664701  70.8007169  23.2560946   3.4418509  66.3127149  20.3760310
   4.2879704  66.7366562  20.5194959   3.3817147  65.6560773  21.0698873
   7.4116254  71.9355732  16.7579042   6.7825116  72.1001447  16.0555109
   7.0241916  72.3497342  17.5290006  11.2905486  72.8710170  14.1123405
  10.6056524  73.2509072  13.5620439  11.3749335  73.4805497  14.8455353
   6.5917955  63.9731517  22.0341483   6.3478886  64.7273577  21.4975759
   6.8677885  64.3516865  22.8688730   8.5456417  70.5170129  20.7118749
   8.7573313  71.1601889  20.0353130   8.4986166  69.6832446  20.2440679
   6.1482646  63.1287950  17.6155321   5.2867125  63.4269204  17.9072059
   6.1745081  63.3458349  16.6836354   2.9644216  71.6730141  14.0229127
   3.4282561  71.9517844  13.2333749   2.7001014  70.7713585  13.8402217
   9.6602245  73.3942085  18.8841106  10.4819689  72.9922272  18.6023788
   9.6564648  73.2910319  19.8357222   3.4258849  72.9426128  21.0401817
   3.4903281  73.4046535  21.8759989   2.7169773  72.3123493  21.1684127
  17.7508238  69.7380833  15.2326078  16.9971947  69.1688231  15.0770082
  17.8855780  69.7043498  16.1796712   2.5442167  62.1043694  25.1615409
   3.2851880  62.7050848  25.0819871   2.7760090  61.3621332  24.6033451
   4.7675343  75.2317802  25.0381139   4.3239197  74.4454181  24.7202044
   5.4292556  75.4196953  24.3725030   6.8656581  75.5120602  23.0662540
   6.8475056  76.3329483  22.5742810   7.7876501  75.3874677  23.2912682
   3.3229635  73.0264731  23.9086049   3.8557972  72.2653020  23.6785357
   2.7943716  72.7338383  24.6510203   6.4899330  58.1324797  19.4379691
   6.1463599  59.0226439  19.3618801   6.8578293  57.9426455  18.5749276
   5.5695870  60.5029453  17.4028924   5.0660666  60.4659588  16.5896729
   5.8626477  61.4122195  17.4625580  11.4283887  70.8765763   9.8805299
  10.6513330  70.5376923   9.4360461  12.1075368  70.8818386   9.2060264
   9.6675194  70.3499744  16.5371907   9.0098868  71.0399006  16.6252036
  10.4715593  70.7396176  16.8805893   8.4780653  68.7044117  14.5875849
   8.9912534  69.3374109  15.0897559   9.1281876  68.1045313  14.2219209
   4.9561483  66.1793573  16.8334189   4.0384045  66.4008520  16.6755877
   5.3721627  66.2539883  15.9745897   5.7396531  67.5784988  11.9636870
   6.4868350  68.0906386  11.6543992   6.0088121  67.2569041  12.8241263
   9.2442449  73.6850119  12.7154992   8.7904776  72.8441028  12.7720182
   8.6136415  74.3211517  13.0529772   8.1875368  64.6142105  13.9455659
   7.4498125  64.1019491  14.2765902   8.4402142  64.1742486  13.1338936
   7.6875388  75.5226615  13.6504810   7.9798362  76.0831672  12.9317175
   8.1974009  75.8155176  14.4057969   2.5608075  67.6872150  15.0473619
   2.6156685  66.7345986  14.9716096   1.7499277  67.8431589  15.5314918
   6.0974647  66.7691034  21.6378892   6.4524035  66.9962507  22.4973358
   6.7446778  67.1009411  21.0156147  11.8272384  69.8909470  12.3428221
  11.6890282  70.0811066  11.4149410  11.4708603  70.6528853  12.7996272
  11.8541764  71.9585997  17.3539493  12.2878270  71.8661286  18.2022547
  12.5673344  71.9343497  16.7159509   5.5869658  75.5588091  18.8872593
   5.6406681  76.1279027  19.6550309   4.7184440  75.7289976  18.5226630
  12.7157313  72.0009697  19.8872378  12.9093203  72.9055508  20.1331653
  12.6157931  71.5417117  20.7210963   4.3693624  61.8867588  22.3862705
   3.7221539  62.5857538  22.2927182   5.1394639  62.3203732  22.7538954
   7.7772422  72.1516440  25.4613259   7.6257928  71.9226992  24.5443342
   7.7677101  73.1087042  25.4744604   4.5457758  69.7248353  20.4459525
   5.4749818  69.8759513  20.2728492   4.1248788  69.8132374  19.5908172
   3.3446090  73.7499017  18.2158063   3.2057176  73.3817802  19.0884001
   2.5560686  74.2646657  18.0442020   4.8951305  73.1280620  15.6046900
   4.5601138  73.0881390  16.5004550   4.3955251  72.4625336  15.1317311
   1.4977850  68.2468209  20.6183161   2.2077468  67.6061402  20.5769780
   1.4547158  68.4981104  21.5409342   9.4864628  75.1835563  23.5389740
   9.4277175  74.4994783  22.8720323   9.8884147  75.9254553  23.0870366
   9.4882036  73.1475147  21.7703720   8.6008814  72.8101068  21.8930119
  10.0580587  72.4158178  22.0072486   3.0183189  77.8076599  18.7364963
   2.9453361  78.6131571  19.2484268   2.5760582  78.0068565  17.9112985
  13.9699376  68.5583364  16.5320282  13.9589252  69.4408079  16.1614215
  13.1016756  68.2054915  16.3374819   5.4781873  77.7063433  20.8923122
   6.1909845  78.3410898  20.8199023   4.9871901  77.8027299  20.0763124
   7.1999399  71.6114686  12.4640414   6.2655678  71.7316148  12.2945118
   7.3776068  70.7087153  12.2000424  10.5871951  67.4532005  12.9990448
  11.0532403  68.2859997  12.9250750  11.0379451  66.9876987  13.7035706
   8.6548182  73.7975826   9.9976600   8.9308026  73.6832421  10.9070474
   7.7852681  73.3993311   9.9588773   8.5588614  59.8212592  17.0381349
   7.6451693  60.0516819  17.2063556   8.9881715  59.9051036  17.8895382
   8.3295072  68.0102484  19.5381243   7.6766522  68.2578391  18.8833696
   8.7075452  67.1966622  19.2043720   4.3782645  68.7522295  26.0247280
   3.7023282  68.6516424  26.6949655   5.2010279  68.5961509  26.4883277
   3.1205428  80.0589222  20.2604896   3.6723736  80.2220844  21.0253981
   3.4611621  80.6493660  19.5884921   7.9716302  74.8850480  26.1153551
   8.5156206  75.4980438  25.6208505   7.3903147  75.4430058  26.6320564
   6.2573815  78.0071198  17.2468578   6.1324955  77.2060938  16.7379524
   6.9152906  78.5017391  16.7582548   8.3208724  75.8080218  18.8748128
   7.3739059  75.6885569  18.8026455   8.6691497  74.9202716  18.9574390
   0.6808297  61.6974357  22.6986370   1.2042699  61.9436654  23.4612680
   0.4620630  62.5294392  22.2789508   5.3255157  75.6032934  15.0752481
   5.1780119  74.6749642  15.2560051   6.1508650  75.6253025  14.5909556
   8.9289279  76.4261493  16.1617353   9.8535826  76.2204354  16.0241805
   8.7604582  76.1777894  17.0706695   1.8860842  62.6388052  20.3836041
   1.5457662  61.8395865  20.7856721   1.1799848  62.9389763  19.8112874
   2.5377314  59.7237365  18.8363364   3.3603383  59.2497843  18.7142254
   2.7815377  60.5027848  19.3362050   1.9212276  63.4059033  16.6936232
   1.9073844  62.5100126  16.3568530   2.6384704  63.4129697  17.3274518
   3.7738406  63.8396373  18.7389360   3.5156184  64.7613444  18.7373690
   3.2423447  63.4426808  19.4289824   8.7184595  76.9447160  11.5179445
   8.8921473  76.3793583  10.7653297   9.2113486  77.7448055  11.3358935
  14.5723986  69.7083583  13.1369745  15.0155132  68.9590909  12.7388868
  13.6950496  69.6993720  12.7543477  11.6051191  73.7113630  10.1463674
  12.1302515  74.0500903   9.4212994  11.5173543  72.7760646   9.9626809
   3.2671239  77.6247704  22.2753551   3.5758366  77.3796851  23.1476250
   4.0646721  77.8294343  21.7872421   0.8090251  63.8005411  26.1713735
   0.8578406  64.6767534  25.7891504   1.3512765  63.2582804  25.5985378
  11.2945097  74.3446534  25.4514872  10.5040640  74.3270673  24.9119371
  11.0578451  74.8834828  26.2063909  11.4142972  71.1939000  22.7647600
  11.4640977  71.0289008  23.7063123  11.3056895  70.3266259  22.3745481
   8.7046734  67.1769928  24.0806907   9.6056597  67.0376393  23.7890905
   8.7794709  67.3424383  25.0205085   3.0389539  64.5536783  22.9260094
   2.1692849  64.8470349  22.6542682   3.2749020  65.1377228  23.6467357
  12.9161169  73.6135942  23.0089622  12.6245977  73.9765923  23.8453083
  12.3033300  72.9002950  22.8302954  14.1156851  71.1788822  15.5292192
  14.9503742  71.6178626  15.6929753  14.2515980  70.7027475  14.7100438
  11.1648357  68.7368557  21.4769680  11.6402478  68.9296203  20.6688531
  10.2413922  68.7927742  21.2313064   5.7428573  60.7716400  20.4425514
   6.2610517  61.5077427  20.1172002   5.3883706  61.0780393  21.2772273
   9.8650026  65.6134317  19.7097986  10.8167449  65.7132414  19.7310210
   9.6953476  64.8212585  20.2196070   7.8864405  62.6989900  19.8957387
   7.2914337  62.9794913  19.2003875   7.6014102  63.1883801  20.6674128
  12.3438104  68.8340436  18.8240285  12.3114424  67.8956437  19.0099969
  12.9538727  68.9124473  18.0906110  12.4932592  65.6251480  18.8698568
  11.9771641  64.8409936  18.6828497  13.3772541  65.2970196  19.0345088
  10.1543319  59.3692495  14.8294381   9.9568140  59.0607584  15.7137713
  10.7643025  60.0954134  14.9592311  18.1614653  69.8956443  17.9646322
  18.8918042  69.6341731  18.5254025  17.5521599  69.1585165  18.0048390
  16.2429951  68.0364306  18.5620773  15.5163114  67.9020271  17.9537265
  15.8277237  68.3441134  19.3677491   4.0660127  71.7554235  26.3268146
   4.9863136  71.9332834  26.5208193   4.0309710  70.8110281  26.1747846
   1.9350065  65.2388476  28.3593676   1.8346792  66.1882833  28.2905767
   1.7171607  64.9106715  27.4869746   1.7981335  68.6685615  27.1758738
   1.3148417  69.4685975  27.3822627   1.8842274  68.6793560  26.2226182
  11.4235187  63.5448539  14.8580264  12.1995577  64.0344991  15.1304881
  10.6983321  63.9706593  15.3152134  13.8607745  64.2576158  15.9154205
  14.4552236  64.0171894  15.2047513  13.9334329  63.5383289  16.5427741
   8.0461674  69.0356554  11.3576215   7.9896876  69.4925105  10.5183848
   8.5990017  68.2747238  11.1799058  11.8566480  64.8246286  12.1826335
  11.6003415  64.4242921  13.0134542  11.2319348  65.5390080  12.0576474
  16.1678818  67.5642359  14.6897626  15.6078376  67.6335548  15.4629188
  15.5622322  67.3883343  13.9697122   6.0942361  72.5310247  27.9782307
   6.9633521  72.7050899  27.6168942   5.6149112  73.3504664  27.8558036
  17.7534837  84.2398873  17.3827582  18.3913247  84.1205620  16.6790922
  17.6355680  85.1879717  17.4415534  14.5624543  84.1926301  17.3189106
  14.2243054  84.0767366  16.4309641  15.4314311  83.7917466  17.2990113
  15.0444326  85.3461153  23.2775312  15.0332967  84.9513951  22.4055816
  15.2064965  84.6127225  23.8709083  11.7651587  88.1298264  22.2254496
  11.4741453  89.0343895  22.1101162  12.4008571  88.1714792  22.9398566
  12.6907794  85.5075113  18.8155856  13.2871366  85.2831135  18.1012819
  12.7482765  84.7659858  19.4181303  17.3076105  81.9650327  14.4580790
  18.0939194  81.5469750  14.1071207  17.5714809  82.8696419  14.6262438
  22.7084532  81.9025560  15.3613768  23.4409704  81.3324777  15.5951598
  21.9523888  81.5147160  15.8020274  14.3260652  84.3252801  12.5577111
  13.9618859  83.7983422  13.2690032  15.1827768  83.9351270  12.3843596
  20.2309953  75.6147134  19.8208377  19.8993277  76.4842545  19.5969592
  19.6355566  75.2983418  20.5002407  16.7241472  87.8159680  19.2204290
  16.4242195  88.7184719  19.1120097  16.3792532  87.5491863  20.0725443
  10.1753954  84.2673477  15.2540994   9.2504450  84.1349691  15.4618686
  10.4238367  85.0467696  15.7510936  20.1238616  80.3342220  16.9001727
  19.2155493  80.2657629  16.6060488  20.0726212  80.8114165  17.7283552
  14.1979482  81.7531866  24.8436624  13.4212816  82.3125786  24.8339489
  14.8370045  82.2388649  25.3651494  21.9900262  78.5358658  18.6779601
  21.3474643  78.8291192  18.0319395  21.4855191  78.4211579  19.4832798
  19.6440426  82.2821832   9.3665460  20.5558282  82.5149218   9.1913158
  19.1350073  82.8658876   8.8040539  12.4525854  84.5617319  24.4054591
  13.1940538  85.1002363  24.1289415  11.7462840  85.1883608  24.5626143
  17.9281194  86.7046460  23.0026753  18.3364550  86.2628870  22.2581385
  17.2058455  86.1299087  23.2560946  14.2812264  81.6419066  20.3760310
  15.1273459  82.0658480  20.5194959  14.2210901  80.9852691  21.0698873
  18.2510008  87.2647650  16.7579042  17.6218871  87.4293364  16.0555109
  17.8635670  87.6789260  17.5290006  22.1299240  88.2002088  14.1123405
  21.4450278  88.5800989  13.5620439  22.2143090  88.8097415  14.8455353
  17.4311709  79.3023435  22.0341483  17.1872641  80.0565495  21.4975759
  17.7071640  79.6808782  22.8688730  19.3850172  85.8462047  20.7118749
  19.5967067  86.4893807  20.0353130  19.3379920  85.0124364  20.2440679
  16.9876401  78.4579868  17.6155321  16.1260880  78.7561121  17.9072059
  17.0138835  78.6750267  16.6836354  13.8037970  87.0022058  14.0229127
  14.2676316  87.2809761  13.2333749  13.5394768  86.1005503  13.8402217
  10.6962051  86.5493540  16.9608890  11.2663408  86.9780808  16.3226374
  11.2870163  86.2676124  17.6593076  11.1887218  81.7156967  25.2069901
  10.5585878  82.3973248  25.4405298  11.0823306  81.6040049  24.2623040
  20.4996000  88.7234002  18.8841106  21.3213444  88.3214190  18.6023788
  20.4958403  88.6202237  19.8357222  14.2652603  88.2718046  21.0401817
  14.3297036  88.7338453  21.8759989  13.5563527  87.6415411  21.1684127
   4.7669893  81.6359254  18.5650816   5.0177932  82.5206264  18.8308392
   5.3029442  81.4563855  17.7925908  28.5901993  85.0672751  15.2326078
  27.8365701  84.4980149  15.0770082  28.7249534  85.0335415  16.1796712
  10.4667961  76.0177733  27.5695152  10.0734906  75.4643932  28.2442797
  11.2834101  76.3288312  27.9601670  13.3835922  77.4335612  25.1615409
  14.1245635  78.0342765  25.0819871  13.6153844  76.6913250  24.6033451
   8.5277260  82.6191979  23.4393639   8.4130775  81.7177237  23.7400737
   7.6721777  82.8655676  23.0878455  15.6069097  90.5609720  25.0381139
  15.1632951  89.7746098  24.7202044  16.2686311  90.7488870  24.3725030
  10.3656218  92.0905521  19.5641818  10.9163644  91.9622585  18.7918812
   9.5267694  92.3900410  19.2136710  17.7050335  90.8412520  23.0662540
  17.6868811  91.6621401  22.5742810  18.6270255  90.7166595  23.2912682
  14.1623389  88.3556649  23.9086049  14.6951726  87.5944937  23.6785357
  13.6337471  88.0630301  24.6510203  17.3293084  73.4616715  19.4379691
  16.9857354  74.3518357  19.3618801  17.6972047  73.2718373  18.5749276
  14.8790478  78.2975027  13.0037364  14.0232075  77.9081877  12.8243003
  15.2917430  78.3766988  12.1437150  16.4089625  75.8321370  17.4028924
  15.9054420  75.7951505  16.5896729  16.7020232  76.7414113  17.4625580
  12.6532511  75.9160100  16.4095106  13.5185507  75.7202909  16.0500995
  12.7210020  75.6870452  17.3364462  22.2677641  86.2057681   9.8805299
  21.4907084  85.8668840   9.4360461  22.9469122  86.2110304   9.2060264
  17.0829670  81.3252418   9.7711907  16.7779806  81.6398567  10.6222050
  18.0360112  81.4033838   9.8139240  20.5068948  85.6791662  16.5371907
  19.8492623  86.3690923  16.6252036  21.3109347  86.0688094  16.8805893
  10.2594830  78.1462308  13.7811472  10.8338582  77.9237489  13.0484665
  10.8465812  78.2151002  14.5340074  19.3174407  84.0336035  14.5875849
  19.8306289  84.6666027  15.0897559  19.9675631  83.4337230  14.2219209
  12.5617498  75.0203557  12.5086542  11.9081910  74.7052574  11.8843157
  12.5197972  74.3979297  13.2346365  15.7955238  81.5085490  16.8334189
  14.8777799  81.7300437  16.6755877  16.2115381  81.5831801  15.9745897
  16.5790286  82.9076906  11.9636870  17.3262105  83.4198303  11.6543992
  16.8481875  82.5860959  12.8241263  20.0836203  89.0142036  12.7154992
  19.6298530  88.1732946  12.7720182  19.4530170  89.6503435  13.0529772
  19.0269123  79.9434022  13.9455659  18.2891880  79.4311408  14.2765902
  19.2795896  79.5034404  13.1338936  18.5269142  90.8518533  13.6504810
  18.8192117  91.4123590  12.9317175  19.0367763  91.1447094  14.4057969
  19.1280750  72.7210274  14.5397428  19.4339627  71.8607638  14.2523343
  19.8533355  73.3127894  14.3396422  13.4001830  83.0164067  15.0473619
  13.4550440  82.0637904  14.9716096  12.5893032  83.1723506  15.5314918
  11.3394190  81.6341127  12.8063998  10.5262055  81.9335298  13.2129190
  11.8353184  81.2396816  13.5238480  16.9368401  82.0982952  21.6378892
  17.2917789  82.3254425  22.4973358  17.5840533  82.4301328  21.0156147
  22.6666138  85.2201387  12.3428221  22.5284037  85.4102983  11.4149410
  22.3102357  85.9820770  12.7996272  10.8308265  79.2059483  18.4225233
  11.4707644  79.0648242  17.7248196   9.9985795  78.9193996  18.0463835
  22.6935518  87.2877914  17.3539493  23.1272025  87.1953204  18.2022547
  23.4067099  87.2635415  16.7159509  16.4263413  90.8880009  18.8872593
  16.4800435  91.4570945  19.6550309  15.5578194  91.0581894  18.5226630
   9.3061806  80.5897565  20.3697044   9.9784860  80.3814927  19.7209693
   8.4791593  80.3919651  19.9302277  23.5551068  87.3301615  19.8872378
  23.7486958  88.2347426  20.1331653  23.4551686  86.8709034  20.7210963
  15.2087378  77.2159506  22.3862705  14.5615293  77.9149455  22.2927182
  15.9788394  77.6495650  22.7538954  18.6166176  87.4808358  25.4613259
  18.4651683  87.2518910  24.5443342  18.6070856  88.4378959  25.4744604
  15.3851513  85.0540271  20.4459525  16.3143573  85.2051430  20.2728492
  14.9642543  85.1424291  19.5908172  14.1839844  89.0790935  18.2158063
  14.0450930  88.7109719  19.0884001  13.3954441  89.5938574  18.0442020
  15.7345060  88.4572538  15.6046900  15.3994892  88.4173308  16.5004550
  15.2349005  87.7917254  15.1317311   9.7089304  83.8640168  21.1299482
   9.5709101  83.1320407  21.7311021  10.6194227  83.7749068  20.8483669
  12.3371604  83.5760127  20.6183161  13.0471223  82.9353319  20.5769780
  12.2940912  83.8273022  21.5409342  20.3258383  90.5127480  23.5389740
  20.2670929  89.8286701  22.8720323  20.7277901  91.2546470  23.0870366
  11.0500538  80.5625345  22.4378801  10.5137895  80.1116083  23.0900397
  10.4617247  80.6971254  21.6949265  20.3275790  88.4767064  21.7703720
  19.4402569  88.1392986  21.8930119  20.8974341  87.7450096  22.0072486
   6.7839659  79.6981353  19.5231795   6.6997848  79.0907022  18.7882205
   5.9622366  80.1890371  19.5241292  13.8576944  93.1368517  18.7364963
  13.7847115  93.9423488  19.2484268  13.4154337  93.3360483  17.9112985
  16.9563373  78.1834916  14.8901990  17.4532073  77.4304879  14.5703061
  16.1850355  78.2199233  14.3245200  24.8093131  83.8875282  16.5320282
  24.7983007  84.7699997  16.1614215  23.9410510  83.5346833  16.3374819
  16.3175627  93.0355351  20.8923122  17.0303599  93.6702816  20.8199023
  15.8265656  93.1319217  20.0763124  18.0393154  86.9406603  12.4640414
  17.1049433  87.0608066  12.2945118  18.2169822  86.0379070  12.2000424
  13.5398342  80.3252299  14.6173675  13.1696130  79.7723340  15.3054580
  14.0357434  79.7210433  14.0648675  21.4265705  82.7823923  12.9990448
  21.8926158  83.6151914  12.9250750  21.8773206  82.3168904  13.7035706
  11.3687541  90.7849794  21.7128693  12.0697000  91.4186277  21.8658087
  10.8982656  91.1264526  20.9524332  19.4941936  89.1267744   9.9976600
  19.7701780  89.0124339  10.9070474  18.6246435  88.7285229   9.9588773
  19.3982368  75.1504510  17.0381349  18.4845448  75.3808737  17.2063556
  19.8275470  75.2342954  17.8895382  19.1688827  83.3394402  19.5381243
  18.5160277  83.5870309  18.8833696  19.5469206  82.5258540  19.2043720
  15.2176400  84.0814213  26.0247280  14.5417037  83.9808342  26.6949655
  16.0404033  83.9253426  26.4883277  13.9599182  95.3881140  20.2604896
  14.5117490  95.5512762  21.0253981  14.3005376  95.9785578  19.5884921
   8.9363676  77.7356290  20.8626781   9.0005002  78.5971121  20.4504179
   8.8730796  77.1230292  20.1299139   8.4115948  79.8079423  24.5099815
   9.0387987  79.4256500  25.1237340   7.5543867  79.5893624  24.8755508
  18.8110057  90.2142398  26.1153551  19.3549961  90.8272356  25.6208505
  18.2296902  90.7721976  26.6320564  17.0967570  93.3363116  17.2468578
  16.9718709  92.5352856  16.7379524  17.7546661  93.8309309  16.7582548
   8.7175738  79.6911848  16.4245719   7.9962324  80.3047816  16.2853192
   9.5068994  80.2269613  16.3462365  19.1602478  91.1372136  18.8748128
  18.2132814  91.0177487  18.8026455  19.5085251  90.2494634  18.9574390
  11.5202051  77.0266275  22.6986370  12.0436453  77.2728571  23.4612680
  11.3014385  77.8586309  22.2789508  16.1648911  90.9324852  15.0752481
  16.0173874  90.0041559  15.2560051  16.9902405  90.9544943  14.5909556
  19.7683033  91.7553411  16.1617353  20.6929581  91.5496272  16.0241805
  19.5998337  91.5069812  17.0706695  12.7254597  77.9679970  20.3836041
  12.3851417  77.1687783  20.7856721  12.0193603  78.2681681  19.8112874
  13.3771068  75.0529282  18.8363364  14.1997138  74.5789760  18.7142254
  13.6209132  75.8319766  19.3362050  16.1610426  78.7862690  10.0684598
  16.3774040  79.6687328   9.7673426  15.6804493  78.3948903   9.3390240
  10.9009647  81.7448403  16.6455343  10.7554228  82.0588706  17.5379624
  10.4234851  82.3633303  16.0926241  12.7606030  78.7350951  16.6936232
  12.7467599  77.8392044  16.3568530  13.4778458  78.7421615  17.3274518
  14.6132161  79.1688291  18.7389360  14.3549939  80.0905362  18.7373690
  14.0817201  78.7718726  19.4289824  19.5578349  92.2739078  11.5179445
  19.7315227  91.7085501  10.7653297  20.0507241  93.0739973  11.3358935
   5.3755309  84.2853747  19.5843004   4.8308777  85.0613555  19.7163278
   6.2534659  84.6324552  19.4262125  12.1642926  77.6165331  11.9623802
  12.2858837  76.6881977  12.1614690  11.8744968  77.6304017  11.0502118
  15.0334116  75.3020242  15.0990522  15.0555813  75.3659575  14.1442502
  15.4502175  74.4624750  15.2931028  25.4117741  85.0375501  13.1369745
  25.8548887  84.2882826  12.7388868  24.5344251  85.0285637  12.7543477
   6.1621331  83.4123644  22.4773161   5.4203067  83.5606279  23.0637791
   5.8414075  83.6731909  21.6139910  22.4444945  89.0405548  10.1463674
  22.9696269  89.3792821   9.4212994  22.3567298  88.1052563   9.9626809
  14.1064994  92.9539622  22.2753551  14.4152120  92.7088769  23.1476250
  14.9040476  93.1586260  21.7872421  11.6484005  79.1297328  26.1713735
  11.6972161  80.0059451  25.7891504  12.1906520  78.5874722  25.5985378
  22.1338851  89.6738452  25.4514872  21.3434395  89.6562591  24.9119371
  21.8972206  90.2126745  26.2063909  22.2536726  86.5230918  22.7647600
  22.3034731  86.3580926  23.7063123  22.1450650  85.6558177  22.3745481
  19.5440489  82.5061846  24.0806907  20.4450351  82.3668311  23.7890905
  19.6188463  82.6716301  25.0205085  13.8783294  79.8828701  22.9260094
  13.0086603  80.1762267  22.6542682  14.1142774  80.4669146  23.6467357
  23.7554923  88.9427860  23.0089622  23.4639731  89.3057840  23.8453083
  23.1427054  88.2294868  22.8302954  24.9550605  86.5080739  15.5292192
  25.7897497  86.9470543  15.6929753  25.0909734  86.0319393  14.7100438
  22.0042111  84.0660474  21.4769680  22.4796233  84.2588121  20.6688531
  21.0807677  84.1219660  21.2313064  16.5822328  76.1008318  20.4425514
  17.1004272  76.8369345  20.1172002  16.2277461  76.4072311  21.2772273
  16.8334922  72.5208600  15.9626411  17.1136676  71.8531789  16.5886837
  17.6185529  72.7137696  15.4501074  20.7043780  80.9426234  19.7097986
  21.6561203  81.0424332  19.7310210  20.5347231  80.1504503  20.2196070
  18.7258160  78.0281818  19.8957387  18.1308092  78.3086830  19.2003875
  18.4407856  78.5175718  20.6674128  23.1831858  84.1632354  18.8240285
  23.1508178  83.2248355  19.0099969  23.7932482  84.2416391  18.0906110
  23.3326347  80.9543397  18.8698568  22.8165395  80.1701854  18.6828497
  24.2166295  80.6262114  19.0345088  20.9937073  74.6984413  14.8294381
  20.7961895  74.3899501  15.7137713  21.6036779  75.4246052  14.9592311
  29.0008408  85.2248361  17.9646322  29.7311796  84.9633649  18.5254025
  28.3915353  84.4877083  18.0048390  27.0823705  83.3656223  18.5620773
  26.3556869  83.2312188  17.9537265  26.6670992  83.6733052  19.3677491
  14.9053881  87.0846153  26.3268146  15.8256891  87.2624752  26.5208193
  14.8703464  86.1402198  26.1747846   7.9015954  84.9947188  18.9690927
   8.1201964  85.9264296  18.9878961   8.3141728  84.6355162  19.7545731
  14.8220172  75.5015273  10.9566616  14.0120900  75.1562358  11.3321862
  15.5104589  75.1922817  11.5454227  16.7510720  74.5793320  12.5790912
  17.3041759  74.9988773  13.2380936  16.9880806  73.6529068  12.6213868
  12.7743819  80.5680394  28.3593676  12.6740546  81.5174751  28.2905767
  12.5565361  80.2398632  27.4869746  20.1289527  76.6893845  12.0869577
  19.5488196  77.3478649  11.7047629  19.8625460  75.8671190  11.6756994
  18.5793094  76.0898903  14.2890897  19.0792872  76.2015437  13.4805216
  19.2228701  75.7859956  14.9291705  12.6375089  83.9977532  27.1758738
  12.1542171  84.7977893  27.3822627  12.7236028  84.0085477  26.2226182
   8.5648427  87.8882067  19.2127172   9.5191680  87.8566009  19.1457103
   8.3660950  87.4272691  20.0277398   9.1547809  86.4583183  21.7797969
   9.9740698  86.9527262  21.8032807   9.4284617  85.5415151  21.7515537
  18.9114405  78.8493935  11.1425925  18.0240260  79.1343586  10.9246120
  19.3268394  78.6887699  10.2953202  22.2628941  78.8740456  14.8580264
  23.0389331  79.3636909  15.1304881  21.5377075  79.2998511  15.3152134
  24.7001500  79.5868076  15.9154205  25.2945991  79.3463812  15.2047513
  24.7728084  78.8675206  16.5427741  18.8855429  84.3648471  11.3576215
  18.8290630  84.8217023  10.5183848  19.4383771  83.6039156  11.1799058
  22.6960235  80.1538203  12.1826335  22.4397169  79.7534839  13.0134542
  22.0713103  80.8681997  12.0576474  27.0072573  82.8934277  14.6897626
  26.4472131  82.9627466  15.4629188  26.4016076  82.7175261  13.9697122
  19.6190208  85.5553253   8.6528744  19.5639012  85.3897524   7.7117188
  18.9936264  86.2629286   8.8090934   4.4082723  80.7921317  22.4790167
   5.0541587  80.2820271  22.9677392   4.1999874  81.5289999  23.0533592
  16.9336115  87.8602164  27.9782307  17.8027275  88.0342817  27.6168942
  16.4542867  88.6796581  27.8558036  12.9286334  75.0561362   8.2314063
  12.9165004  76.0003202   8.3882334  13.8209756  74.8731507   7.9373524
  11.1022296  94.9799265  19.6571741  12.0049542  95.0122876  19.9738236
  10.8759666  94.0499716  19.6718077  16.7438453  71.6504138  12.4860000
  15.9770849  71.0962625  12.6316682  17.1549158  71.7226007  13.3474151
   8.7480214  77.9388934  26.5765181   9.6111676  77.5825739  26.7868505
   8.1745625  77.6002829  27.2640585  28.5928591  99.5690790  17.3827582
  29.2307001  99.4497538  16.6790922  28.4749434 100.5171634  17.4415534
  25.4018297  99.5218219  17.3189106  25.0636809  99.4059283  16.4309641
  26.2708066  99.1209384  17.2990113  25.8838080 100.6753070  23.2775312
  25.8726721 100.2805869  22.4055816  26.0458720  99.9419143  23.8709083
  22.6045342 103.4590182  22.2254496  22.3135208 104.3635813  22.1101162
  23.2402326 103.5006710  22.9398566  23.5301548 100.8367031  18.8155856
  24.1265121 100.6123053  18.1012819  23.5876520 100.0951776  19.4181303
  28.1469860  97.2942244  14.4580790  28.9332949  96.8761667  14.1071207
  28.4108564  98.1988336  14.6262438  33.5478287  97.2317477  15.3613768
  34.2803459  96.6616694  15.5951598  32.7917642  96.8439078  15.8020274
  25.1654406  99.6544719  12.5577111  24.8012614  99.1275340  13.2690032
  26.0221522  99.2643188  12.3843596  31.0703707  90.9439052  19.8208377
  30.7387032  91.8134463  19.5969592  30.4749321  90.6275336  20.5002407
  27.5635227 103.1451598  19.2204290  27.2635950 104.0476636  19.1120097
  27.2186286 102.8783781  20.0725443  21.0147708  99.5965394  15.2540994
  20.0898205  99.4641609  15.4618686  21.2632121 100.3759614  15.7510936
  30.9632370  95.6634138  16.9001727  30.0549248  95.5949546  16.6060488
  30.9119966  96.1406083  17.7283552  25.0373236  97.0823783  24.8436624
  24.2606570  97.6417703  24.8339489  25.6763799  97.5680566  25.3651494
  32.8294017  93.8650576  18.6779601  32.1868397  94.1583109  18.0319395
  32.3248945  93.7503497  19.4832798  30.4834181  97.6113749   9.3665460
  31.3952037  97.8441136   9.1913158  29.9743828  98.1950794   8.8040539
  23.2919609  99.8909237  24.4054591  24.0334293 100.4294281  24.1289415
  22.5856594 100.5175525  24.5626143  28.7674948 102.0338377  23.0026753
  29.1758304 101.5920788  22.2581385  28.0452210 101.4591005  23.2560946
  25.1206018  96.9710984  20.3760310  25.9667213  97.3950398  20.5194959
  25.0604656  96.3144608  21.0698873  29.0903763 102.5939568  16.7579042
  28.4612625 102.7585282  16.0555109  28.7029425 103.0081177  17.5290006
  32.9692995 103.5294006  14.1123405  32.2844033 103.9092907  13.5620439
  33.0536844 104.1389332  14.8455353  28.2705464  94.6315352  22.0341483
  28.0266395  95.3857413  21.4975759  28.5465394  95.0100700  22.8688730
  30.2243926 101.1753965  20.7118749  30.4360822 101.8185725  20.0353130
  30.1773675 100.3416281  20.2440679  27.8270155  93.7871785  17.6155321
  26.9654634  94.0853039  17.9072059  27.8532590  94.0042184  16.6836354
  24.6431725 102.3313976  14.0229127  25.1070070 102.6101679  13.2333749
  24.3788523 101.4297420  13.8402217  21.5355806 101.8785457  16.9608890
  22.1057163 102.3072726  16.3226374  22.1263918 101.5968042  17.6593076
  22.0280972  97.0448885  25.2069901  21.3979633  97.7265166  25.4405298
  21.9217060  96.9331967  24.2623040  31.3389754 104.0525920  18.8841106
  32.1607198 103.6506107  18.6023788  31.3352157 103.9494154  19.8357222
  25.1046358 103.6009963  21.0401817  25.1690790 104.0630371  21.8759989
  24.3957282 102.9707328  21.1684127  15.6063648  96.9651171  18.5650816
  15.8571686  97.8498181  18.8308392  16.1423196  96.7855773  17.7925908
  39.4295747 100.3964669  15.2326078  38.6759456  99.8272067  15.0770082
  39.5643289 100.3627333  16.1796712  21.3061715  91.3469651  27.5695152
  20.9128661  90.7935849  28.2442797  22.1227855  91.6580229  27.9601670
  24.2229676  92.7627530  25.1615409  24.9639389  93.3634683  25.0819871
  24.4547599  92.0205168  24.6033451  19.3671014  97.9483897  23.4393639
  19.2524529  97.0469154  23.7400737  18.5115532  98.1947594  23.0878455
  26.4462852 105.8901637  25.0381139  26.0026706 105.1038016  24.7202044
  27.1080065 106.0780788  24.3725030  21.2049973 107.4197439  19.5641818
  21.7557398 107.2914502  18.7918812  20.3661449 107.7192328  19.2136710
  28.5444090 106.1704437  23.0662540  28.5262565 106.9913318  22.5742810
  29.4664010 106.0458513  23.2912682  25.0017144 103.6848567  23.9086049
  25.5345481 102.9236855  23.6785357  24.4731225 103.3922219  24.6510203
  28.1686839  88.7908633  19.4379691  27.8251108  89.6810274  19.3618801
  28.5365802  88.6010290  18.5749276  25.7184233  93.6266945  13.0037364
  24.8625829  93.2373795  12.8243003  26.1311184  93.7058905  12.1437150
  27.2483379  91.1613288  17.4028924  26.7448175  91.1243423  16.5896729
  27.5413986  92.0706031  17.4625580  23.4926265  91.2452018  16.4095106
  24.3579262  91.0494826  16.0500995  23.5603774  91.0162369  17.3364462
  33.1071396 101.5349599   9.8805299  32.3300839 101.1960758   9.4360461
  33.7862877 101.5402222   9.2060264  27.9223425  96.6544336   9.7711907
  27.6173560  96.9690485  10.6222050  28.8753867  96.7325756   9.8139240
  31.3462703 101.0083580  16.5371907  30.6886377 101.6982841  16.6252036
  32.1503102 101.3980012  16.8805893  21.0988584  93.4754226  13.7811472
  21.6732336  93.2529407  13.0484665  21.6859567  93.5442920  14.5340074
  30.1568161  99.3627952  14.5875849  30.6700043  99.9957944  15.0897559
  30.8069385  98.7629148  14.2219209  23.4011252  90.3495474  12.5086542
  22.7475664  90.0344492  11.8843157  23.3591726  89.7271215  13.2346365
  26.6348992  96.8377408  16.8334189  25.7171554  97.0592355  16.6755877
  27.0509136  96.9123718  15.9745897  27.4184040  98.2368824  11.9636870
  28.1655859  98.7490221  11.6543992  27.6875630  97.9152876  12.8241263
  30.9229958 104.3433954  12.7154992  30.4692285 103.5024864  12.7720182
  30.2923924 104.9795352  13.0529772  29.8662877  95.2725940  13.9455659
  29.1285634  94.7603326  14.2765902  30.1189651  94.8326322  13.1338936
  29.3662897 106.1810451  13.6504810  29.6585871 106.7415508  12.9317175
  29.8761518 106.4739012  14.4057969  29.9674505  88.0502192  14.5397428
  30.2733381  87.1899555  14.2523343  30.6927109  88.6419812  14.3396422
  24.2395584  98.3455985  15.0473619  24.2944194  97.3929821  14.9716096
  23.4286786  98.5015424  15.5314918  22.1787944  96.9633045  12.8063998
  21.3655810  97.2627215  13.2129190  22.6746938  96.5688734  13.5238480
  27.7762156  97.4274869  21.6378892  28.1311544  97.6546342  22.4973358
  28.4234287  97.7593246  21.0156147  33.5059893 100.5493305  12.3428221
  33.3677791 100.7394901  11.4149410  33.1496112 101.3112688  12.7996272
  21.6702019  94.5351400  18.4225233  22.3101398  94.3940159  17.7248196
  20.8379550  94.2485914  18.0463835  33.5329272 102.6169832  17.3539493
  33.9665779 102.5245121  18.2022547  34.2460853 102.5927333  16.7159509
  27.2657167 106.2171926  18.8872593  27.3194190 106.7862863  19.6550309
  26.3971949 106.3873811  18.5226630  20.1455561  95.9189482  20.3697044
  20.8178614  95.7106845  19.7209693  19.3185347  95.7211568  19.9302277
  34.3944822 102.6593533  19.8872378  34.5880712 103.5639343  20.1331653
  34.2945440 102.2000952  20.7210963  26.0481133  92.5451423  22.3862705
  25.4009048  93.2441373  22.2927182  26.8182148  92.9787567  22.7538954
  29.4559931 102.8100276  25.4613259  29.3045437 102.5810827  24.5443342
  29.4464610 103.7670877  25.4744604  26.2245267 100.3832188  20.4459525
  27.1537327 100.5343348  20.2728492  25.8036297 100.4716209  19.5908172
  25.0233599 104.4082853  18.2158063  24.8844685 104.0401637  19.0884001
  24.2348195 104.9230492  18.0442020  26.5738814 103.7864455  15.6046900
  26.2388647 103.7465225  16.5004550  26.0742760 103.1209171  15.1317311
  20.5483058  99.1932085  21.1299482  20.4102856  98.4612324  21.7311021
  21.4587981  99.1040986  20.8483669  23.1765359  98.9052045  20.6183161
  23.8864977  98.2645237  20.5769780  23.1334667  99.1564940  21.5409342
  31.1652137 105.8419398  23.5389740  31.1064684 105.1578618  22.8720323
  31.5671656 106.5838388  23.0870366  21.8894293  95.8917263  22.4378801
  21.3531650  95.4408001  23.0900397  21.3011001  96.0263171  21.6949265
  31.1669545 103.8058982  21.7703720  30.2796323 103.4684904  21.8930119
  31.7368096 103.0742013  22.0072486  17.6233414  95.0273270  19.5231795
  17.5391603  94.4198940  18.7882205  16.8016120  95.5182289  19.5241292
  24.6970698 108.4660434  18.7364963  24.6240870 109.2715406  19.2484268
  24.2548091 108.6652400  17.9112985  27.7957128  93.5126834  14.8901990
  28.2925827  92.7596796  14.5703061  27.0244109  93.5491151  14.3245200
  35.6486885  99.2167199  16.5320282  35.6376761 100.0991915  16.1614215
  34.7804265  98.8638750  16.3374819  27.1569382 108.3647268  20.8923122
  27.8697354 108.9994733  20.8199023  26.6659410 108.4611134  20.0763124
  28.8786908 102.2698521  12.4640414  27.9443187 102.3899984  12.2945118
  29.0563577 101.3670988  12.2000424  24.3792097  95.6544217  14.6173675
  24.0089884  95.1015257  15.3054580  24.8751189  95.0502350  14.0648675
  32.2659460  98.1115840  12.9990448  32.7319912  98.9443832  12.9250750
  32.7166960  97.6460822  13.7035706  22.2081295 106.1141712  21.7128693
  22.9090755 106.7478195  21.8658087  21.7376410 106.4556443  20.9524332
  30.3335691 104.4559662   9.9976600  30.6095535 104.3416256  10.9070474
  29.4640190 104.0577147   9.9588773  30.2376123  90.4796427  17.0381349
  29.3239202  90.7100654  17.2063556  30.6669224  90.5634871  17.8895382
  30.0082581  98.6686319  19.5381243  29.3554031  98.9162227  18.8833696
  30.3862961  97.8550458  19.2043720  26.0570154  99.4106130  26.0247280
  25.3810791  99.3100260  26.6949655  26.8797788  99.2545344  26.4883277
  24.7992937 110.7173058  20.2604896  25.3511245 110.8804679  21.0253981
  25.1399130 111.3077496  19.5884921  19.7757430  93.0648208  20.8626781
  19.8398757  93.9263039  20.4504179  19.7124550  92.4522209  20.1299139
  19.2509703  95.1371340  24.5099815  19.8781742  94.7548417  25.1237340
  18.3937622  94.9185542  24.8755508  29.6503811 105.5434315  26.1153551
  30.1943715 106.1564274  25.6208505  29.0690656 106.1013894  26.6320564
  27.9361324 108.6655033  17.2468578  27.8112464 107.8644773  16.7379524
  28.5940415 109.1601227  16.7582548  19.5569492  95.0203766  16.4245719
  18.8356078  95.6339734  16.2853192  20.3462748  95.5561531  16.3462365
  29.9996233 106.4664053  18.8748128  29.0526568 106.3469405  18.8026455
  30.3479006 105.5786551  18.9574390  22.3595806  92.3558192  22.6986370
  22.8830208  92.6020489  23.4612680  22.1408139  93.1878227  22.2789508
  27.0042666 106.2616770  15.0752481  26.8567628 105.3333477  15.2560051
  27.8296159 106.2836860  14.5909556  30.6076788 107.0845328  16.1617353
  31.5323335 106.8788190  16.0241805  30.4392091 106.8361730  17.0706695
  23.5648351  93.2971887  20.3836041  23.2245171  92.4979701  20.7856721
  22.8587357  93.5973598  19.8112874  24.2164823  90.3821200  18.8363364
  25.0390892  89.9081678  18.7142254  24.4602886  91.1611684  19.3362050
  27.0004180  94.1154607  10.0684598  27.2167795  94.9979245   9.7673426
  26.5198247  93.7240821   9.3390240  21.7403402  97.0740321  16.6455343
  21.5947982  97.3880624  17.5379624  21.2628605  97.6925221  16.0926241
  23.5999784  94.0642869  16.6936232  23.5861353  93.1683962  16.3568530
  24.3172213  94.0713532  17.3274518  25.4525915  94.4980209  18.7389360
  25.1943693  95.4197279  18.7373690  24.9210956  94.1010643  19.4289824
  30.3972104 107.6030996  11.5179445  30.5708981 107.0377418  10.7653297
  30.8900995 108.4031891  11.3358935  16.2149064  99.6145665  19.5843004
  15.6702532 100.3905473  19.7163278  17.0928414  99.9616469  19.4262125
  23.0036680  92.9457249  11.9623802  23.1252592  92.0173895  12.1614690
  22.7138723  92.9595935  11.0502118  25.8727871  90.6312159  15.0990522
  25.8949568  90.6951492  14.1442502  26.2895930  89.7916668  15.2931028
  36.2511495 100.3667419  13.1369745  36.6942641  99.6174744  12.7388868
  35.3738005 100.3577555  12.7543477  17.0015086  98.7415561  22.4773161
  16.2596822  98.8898197  23.0637791  16.6807830  99.0023827  21.6139910
  33.2838700 104.3697466  10.1463674  33.8090024 104.7084739   9.4212994
  33.1961052 103.4344481   9.9626809  24.9458748 108.2831539  22.2753551
  25.2545875 108.0380686  23.1476250  25.7434230 108.4878178  21.7872421
  22.4877760  94.4589246  26.1713735  22.5365915  95.3351369  25.7891504
  23.0300274  93.9166639  25.5985378  32.9732606 105.0030369  25.4514872
  32.1828149 104.9854508  24.9119371  32.7365960 105.5418663  26.2063909
  33.0930481 101.8522836  22.7647600  33.1428486 101.6872843  23.7063123
  32.9844404 100.9850095  22.3745481  30.3834243  97.8353764  24.0806907
  31.2844106  97.6960229  23.7890905  30.4582218  98.0008219  25.0205085
  24.7177048  95.2120619  22.9260094  23.8480358  95.5054185  22.6542682
  24.9536529  95.7961064  23.6467357  34.5948678 104.2719777  23.0089622
  34.3033486 104.6349758  23.8453083  33.9820809 103.5586786  22.8302954
  35.7944360 101.8372657  15.5292192  36.6291251 102.2762461  15.6929753
  35.9303489 101.3611310  14.7100438  32.8435866  99.3952392  21.4769680
  33.3189987  99.5880038  20.6688531  31.9201431  99.4511578  21.2313064
  27.4216082  91.4300235  20.4425514  27.9398026  92.1661262  20.1172002
  27.0671215  91.7364229  21.2772273  27.6728676  87.8500518  15.9626411
  27.9530430  87.1823707  16.5886837  28.4579283  88.0429614  15.4501074
  31.5437535  96.2718152  19.7097986  32.4954958  96.3716250  19.7310210
  31.3740985  95.4796421  20.2196070  29.5651914  93.3573735  19.8957387
  28.9701846  93.6378748  19.2003875  29.2801611  93.8467636  20.6674128
  34.0225613  99.4924272  18.8240285  33.9901933  98.5540272  19.0099969
  34.6326236  99.5708308  18.0906110  34.1720101  96.2835315  18.8698568
  33.6559150  95.4993772  18.6828497  35.0560050  95.9554032  19.0345088
  31.8330828  90.0276331  14.8294381  31.6355649  89.7191419  15.7137713
  32.4430534  90.7537970  14.9592311  39.8402162 100.5540279  17.9646322
  40.5705551 100.2925567  18.5254025  39.2309108  99.8169000  18.0048390
  37.9217460  98.6948141  18.5620773  37.1950623  98.5604106  17.9537265
  37.5064746  99.0024970  19.3677491  25.7447636 102.4138071  26.3268146
  26.6650645 102.5916670  26.5208193  25.7097219 101.4694116  26.1747846
  18.7409708 100.3239105  18.9690927  18.9595718 101.2556213  18.9878961
  19.1535482  99.9647080  19.7545731  25.6613926  90.8307191  10.9566616
  24.8514655  90.4854276  11.3321862  26.3498343  90.5214735  11.5454227
  27.5904475  89.9085238  12.5790912  28.1435513  90.3280691  13.2380936
  27.8274561  88.9820986  12.6213868  23.6137574  95.8972311  28.3593676
  23.5134301  96.8466668  28.2905767  23.3959116  95.5690550  27.4869746
  30.9683282  92.0185763  12.0869577  30.3881951  92.6770567  11.7047629
  30.7019214  91.1963107  11.6756994  29.4186848  91.4190820  14.2890897
  29.9186626  91.5307355  13.4805216  30.0622456  91.1151873  14.9291705
  23.4768844  99.3269450  27.1758738  22.9935926 100.1269810  27.3822627
  23.5629783  99.3377395  26.2226182  19.4042181 103.2173985  19.2127172
  20.3585435 103.1857927  19.1457103  19.2054705 102.7564609  20.0277398
  19.9941563 101.7875101  21.7797969  20.8134452 102.2819179  21.8032807
  20.2678371 100.8707069  21.7515537  29.7508160  94.1785853  11.1425925
  28.8634015  94.4635504  10.9246120  30.1662149  94.0179617  10.2953202
  33.1022696  94.2032374  14.8580264  33.8783086  94.6928827  15.1304881
  32.3770830  94.6290428  15.3152134  35.5395254  94.9159993  15.9154205
  36.1339745  94.6755729  15.2047513  35.6121838  94.1967124  16.5427741
  29.7249183  99.6940389  11.3576215  29.6684385 100.1508940  10.5183848
  30.2777526  98.9331074  11.1799058  33.5353989  95.4830121  12.1826335
  33.2790924  95.0826757  13.0134542  32.9106857  96.1973915  12.0576474
  37.8466327  98.2226194  14.6897626  37.2865885  98.2919383  15.4629188
  37.2409831  98.0467179  13.9697122  30.4583963 100.8845170   8.6528744
  30.4032767 100.7189442   7.7117188  29.8330018 101.5921203   8.8090934
  15.2476478  96.1213235  22.4790167  15.8935341  95.6112189  22.9677392
  15.0393629  96.8581916  23.0533592  27.7729870 103.1894082  27.9782307
  28.6421030 103.3634734  27.6168942  27.2936621 104.0088499  27.8558036
  23.7680088  90.3853279   8.2314063  23.7558758  91.3295119   8.3882334
  24.6603510  90.2023425   7.9373524  21.9416050 110.3091183  19.6571741
  22.8443297 110.3414793  19.9738236  21.7153420 109.3791634  19.6718077
  27.5832208  86.9796056  12.4860000  26.8164603  86.4254543  12.6316682
  27.9942913  87.0517925  13.3474151  19.5873969  93.2680852  26.5765181
  20.4505430  92.9117657  26.7868505  19.0139379  92.9294747  27.2640585
  39.4322346 114.8982708  17.3827582  40.0700756 114.7789455  16.6790922
  39.3143189 115.8463552  17.4415534  36.2412052 114.8510136  17.3189106
  35.9030563 114.7351201  16.4309641  37.1101820 114.4501301  17.2990113
  36.7231835 116.0044988  23.2775312  36.7120476 115.6097786  22.4055816
  36.8852474 115.2711061  23.8709083  33.4439096 118.7882100  22.2254496
  33.1528962 119.6927731  22.1101162  34.0796080 118.8298627  22.9398566
  34.3695303 116.1658948  18.8155856  34.9658875 115.9414971  18.1012819
  34.4270274 115.4243694  19.4181303  38.9863614 112.6234162  14.4580790
  39.7726703 112.2053585  14.1071207  39.2502318 113.5280254  14.6262438
  44.3872041 112.5609395  15.3613768  45.1197213 111.9908612  15.5951598
  43.6311397 112.1730996  15.8020274  36.0048161 114.9836637  12.5577111
  35.6406368 114.4567258  13.2690032  36.8615277 114.5935106  12.3843596
  41.9097462 106.2730969  19.8208377  41.5780786 107.1426380  19.5969592
  41.3143075 105.9567253  20.5002407  38.4028981 118.4743515  19.2204290
  38.1029704 119.3768554  19.1120097  38.0580041 118.2075698  20.0725443
  31.8541463 114.9257312  15.2540994  30.9291959 114.7933526  15.4618686
  32.1025876 115.7051531  15.7510936  41.8026125 110.9926055  16.9001727
  40.8943002 110.9241464  16.6060488  41.7513721 111.4698000  17.7283552
  35.8766991 112.4115701  24.8436624  35.1000325 112.9709621  24.8339489
  36.5157554 112.8972484  25.3651494  43.6687771 109.1942494  18.6779601
  43.0262152 109.4875027  18.0319395  43.1642700 109.0795414  19.4832798
  41.3227935 112.9405667   9.3665460  42.2345791 113.1733054   9.1913158
  40.8137582 113.5242711   8.8040539  34.1313363 115.2201154  24.4054591
  34.8728047 115.7586198  24.1289415  33.4250348 115.8467443  24.5626143
  39.6068703 117.3630295  23.0026753  40.0152059 116.9212705  22.2581385
  38.8845964 116.7882922  23.2560946  35.9599773 112.3002902  20.3760310
  36.8060968 112.7242315  20.5194959  35.8998410 111.6436526  21.0698873
  39.9297517 117.9231485  16.7579042  39.3006380 118.0877200  16.0555109
  39.5423179 118.3373095  17.5290006  43.8086749 118.8585923  14.1123405
  43.1237787 119.2384825  13.5620439  43.8930599 119.4681250  14.8455353
  39.1099218 109.9607270  22.0341483  38.8660150 110.7149331  21.4975759
  39.3859149 110.3392618  22.8688730  41.0637681 116.5045882  20.7118749
  41.2754576 117.1477642  20.0353130  41.0167429 115.6708199  20.2440679
  38.6663910 109.1163703  17.6155321  37.8048389 109.4144957  17.9072059
  38.6926344 109.3334102  16.6836354  35.4825479 117.6605894  14.0229127
  35.9463825 117.9393597  13.2333749  35.2182277 116.7589338  13.8402217
  32.3749560 117.2077375  16.9608890  32.9450917 117.6364643  16.3226374
  32.9657672 116.9259960  17.6593076  32.8674727 112.3740803  25.2069901
  32.2373387 113.0557083  25.4405298  32.7610815 112.2623884  24.2623040
  42.1783509 119.3817838  18.8841106  43.0000952 118.9798025  18.6023788
  42.1745912 119.2786072  19.8357222  35.9440112 118.9301881  21.0401817
  36.0084545 119.3922288  21.8759989  35.2351036 118.2999246  21.1684127
  26.4457402 112.2943089  18.5650816  26.6965441 113.1790099  18.8308392
  26.9816951 112.1147691  17.7925908  50.2689502 115.7256586  15.2326078
  49.5153210 115.1563984  15.0770082  50.4037043 115.6919251  16.1796712
  32.1455469 106.6761568  27.5695152  31.7522415 106.1227767  28.2442797
  32.9621610 106.9872147  27.9601670  35.0623430 108.0919448  25.1615409
  35.8033144 108.6926601  25.0819871  35.2941353 107.3497085  24.6033451
  30.2064768 113.2775815  23.4393639  30.0918284 112.3761072  23.7400737
  29.3509286 113.5239512  23.0878455  37.2856606 121.2193555  25.0381139
  36.8420460 120.4329934  24.7202044  37.9473820 121.4072706  24.3725030
  32.0443727 122.7489357  19.5641818  32.5951153 122.6206420  18.7918812
  31.2055203 123.0484246  19.2136710  39.3837844 121.4996355  23.0662540
  39.3656320 122.3205236  22.5742810  40.3057764 121.3750430  23.2912682
  35.8410898 119.0140484  23.9086049  36.3739235 118.2528773  23.6785357
  35.3124980 118.7214136  24.6510203  39.0080593 104.1200550  19.4379691
  38.6644863 105.0102192  19.3618801  39.3759556 103.9302208  18.5749276
  36.5577987 108.9558862  13.0037364  35.7019584 108.5665713  12.8243003
  36.9704939 109.0350823  12.1437150  38.0877134 106.4905206  17.4028924
  37.5841929 106.4535341  16.5896729  38.3807741 107.3997948  17.4625580
  34.3320020 106.5743935  16.4095106  35.1973016 106.3786744  16.0500995
  34.3997529 106.3454287  17.3364462  43.9465150 116.8641516   9.8805299
  43.1694593 116.5252676   9.4360461  44.6256631 116.8694139   9.2060264
  38.7617179 111.9836254   9.7711907  38.4567315 112.2982403  10.6222050
  39.7147621 112.0617674   9.8139240  42.1856457 116.3375497  16.5371907
  41.5280132 117.0274759  16.6252036  42.9896856 116.7271929  16.8805893
  31.9382339 108.8046143  13.7811472  32.5126091 108.5821325  13.0484665
  32.5253321 108.8734838  14.5340074  40.9961916 114.6919870  14.5875849
  41.5093798 115.3249862  15.0897559  41.6463140 114.0921066  14.2219209
  34.2405006 105.6787392  12.5086542  33.5869419 105.3636409  11.8843157
  34.1985481 105.0563133  13.2346365  37.4742747 112.1669326  16.8334189
  36.5565308 112.3884273  16.6755877  37.8902890 112.2415636  15.9745897
  38.2577795 113.5660741  11.9636870  39.0049614 114.0782139  11.6543992
  38.5269384 113.2444794  12.8241263  41.7623712 119.6725872  12.7154992
  41.3086039 118.8316781  12.7720182  41.1317679 120.3087270  13.0529772
  40.7056632 110.6017858  13.9455659  39.9679389 110.0895244  14.2765902
  40.9583405 110.1618239  13.1338936  40.2056651 121.5102368  13.6504810
  40.4979626 122.0707425  12.9317175  40.7155272 121.8030929  14.4057969
  40.8068259 103.3794110  14.5397428  41.1127136 102.5191473  14.2523343
  41.5320864 103.9711730  14.3396422  35.0789339 113.6747903  15.0473619
  35.1337949 112.7221739  14.9716096  34.2680541 113.8307342  15.5314918
  33.0181699 112.2924962  12.8063998  32.2049564 112.5919133  13.2129190
  33.5140693 111.8980651  13.5238480  38.6155910 112.7566787  21.6378892
  38.9705298 112.9838260  22.4973358  39.2628042 113.0885164  21.0156147
  44.3453647 115.8785223  12.3428221  44.2071546 116.0686819  11.4149410
  43.9889866 116.6404606  12.7996272  32.5095774 109.8643318  18.4225233
  33.1495153 109.7232077  17.7248196  31.6773304 109.5777831  18.0463835
  44.3723027 117.9461750  17.3539493  44.8059534 117.8537039  18.2022547
  45.0854608 117.9219250  16.7159509  38.1050922 121.5463844  18.8872593
  38.1587944 122.1154780  19.6550309  37.2365703 121.7165729  18.5226630
  30.9849315 111.2481400  20.3697044  31.6572369 111.0398762  19.7209693
  30.1579102 111.0503486  19.9302277  45.2338577 117.9885450  19.8872378
  45.4274467 118.8931261  20.1331653  45.1339195 117.5292870  20.7210963
  36.8874887 107.8743341  22.3862705  36.2402802 108.5733291  22.2927182
  37.6575903 108.3079485  22.7538954  40.2953685 118.1392193  25.4613259
  40.1439192 117.9102745  24.5443342  40.2858365 119.0962795  25.4744604
  37.0639022 115.7124106  20.4459525  37.9931082 115.8635266  20.2728492
  36.6430052 115.8008127  19.5908172  35.8627353 119.7374770  18.2158063
  35.7238439 119.3693555  19.0884001  35.0741950 120.2522410  18.0442020
  37.4132569 119.1156373  15.6046900  37.0782401 119.0757143  16.5004550
  36.9136514 118.4501089  15.1317311  31.3876813 114.5224003  21.1299482
  31.2496610 113.7904242  21.7311021  32.2981736 114.4332903  20.8483669
  34.0159113 114.2343962  20.6183161  34.7258732 113.5937155  20.5769780
  33.9728421 114.4856857  21.5409342  42.0045892 121.1711316  23.5389740
  41.9458438 120.4870536  22.8720323  42.4065410 121.9130306  23.0870366
  32.7288047 111.2209180  22.4378801  32.1925404 110.7699919  23.0900397
  32.1404756 111.3555089  21.6949265  42.0063299 119.1350900  21.7703720
  41.1190078 118.7976821  21.8930119  42.5761850 118.4033931  22.0072486
  28.4627168 110.3565188  19.5231795  28.3785357 109.7490858  18.7882205
  27.6409875 110.8474206  19.5241292  35.5364453 123.7952352  18.7364963
  35.4634624 124.6007324  19.2484268  35.0941846 123.9944318  17.9112985
  38.6350882 108.8418752  14.8901990  39.1319582 108.0888714  14.5703061
  37.8637864 108.8783068  14.3245200  46.4880640 114.5459117  16.5320282
  46.4770516 115.4283833  16.1614215  45.6198019 114.1930668  16.3374819
  37.9963136 123.6939186  20.8923122  38.7091108 124.3286651  20.8199023
  37.5053165 123.7903052  20.0763124  39.7180663 117.5990439  12.4640414
  38.7836942 117.7191901  12.2945118  39.8957331 116.6962906  12.2000424
  35.2185851 110.9836135  14.6173675  34.8483639 110.4307175  15.3054580
  35.7144943 110.3794268  14.0648675  43.1053214 113.4407758  12.9990448
  43.5713667 114.2735750  12.9250750  43.5560715 112.9752740  13.7035706
  33.0475050 121.4433630  21.7128693  33.7484509 122.0770113  21.8658087
  32.5770165 121.7848361  20.9524332  41.1729445 119.7851579   9.9976600
  41.4489289 119.6708174  10.9070474  40.3033944 119.3869064   9.9588773
  41.0769877 105.8088345  17.0381349  40.1632957 106.0392572  17.2063556
  41.5062979 105.8926789  17.8895382  40.8476336 113.9978237  19.5381243
  40.1947786 114.2454144  18.8833696  41.2256715 113.1842375  19.2043720
  36.8963909 114.7398048  26.0247280  36.2204546 114.6392177  26.6949655
  37.7191542 114.5837262  26.4883277  35.6386691 126.0464976  20.2604896
  36.1904999 126.2096597  21.0253981  35.9792885 126.6369413  19.5884921
  30.6151185 108.3940125  20.8626781  30.6792511 109.2554956  20.4504179
  30.5518305 107.7814127  20.1299139  30.0903457 110.4663258  24.5099815
  30.7175496 110.0840335  25.1237340  29.2331376 110.2477460  24.8755508
  40.4897566 120.8726233  26.1153551  41.0337470 121.4856191  25.6208505
  39.9084411 121.4305811  26.6320564  38.7755079 123.9946951  17.2468578
  38.6506218 123.1936691  16.7379524  39.4334170 124.4893144  16.7582548
  30.3963247 110.3495684  16.4245719  29.6749833 110.9631651  16.2853192
  31.1856503 110.8853448  16.3462365  40.8389987 121.7955971  18.8748128
  39.8920323 121.6761322  18.8026455  41.1872760 120.9078469  18.9574390
  33.1989560 107.6850110  22.6986370  33.7223962 107.9312407  23.4612680
  32.9801894 108.5170145  22.2789508  37.8436420 121.5908687  15.0752481
  37.6961383 120.6625395  15.2560051  38.6689914 121.6128778  14.5909556
  41.4470542 122.4137246  16.1617353  42.3717090 122.2080107  16.0241805
  41.2785846 122.1653647  17.0706695  34.4042106 108.6263805  20.3836041
  34.0638926 107.8271618  20.7856721  33.6981112 108.9265516  19.8112874
  35.0558577 105.7113118  18.8363364  35.8784647 105.2373596  18.7142254
  35.2996641 106.4903601  19.3362050  37.8397935 109.4446525  10.0684598
  38.0561549 110.3271163   9.7673426  37.3592002 109.0532738   9.3390240
  32.5797156 112.4032238  16.6455343  32.4341737 112.7172541  17.5379624
  32.1022360 113.0217139  16.0926241  34.4393539 109.3934786  16.6936232
  34.4255108 108.4975880  16.3568530  35.1565967 109.4005450  17.3274518
  36.2919670 109.8272126  18.7389360  36.0337448 110.7489197  18.7373690
  35.7604710 109.4302561  19.4289824  41.2365858 122.9322914  11.5179445
  41.4102736 122.3669336  10.7653297  41.7294750 123.7323808  11.3358935
  27.0542818 114.9437583  19.5843004  26.5096286 115.7197391  19.7163278
  27.9322168 115.2908387  19.4262125  33.8430435 108.2749166  11.9623802
  33.9646346 107.3465813  12.1614690  33.5532477 108.2887852  11.0502118
  36.7121625 105.9604077  15.0990522  36.7343322 106.0243410  14.1442502
  37.1289684 105.1208586  15.2931028  47.0905250 115.6959336  13.1369745
  47.5336396 114.9466662  12.7388868  46.2131760 115.6869473  12.7543477
  27.8408840 114.0707479  22.4773161  27.0990576 114.2190114  23.0637791
  27.5201584 114.3315744  21.6139910  44.1232454 119.6989383  10.1463674
  44.6483778 120.0376656   9.4212994  44.0354807 118.7636399   9.9626809
  35.7852503 123.6123457  22.2753551  36.0939629 123.3672604  23.1476250
  36.5827985 123.8170096  21.7872421  33.3271514 109.7881164  26.1713735
  33.3759670 110.6643287  25.7891504  33.8694029 109.2458557  25.5985378
  43.8126360 120.3322287  25.4514872  43.0221904 120.3146426  24.9119371
  43.5759715 120.8710581  26.2063909  43.9324235 117.1814753  22.7647600
  43.9822240 117.0164761  23.7063123  43.8238159 116.3142012  22.3745481
  41.2227998 113.1645681  24.0806907  42.1237860 113.0252146  23.7890905
  41.2975972 113.3300136  25.0205085  35.5570803 110.5412536  22.9260094
  34.6874112 110.8346102  22.6542682  35.7930283 111.1252981  23.6467357
  45.4342432 119.6011695  23.0089622  45.1427240 119.9641676  23.8453083
  44.8214563 118.8878703  22.8302954  46.6338114 117.1664575  15.5292192
  47.4685006 117.6054379  15.6929753  46.7697243 116.6903228  14.7100438
  43.6829620 114.7244310  21.4769680  44.1583742 114.9171956  20.6688531
  42.7595186 114.7803495  21.2313064  38.2609837 106.7592153  20.4425514
  38.7791781 107.4953180  20.1172002  37.9064970 107.0656146  21.2772273
  38.5122431 103.1792436  15.9626411  38.7924185 102.5115625  16.5886837
  39.2973038 103.3721531  15.4501074  42.3831289 111.6010070  19.7097986
  43.3348712 111.7008167  19.7310210  42.2134740 110.8088338  20.2196070
  40.4045669 108.6865653  19.8957387  39.8095601 108.9670666  19.2003875
  40.1195365 109.1759554  20.6674128  44.8619367 114.8216189  18.8240285
  44.8295687 113.8832190  19.0099969  45.4719991 114.9000226  18.0906110
  45.0113856 111.6127233  18.8698568  44.4952904 110.8285689  18.6828497
  45.8953804 111.2845949  19.0345088  42.6724582 105.3568248  14.8294381
  42.4749404 105.0483337  15.7137713  43.2824288 106.0829887  14.9592311
  50.6795917 115.8832196  17.9646322  51.4099305 115.6217484  18.5254025
  50.0702862 115.1460918  18.0048390  48.7611214 114.0240059  18.5620773
  48.0344378 113.8896024  17.9537265  48.3458501 114.3316887  19.3677491
  36.5841390 117.7429988  26.3268146  37.5044400 117.9208587  26.5208193
  36.5490973 116.7986034  26.1747846  29.5803463 115.6531023  18.9690927
  29.7989473 116.5848131  18.9878961  29.9929237 115.2938998  19.7545731
  36.5007681 106.1599108  10.9566616  35.6908409 105.8146193  11.3321862
  37.1892098 105.8506652  11.5454227  38.4298229 105.2377155  12.5790912
  38.9829268 105.6572609  13.2380936  38.6668315 104.3112903  12.6213868
  34.4531328 111.2264229  28.3593676  34.3528055 112.1758586  28.2905767
  34.2352870 110.8982468  27.4869746  41.8077036 107.3477680  12.0869577
  41.2275705 108.0062484  11.7047629  41.5412969 106.5255025  11.6756994
  40.2580603 106.7482738  14.2890897  40.7580381 106.8599273  13.4805216
  40.9016210 106.4443791  14.9291705  34.3162598 114.6561368  27.1758738
  33.8329680 115.4561728  27.3822627  34.4023537 114.6669313  26.2226182
  30.2435936 118.5465902  19.2127172  31.1979189 118.5149845  19.1457103
  30.0448459 118.0856526  20.0277398  30.8335318 117.1167018  21.7797969
  31.6528207 117.6111097  21.8032807  31.1072126 116.1998987  21.7515537
  40.5901914 109.5077771  11.1425925  39.7027769 109.7927421  10.9246120
  41.0055903 109.3471534  10.2953202  43.9416450 109.5324292  14.8580264
  44.7176840 110.0220744  15.1304881  43.2164584 109.9582346  15.3152134
  46.3789009 110.2451911  15.9154205  46.9733500 110.0047647  15.2047513
  46.4515593 109.5259042  16.5427741  40.5642938 115.0232307  11.3576215
  40.5078139 115.4800858  10.5183848  41.1171280 114.2622991  11.1799058
  44.3747744 110.8122039  12.1826335  44.1184678 110.4118674  13.0134542
  43.7500612 111.5265833  12.0576474  48.6860082 113.5518112  14.6897626
  48.1259640 113.6211301  15.4629188  48.0803585 113.3759096  13.9697122
  41.2977717 116.2137088   8.6528744  41.2426521 116.0481359   7.7117188
  40.6723772 116.9213121   8.8090934  26.0870232 111.4505152  22.4790167
  26.7329096 110.9404106  22.9677392  25.8787383 112.1873834  23.0533592
  38.6123624 118.5186000  27.9782307  39.4814784 118.6926652  27.6168942
  38.1330376 119.3380417  27.8558036  34.6073843 105.7145197   8.2314063
  34.5952513 106.6587037   8.3882334  35.4997265 105.5315342   7.9373524
  32.7809805 125.6383101  19.6571741  33.6837051 125.6706711  19.9738236
  32.5547175 124.7083552  19.6718077  38.4225962 102.3087974  12.4860000
  37.6558358 101.7546460  12.6316682  38.8336667 102.3809842  13.3474151
  30.4267723 108.5972769  26.5765181  31.2899185 108.2409574  26.7868505
  29.8533134 108.2586664  27.2640585  50.2716100 130.2274626  17.3827582
  50.9094510 130.1081373  16.6790922  50.1536943 131.1755470  17.4415534
  47.0805806 130.1802054  17.3189106  46.7424318 130.0643119  16.4309641
  47.9495575 129.7793219  17.2990113  47.5625589 131.3336906  23.2775312
  47.5514230 130.9389704  22.4055816  47.7246229 130.6002978  23.8709083
  45.2089057 131.4950866  18.8155856  45.8052630 131.2706888  18.1012819
  45.2664029 130.7535611  19.4181303  49.8257369 127.9526080  14.4580790
  50.6120458 127.5345503  14.1071207  50.0896073 128.8572172  14.6262438
  55.2265796 127.8901313  15.3613768  55.9590968 127.3200530  15.5951598
  54.4705151 127.5022913  15.8020274  46.8441915 130.3128554  12.5577111
  46.4800123 129.7859175  13.2690032  47.7009031 129.9227023  12.3843596
  52.7491216 121.6022887  19.8208377  52.4174541 122.4718298  19.5969592
  52.1536829 121.2859171  20.5002407  49.2422736 133.8035433  19.2204290
  48.9423459 134.7060472  19.1120097  48.8973795 133.5367616  20.0725443
  42.6935217 130.2549230  15.2540994  41.7685714 130.1225444  15.4618686
  42.9419630 131.0343449  15.7510936  52.6419879 126.3217973  16.9001727
  51.7336757 126.2533382  16.6060488  52.5907475 126.7989918  17.7283552
  46.7160745 127.7407619  24.8436624  45.9394079 128.3001539  24.8339489
  47.3551308 128.2264402  25.3651494  54.5081526 124.5234412  18.6779601
  53.8655906 124.8166945  18.0319395  54.0036454 124.4087332  19.4832798
  44.9707118 130.5493072  24.4054591  45.7121802 131.0878116  24.1289415
  44.2644103 131.1759361  24.5626143  50.4462457 132.6922213  23.0026753
  50.8545813 132.2504623  22.2581385  49.7239719 132.1174840  23.2560946
  46.7993527 127.6294819  20.3760310  47.6454722 128.0534233  20.5194959
  46.7392165 126.9728444  21.0698873  50.7691272 133.2523403  16.7579042
  50.1400134 133.4169117  16.0555109  50.3816934 133.6665013  17.5290006
  49.9492973 125.2899188  22.0341483  49.7053904 126.0441248  21.4975759
  50.2252903 125.6684535  22.8688730  51.9031435 131.8337800  20.7118749
  52.1148331 132.4769560  20.0353130  51.8561184 131.0000117  20.2440679
  49.5057664 124.4455621  17.6155321  48.6442143 124.7436874  17.9072059
  49.5320099 124.6626020  16.6836354  46.3219234 132.9897811  14.0229127
  46.7857579 133.2685514  13.2333749  46.0576032 132.0881256  13.8402217
  43.7068481 127.7032720  25.2069901  43.0767142 128.3849001  25.4405298
  43.6004569 127.5915802  24.2623040  53.0177263 134.7109755  18.8841106
  53.8394707 134.3089943  18.6023788  53.0139666 134.6077990  19.8357222
  37.2851157 127.6235007  18.5650816  37.5359195 128.5082017  18.8308392
  37.8210705 127.4439608  17.7925908  42.9849224 122.0053486  27.5695152
  42.5916170 121.4519685  28.2442797  43.8015364 122.3164065  27.9601670
  45.9017185 123.4211365  25.1615409  46.6426898 124.0218518  25.0819871
  46.1335108 122.6789003  24.6033451  41.0458523 128.6067732  23.4393639
  40.9312038 127.7052990  23.7400737  40.1903041 128.8531429  23.0878455
  49.8474348 119.4492468  19.4379691  49.5038617 120.3394110  19.3618801
  50.2153311 119.2594126  18.5749276  47.3971742 124.2850780  13.0037364
  46.5413338 123.8957630  12.8243003  47.8098693 124.3642741  12.1437150
  48.9270888 121.8197123  17.4028924  48.4235684 121.7827258  16.5896729
  49.2201495 122.7289866  17.4625580  45.1713774 121.9035853  16.4095106
  46.0366771 121.7078662  16.0500995  45.2391283 121.6746205  17.3364462
  53.0250212 131.6667415  16.5371907  52.3673886 132.3566677  16.6252036
  53.8290611 132.0563847  16.8805893  42.7776093 124.1338061  13.7811472
  43.3519845 123.9113242  13.0484665  43.3647076 124.2026755  14.5340074
  51.8355670 130.0211788  14.5875849  52.3487552 130.6541780  15.0897559
  52.4856894 129.4212983  14.2219209  45.0798761 121.0079310  12.5086542
  44.4263173 120.6928327  11.8843157  45.0379235 120.3855050  13.2346365
  48.3136501 127.4961243  16.8334189  47.3959063 127.7176190  16.6755877
  48.7296645 127.5707554  15.9745897  51.5450386 125.9309775  13.9455659
  50.8073143 125.4187162  14.2765902  51.7977160 125.4910157  13.1338936
  51.6462014 118.7086027  14.5397428  51.9520890 117.8483391  14.2523343
  52.3714618 119.3003648  14.3396422  45.9183093 129.0039820  15.0473619
  45.9731703 128.0513657  14.9716096  45.1074295 129.1599259  15.5314918
  43.8575453 127.6216880  12.8063998  43.0443319 127.9211051  13.2129190
  44.3534447 127.2272569  13.5238480  49.4549665 128.0858705  21.6378892
  49.8099053 128.3130178  22.4973358  50.1021796 128.4177081  21.0156147
  43.3489528 125.1935236  18.4225233  43.9888907 125.0523995  17.7248196
  42.5167059 124.9069749  18.0463835  41.8243070 126.5773318  20.3697044
  42.4966123 126.3690680  19.7209693  40.9972856 126.3795404  19.9302277
  56.0732331 133.3177368  19.8872378  56.2668221 134.2223179  20.1331653
  55.9732949 132.8584787  20.7210963  47.7268642 123.2035259  22.3862705
  47.0796557 123.9025208  22.2927182  48.4969657 123.6371403  22.7538954
  51.1347440 133.4684111  25.4613259  50.9832946 133.2394663  24.5443342
  51.1252119 134.4254712  25.4744604  47.9032776 131.0416024  20.4459525
  48.8324836 131.1927183  20.2728492  47.4823806 131.1300044  19.5908172
  42.2270567 129.8515921  21.1299482  42.0890365 129.1196160  21.7311021
  43.1375490 129.7624821  20.8483669  44.8552868 129.5635880  20.6183161
  45.5652486 128.9229072  20.5769780  44.8122176 129.8148775  21.5409342
  43.5681802 126.5501098  22.4378801  43.0319159 126.0991836  23.0900397
  42.9798510 126.6847007  21.6949265  52.8457054 134.4642817  21.7703720
  51.9583832 134.1268739  21.8930119  53.4155605 133.7325849  22.0072486
  39.3020923 125.6857106  19.5231795  39.2179112 125.0782775  18.7882205
  38.4803629 126.1766124  19.5241292  49.4744637 124.1710669  14.8901990
  49.9713336 123.4180632  14.5703061  48.7031618 124.2074986  14.3245200
  57.3274394 129.8751035  16.5320282  57.3164270 130.7575750  16.1614215
  56.4591774 129.5222586  16.3374819  46.0579605 126.3128052  14.6173675
  45.6877393 125.7599093  15.3054580  46.5538698 125.7086186  14.0648675
  51.9163632 121.1380263  17.0381349  51.0026711 121.3684490  17.2063556
  52.3456733 121.2218707  17.8895382  51.6870090 129.3270155  19.5381243
  51.0341540 129.5746062  18.8833696  52.0650470 128.5134293  19.2043720
  47.7357663 130.0689966  26.0247280  47.0598300 129.9684095  26.6949655
  48.5585297 129.9129179  26.4883277  41.4544939 123.7232043  20.8626781
  41.5186266 124.5846874  20.4504179  41.3912059 123.1106045  20.1299139
  40.9297212 125.7955176  24.5099815  41.5569251 125.4132253  25.1237340
  40.0725131 125.5769377  24.8755508  41.2357001 125.6787601  16.4245719
  40.5143587 126.2923569  16.2853192  42.0250257 126.2145366  16.3462365
  44.0383315 123.0142028  22.6986370  44.5617717 123.2604324  23.4612680
  43.8195648 123.8462063  22.2789508  45.2435860 123.9555723  20.3836041
  44.9032680 123.1563536  20.7856721  44.5374866 124.2557434  19.8112874
  45.8952332 121.0405035  18.8363364  46.7178401 120.5665513  18.7142254
  46.1390395 121.8195519  19.3362050  48.6791689 124.7738443  10.0684598
  48.8955304 125.6563081   9.7673426  48.1985756 124.3824656   9.3390240
  43.4190911 127.7324156  16.6455343  43.2735491 128.0464459  17.5379624
  42.9416114 128.3509056  16.0926241  45.2787293 124.7226704  16.6936232
  45.2648862 123.8267797  16.3568530  45.9959722 124.7297368  17.3274518
  47.1313424 125.1564044  18.7389360  46.8731202 126.0781115  18.7373690
  46.5998465 124.7594479  19.4289824  44.6824189 123.6041084  11.9623802
  44.8040101 122.6757730  12.1614690  44.3926232 123.6179770  11.0502118
  47.5515380 121.2895995  15.0990522  47.5737077 121.3535328  14.1442502
  47.9683439 120.4500503  15.2931028  38.6802595 129.3999397  22.4773161
  37.9384331 129.5482032  23.0637791  38.3595339 129.6607662  21.6139910
  44.1665269 125.1173082  26.1713735  44.2153424 125.9935204  25.7891504
  44.7087783 124.5750475  25.5985378  54.6520115 135.6614205  25.4514872
  53.8615658 135.6438344  24.9119371  54.4153469 136.2002498  26.2063909
  54.7717990 132.5106671  22.7647600  54.8215995 132.3456679  23.7063123
  54.6631913 131.6433930  22.3745481  52.0621752 128.4937599  24.0806907
  52.9631615 128.3544064  23.7890905  52.1369727 128.6592054  25.0205085
  46.3964557 125.8704454  22.9260094  45.5267867 126.1638020  22.6542682
  46.6324038 126.4544899  23.6467357  56.2736187 134.9303613  23.0089622
  55.9820995 135.2933593  23.8453083  55.6608318 134.2170621  22.8302954
  54.5223375 130.0536227  21.4769680  54.9977496 130.2463874  20.6688531
  53.5988940 130.1095413  21.2313064  49.1003591 122.0884071  20.4425514
  49.6185535 122.8245098  20.1172002  48.7458724 122.3948064  21.2772273
  49.3516185 118.5084353  15.9626411  49.6317939 117.8407542  16.5886837
  50.1366792 118.7013449  15.4501074  53.2225044 126.9301987  19.7097986
  54.1742467 127.0300085  19.7310210  53.0528494 126.1380256  20.2196070
  51.2439423 124.0157571  19.8957387  50.6489355 124.2962583  19.2003875
  50.9589120 124.5051472  20.6674128  55.7013122 130.1508107  18.8240285
  55.6689442 129.2124108  19.0099969  56.3113745 130.2292144  18.0906110
  55.8507610 126.9419150  18.8698568  55.3346659 126.1577607  18.6828497
  56.7347559 126.6137867  19.0345088  53.5118337 120.6860166  14.8294381
  53.3143158 120.3775254  15.7137713  54.1218043 121.4121805  14.9592311
  61.5189671 131.2124114  17.9646322  62.2493060 130.9509402  18.5254025
  60.9096617 130.4752836  18.0048390  59.6004969 129.3531976  18.5620773
  58.8738132 129.2187941  17.9537265  59.1852255 129.6608805  19.3677491
  47.4235145 133.0721906  26.3268146  48.3438154 133.2500505  26.5208193
  47.3884728 132.1277952  26.1747846  47.3401435 121.4891026  10.9566616
  46.5302164 121.1438111  11.3321862  48.0285852 121.1798570  11.5454227
  49.2691984 120.5669073  12.5790912  49.8223022 120.9864526  13.2380936
  49.5062070 119.6404821  12.6213868  45.2925083 126.5556147  28.3593676
  45.1921810 127.5050504  28.2905767  45.0746625 126.2274385  27.4869746
  52.6470791 122.6769598  12.0869577  52.0669460 123.3354402  11.7047629
  52.3806723 121.8546943  11.6756994  51.0974357 122.0774656  14.2890897
  51.5974135 122.1891190  13.4805216  51.7409965 121.7735709  14.9291705
  45.1556353 129.9853285  27.1758738  44.6723435 130.7853646  27.3822627
  45.2417292 129.9961230  26.2226182  51.4295669 124.8369688  11.1425925
  50.5421524 125.1219339  10.9246120  51.8449658 124.6763452  10.2953202
  54.7810205 124.8616209  14.8580264  55.5570595 125.3512662  15.1304881
  54.0558339 125.2874264  15.3152134  57.2182763 125.5743829  15.9154205
  57.8127254 125.3339565  15.2047513  57.2909347 124.8550959  16.5427741
  36.9263987 126.7797070  22.4790167  37.5722850 126.2696024  22.9677392
  36.7181138 127.5165752  23.0533592  49.4517379 133.8477918  27.9782307
  50.3208539 134.0218570  27.6168942  48.9724130 134.6672334  27.8558036
  45.4467597 121.0437115   8.2314063  45.4346267 121.9878955   8.3882334
  46.3391019 120.8607260   7.9373524  49.2619717 117.6379891  12.4860000
  48.4952112 117.0838378  12.6316682  49.6730422 117.7101760  13.3474151
  41.2661478 123.9264687  26.5765181  42.1292939 123.5701492  26.7868505
  40.6926888 123.5878582  27.2640585  15.6069099  67.5671842  11.7626446
  15.1632953  66.7808221  11.4447350  16.2686312  67.7550993  11.0970337
  17.7050337  67.8474642   9.7907847  17.6868812  68.6683523   9.2988116
  18.6270257  67.7228717  10.0157988  14.1623391  65.3618772  10.6331355
  14.6951728  64.6007060  10.4030663  13.6337472  65.0692424  11.3755510
  23.5551069  64.3363738   6.6117685  23.7486959  65.2409548   6.8576960
  23.4551687  63.8771157   7.4456270  18.6166177  64.4870480  12.1858565
  18.4651684  64.2581032  11.2688649  18.6070857  65.4441082  12.1989910
  20.3258384  67.5189603  10.2635047  20.2670930  66.8348823   9.5965630
  20.7277903  68.2608593   9.8115673  20.3275791  65.4829187   8.4949027
  19.4402570  65.1455109   8.6175426  20.8974342  64.7512218   8.7317792
  16.3175628  70.0417473   7.6168429  17.0303601  70.6764938   7.5444330
  15.8265657  70.1381339   6.8008430  15.2176401  61.0876335  12.7492587
  14.5417038  60.9870465  13.4194962  16.0404035  60.9315549  13.2128584
  13.9599184  72.3943263   6.9850203  14.5117492  72.5574884   7.7499288
  14.3005377  72.9847701   6.3130228  18.8110058  67.2204520  12.8398857
  19.3549962  67.8334479  12.3453812  18.2296903  67.7784099  13.3565870
  14.1064995  69.9601744   8.9998857  14.4152121  69.7150891   9.8721557
  14.9040477  70.1648383   8.5117727  22.1338852  66.6800574  12.1760179
  21.3434396  66.6624713  11.6364678  21.8972207  67.2188868  12.9309215
  22.2536727  63.5293041   9.4892907  22.3034732  63.3643048  10.4308430
  22.1450651  62.6620300   9.0990788  19.5440490  59.5123969  10.8052214
  20.4450353  59.3730434  10.5136212  19.6188464  59.6778424  11.7450391
  23.7554924  65.9489982   9.7334929  23.4639733  66.3119963  10.5698390
  23.1427056  65.2356991   9.5548261  14.9053883  64.0908276  13.0513453
  15.8256892  64.2686875  13.2453499  14.8703466  63.1464321  12.8993152
  12.6375091  61.0039655  13.9004045  12.1542172  61.8040015  14.1067934
  12.7236030  61.0147600  12.9471489  16.9336117  64.8664287  14.7027614
  17.8027276  65.0404939  14.3414249  16.4542868  65.6858704  14.5803343
  28.5928592  76.5752913   4.1072888  29.2307002  76.4559660   3.4036228
  28.4749435  77.5233757   4.1660841  25.4018299  76.5280341   4.0434413
  25.0636810  76.4121406   3.1554948  26.2708067  76.1271506   4.0235419
  25.8838082  77.6815193  10.0020619  25.8726722  77.2867991   9.1301122
  26.0458721  76.9481265  10.5954390  22.6045343  80.4652305   8.9499803
  22.3135209  81.3697936   8.8346469  23.2402327  80.5068832   9.6643872
  23.5301550  77.8429153   5.5401162  24.1265122  77.6185176   4.8258125
  23.5876521  77.1013899   6.1426610  28.1469861  74.3004367   1.1826096
  28.9332950  73.8823790   0.8316513  28.4108565  75.2050459   1.3507745
  33.5478288  74.2379600   2.0859075  34.2803460  73.6678817   2.3196904
  32.7917644  73.8501201   2.5265581  25.1654408  76.6606842  -0.7177583
  24.8012615  76.1337463  -0.0064661  26.0221524  76.2705311  -0.8911097
  31.0703708  67.9501174   6.5453684  30.7387033  68.8196585   6.3214899
  30.4749322  67.6337458   7.2247714  27.5635228  80.1513720   5.9449596
  27.2635951  81.0538759   5.8365404  27.2186287  79.8845903   6.7970749
  21.0147709  76.6027517   1.9786301  20.0898206  76.4703731   2.1863992
  21.2632123  77.3821736   2.4756243  30.9632372  72.6696260   3.6247034
  30.0549249  72.6011669   3.3305795  30.9119967  73.1468205   4.4528859
  25.0373237  74.0885906  11.5681931  24.2606572  74.6479826  11.5584796
  25.6763801  74.5742689  12.0896801  32.8294018  70.8712699   5.4024908
  32.1868398  71.1645232   4.7564702  32.3248947  70.7565619   6.2078104
  23.2919610  76.8971359  11.1299898  24.0334294  77.4356403  10.8534722
  22.5856595  77.5237648  11.2871450  28.7674949  79.0400500   9.7272059
  29.1758305  78.5982910   8.9826692  28.0452211  78.4653127   9.9806252
  25.1206019  73.9773107   7.1005616  25.9667215  74.4012520   7.2440265
  25.0604657  73.3206731   7.7944179  29.0903764  79.6001690   3.4824348
  28.4612627  79.7647405   2.7800416  28.7029426  80.0143300   4.2535312
  32.9692996  80.5356128   0.8368712  32.2844034  80.9155030   0.2865745
  33.0536845  81.1451455   1.5700660  28.2705465  71.6377475   8.7586790
  28.0266397  72.3919535   8.2221066  28.5465395  72.0162823   9.5934037
  30.2243928  78.1816087   7.4364056  30.4360823  78.8247847   6.7598437
  30.1773676  77.3478404   6.9685986  27.8270157  70.7933908   4.3400628
  26.9654636  71.0915161   4.6317365  27.8532591  71.0104307   3.4081660
  24.6431726  79.3376098   0.7474433  25.1070071  79.6163801  -0.0420944
  24.3788524  78.4359543   0.5647524  21.5355807  78.8847580   3.6854197
  22.1057164  79.3134848   3.0471681  22.1263919  78.6030165   4.3838382
  22.0280974  74.0511007  11.9315208  21.3979634  74.7327288  12.1650605
  21.9217061  73.9394089  10.9868346  31.3389756  81.0588043   5.6086413
  32.1607199  80.6568230   5.3269095  31.3352158  80.9556277   6.5602529
  25.1046359  80.6072086   7.7647123  25.1690791  81.0692493   8.6005295
  24.3957283  79.9769451   7.8929433  15.6063649  73.9713294   5.2896123
  15.8571687  74.8560304   5.5553699  16.1423197  73.7917896   4.5171215
  39.4295749  77.4026791   1.9571384  38.6759457  76.8334189   1.8015389
  39.5643290  77.3689456   2.9042019  21.3061716  68.3531773  14.2940459
  20.9128662  67.7997972  14.9688103  22.1227857  68.6642352  14.6846976
  24.2229677  69.7689652  11.8860715  24.9639391  70.3696806  11.8065178
  24.4547600  69.0267290  11.3278758  19.3671015  74.9546020  10.1638945
  19.2524530  74.0531277  10.4646044  18.5115533  75.2009716   9.8123762
  26.4462853  82.8963760  11.7626446  26.0026707  82.1100139  11.4447350
  27.1080067  83.0842911  11.0970337  21.2049974  84.4259562   6.2887124
  21.7557399  84.2976625   5.5164118  20.3661450  84.7254451   5.9382017
  28.5444091  83.1766560   9.7907847  28.5262566  83.9975441   9.2988116
  29.4664011  83.0520635  10.0157988  25.0017145  80.6910689  10.6331355
  25.5345482  79.9298978  10.4030663  24.4731226  80.3984341  11.3755510
  28.1686840  65.7970755   6.1624997  27.8251110  66.6872397   6.0864108
  28.5365803  65.6072413   5.2994582  27.2483381  68.1675411   4.1274230
  26.7448176  68.1305546   3.3142036  27.5413987  69.0768153   4.1870887
  33.1071397  78.5411721  -3.3949394  32.3300840  78.2022881  -3.8394232
  33.7862878  78.5464344  -4.0694429  31.3462704  78.0145702   3.2617214
  30.6886378  78.7044964   3.3497342  32.1503103  78.4042134   3.6051200
  30.1568163  76.3690075   1.3121156  30.6700044  77.0020067   1.8142865
  30.8069387  75.7691271   0.9464516  26.6348994  73.8439531   3.5579496
  25.7171555  74.0654478   3.4001184  27.0509137  73.9185841   2.6991203
  27.4184041  75.2430946  -1.3117824  28.1655860  75.7552344  -1.6210702
  27.6875631  74.9214999  -0.4513430  30.9229959  81.3496077  -0.5599702
  30.4692286  80.5086986  -0.5034511  30.2923926  81.9857475  -0.2224922
  29.8662879  72.2788063   0.6700966  29.1285635  71.7665449   1.0011208
  30.1189652  71.8388444  -0.1415758  29.3662898  83.1872573   0.3750116
  29.6585873  83.7477630  -0.3437518  29.8761519  83.4801134   1.1303275
  24.2395586  75.3518108   1.7718926  24.2944195  74.3991944   1.6961403
  23.4286788  75.5077547   2.2560224  27.7762157  74.4336992   8.3624199
  28.1311545  74.6608465   9.2218664  28.4234288  74.7655369   7.7401454
  33.5059894  77.5555428  -0.9326472  33.3677793  77.7457024  -1.8605283
  33.1496113  78.3174811  -0.4758421  21.6702020  71.5413523   5.1470540
  22.3101400  71.4002282   4.4493503  20.8379551  71.2548036   4.7709142
  33.5329274  79.6231955   4.0784799  33.9665780  79.5307244   4.9267853
  34.2460854  79.5989455   3.4404815  27.2657169  83.2234049   5.6117900
  27.3194191  83.7924985   6.3795616  26.3971950  83.3935934   5.2471937
  20.1455562  72.9251605   7.0942351  20.8178615  72.7168967   6.4455000
  19.3185349  72.7273691   6.6547583  34.3944823  79.6655655   6.6117685
  34.5880713  80.5701466   6.8576960  34.2945441  79.2063074   7.4456270
  26.0481134  69.5513546   9.1108012  25.4009049  70.2503496   9.0172488
  26.8182149  69.9849690   9.4784260  29.4559932  79.8162398  12.1858565
  29.3045438  79.5872950  11.2688649  29.4464611  80.7733000  12.1989910
  26.2245268  77.3894311   7.1704832  27.1537328  77.5405470   6.9973799
  25.8036298  77.4778332   6.3153478  25.0233600  81.4144975   4.9403369
  24.8844686  81.0463760   5.8129307  24.2348196  81.9292615   4.7687327
  26.5738815  80.7926578   2.3292207  26.2388648  80.7527348   3.2249857
  26.0742761  80.1271294   1.8562617  20.5483059  76.1994208   7.8544788
  20.4102857  75.4674447   8.4556327  21.4587983  76.1103108   7.5728976
  23.1765360  75.9114167   7.3428468  23.8864978  75.2707360   7.3015086
  23.1334668  76.1627062   8.2654649  31.1652139  82.8481521  10.2635047
  31.1064685  82.1640741   9.5965630  31.5671657  83.5900511   9.8115673
  21.8894294  72.8979385   9.1624107  21.3531651  72.4470124   9.8145704
  21.3011002  73.0325294   8.4194572  31.1669546  80.8121105   8.4949027
  30.2796325  80.4747026   8.6175426  31.7368097  80.0804136   8.7317792
  17.6233415  72.0335393   6.2477102  17.5391604  71.4261062   5.5127512
  16.8016122  72.5244411   6.2486598  24.6970699  85.4722557   5.4610270
  24.6240871  86.2777528   5.9729575  24.2548092  85.6714523   4.6358291
  35.6486886  76.2229322   3.2565588  35.6376763  77.1054037   2.8859522
  34.7804266  75.8700873   3.0620125  27.1569383  85.3709391   7.6168429
  27.8697355  86.0056856   7.5444330  26.6659411  85.4673257   6.8008430
  28.8786910  79.2760644  -0.8114280  27.9443188  79.3962106  -0.9809575
  29.0563578  78.3733110  -1.0754270  32.2659461  75.1177963  -0.2764246
  32.7319913  75.9505955  -0.3503943  32.7166962  74.6522945   0.4281013
  22.2081296  83.1203834   8.4373999  22.9090756  83.7540317   8.5903394
  21.7376411  83.4618566   7.6769639  30.3335692  81.4621784  -3.2778094
  30.6095536  81.3478379  -2.3684219  29.4640191  81.0639269  -3.3165920
  30.2376124  67.4858550   3.7626656  29.3239204  67.7162777   3.9308863
  30.6669225  67.5696994   4.6140688  30.0082582  75.6748442   6.2626550
  29.3554033  75.9224349   5.6079003  30.3862962  74.8612580   5.9289027
  26.0570155  76.4168253  12.7492587  25.3810792  76.3162382  13.4194962
  26.8797789  76.2607467  13.2128584  24.7992938  87.7235180   6.9850203
  25.3511246  87.8866802   7.7499288  25.1399132  88.3139618   6.3130228
  19.7757431  70.0710330   7.5872088  19.8398758  70.9325161   7.1749485
  19.7124552  69.4584332   6.8544446  19.2509704  72.1433463  11.2345122
  19.8781743  71.7610540  11.8482646  18.3937623  71.9247665  11.6000814
  29.6503813  82.5496438  12.8398857  30.1943717  83.1626396  12.3453812
  29.0690657  83.1076016  13.3565870  27.9361325  85.6717156   3.9713885
  27.8112465  84.8706896   3.4624831  28.5940417  86.1663349   3.4827855
  29.9996234  83.4726176   5.5993435  29.0526569  83.3531527   5.5271762
  30.3479007  82.5848674   5.6819697  22.3595807  69.3620315   9.4231677
  22.8830209  69.6082611  10.1857986  22.1408141  70.1940350   9.0034814
  27.0042667  83.2678892   1.7997787  26.8567630  82.3395600   1.9805357
  27.8296161  83.2898983   1.3154863  30.6076789  84.0907451   2.8862660
  31.5323336  83.8850312   2.7487111  30.4392092  83.8423852   3.7952002
  23.5648352  70.3034010   7.1081348  23.2245173  69.5041823   7.5102027
  22.8587359  70.6035721   6.5358181  24.2164824  67.3883322   5.5608671
  25.0390893  66.9143801   5.4387561  24.4602888  68.1673806   6.0607357
  21.7403403  74.0802443   3.3700649  21.5947984  74.3942746   4.2624931
  21.2628606  74.6987343   2.8171548  23.5999786  71.0704991   3.4181539
  23.5861355  70.1746084   3.0813837  24.3172214  71.0775655   4.0519825
  25.4525916  71.5042331   5.4634666  25.1943694  72.4259402   5.4618997
  24.9210957  71.1072766   6.1535130  30.3972105  84.6093118  -1.7575248
  30.5708983  84.0439541  -2.5101396  30.8900996  85.4094013  -1.9395758
  16.2149065  76.6207788   6.3088310  15.6702533  77.3967595   6.4408585
  17.0928415  76.9678592   6.1507432  36.2511496  77.3729541  -0.1384949
  36.6942642  76.6236867  -0.5365825  35.3738007  77.3639678  -0.5211217
  17.0015087  75.7477684   9.2018467  16.2596823  75.8960319   9.7883098
  16.6807831  76.0085949   8.3385217  33.2838701  81.3759588  -3.1291019
  33.8090025  81.7146861  -3.8541699  33.1961053  80.4406604  -3.3127885
  24.9458750  85.2893662   8.9998857  25.2545876  85.0442809   9.8721557
  25.7434232  85.4940300   8.5117727  22.4877761  71.4651369  12.8959042
  22.5365917  72.3413492  12.5136811  23.0300275  70.9228762  12.3230685
  32.9732607  82.0092492  12.1760179  32.1828151  81.9916631  11.6364678
  32.7365961  82.5480786  12.9309215  33.0930482  78.8584958   9.4892907
  33.1428487  78.6934966  10.4308430  32.9844405  77.9912217   9.0990788
  30.3834244  74.8415886  10.8052214  31.2844107  74.7022351  10.5136212
  30.4582219  75.0070341  11.7450391  24.7177050  72.2182741   9.6505400
  23.8480359  72.5116307   9.3787989  24.9536530  72.8023186  10.3712664
  34.5948679  81.2781900   9.7334929  34.3033487  81.6411880  10.5698390
  33.9820810  80.5648908   9.5548261  35.7944361  78.8434780   2.2537499
  36.6291252  79.2824584   2.4175059  35.9303490  78.3673433   1.4345745
  32.8435867  76.4014515   8.2014987  33.3189989  76.5942161   7.3933838
  31.9201432  76.4573700   7.9558370  27.4216084  68.4362358   7.1670821
  27.9398027  69.1723385   6.8417309  27.0671216  68.7426351   8.0017580
  31.5437536  73.2780275   6.4343292  32.4954959  73.3778372   6.4555516
  31.3740986  72.4858543   6.9441377  29.5651915  70.3635858   6.6202693
  28.9701848  70.6440871   5.9249182  29.2801612  70.8529759   7.3919434
  34.0225614  76.4986394   5.5485592  33.9901934  75.5602395   5.7345276
  34.6326237  76.5770431   4.8151417  34.1720102  73.2897438   5.5943875
  33.6559151  72.5055894   5.4073804  35.0560051  72.9616154   5.7590395
  31.8330829  67.0338453   1.5539688  31.6355650  66.7253541   2.4383020
  32.4430535  67.7600092   1.6837618  39.8402164  77.5602401   4.6891629
  40.5705552  77.2987689   5.2499332  39.2309109  76.8231123   4.7293697
  37.9217461  75.7010264   5.2866080  37.1950624  75.5666229   4.6782571
  37.5064748  76.0087092   6.0922798  25.7447637  79.4200193  13.0513453
  26.6650647  79.5978792  13.2453499  25.7097220  78.4756239  12.8993152
  18.7409710  77.3301228   5.6936234  18.9595720  78.2618336   5.7124268
  19.1535484  76.9709202   6.4791038  23.6137575  72.9034434  15.0838983
  23.5134302  73.8528791  15.0151074  23.3959117  72.5752673  14.2115053
  23.4768845  76.3331573  13.9004045  22.9935927  77.1331933  14.1067934
  23.5629784  76.3439518  12.9471489  19.4042183  80.2236107   5.9372478
  20.3585436  80.1920050   5.8702410  19.2054706  79.7626731   6.7522704
  19.9941565  78.7937223   8.5043276  20.8134454  79.2881302   8.5278113
  20.2678372  77.8769192   8.4760844  33.1022697  71.2094497   1.5825571
  33.8783087  71.6990949   1.8550188  32.3770831  71.6352551   2.0397440
  35.5395256  71.9222116   2.6399512  36.1339747  71.6817852   1.9292820
  35.6121839  71.2029246   3.2673048  29.7249185  76.7002512  -1.9178478
  29.6684386  77.1571063  -2.7570846  30.2777527  75.9393196  -2.0955635
  33.5353991  72.4892244  -1.0928359  33.2790925  72.0888879  -0.2620151
  32.9106859  73.2036037  -1.2178220  37.8466328  75.2288317   1.4142933
  37.2865886  75.2981506   2.1874495  37.2409832  75.0529301   0.6942429
  15.2476479  73.1275357   9.2035473  15.8935343  72.6174311   9.6922698
  15.0393630  73.8644039   9.7778898  27.7729871  80.1956205  14.7027614
  28.6421031  80.3696857  14.3414249  27.2936623  81.0150622  14.5803343
  21.9416051  87.3153306   6.3817047  22.8443298  87.3476916   6.6983542
  21.7153421  86.3853757   6.3963383  19.5873970  70.2742974  13.3010487
  20.4505432  69.9179779  13.5113812  19.0139381  69.9356869  13.9885892
  39.4322347  91.9044831   4.1072888  40.0700757  91.7851578   3.4036228
  39.3143190  92.8525675   4.1660841  36.2412053  91.8572259   4.0434413
  35.9030565  91.7413324   3.1554948  37.1101821  91.4563424   4.0235419
  36.7231836  93.0107111  10.0020619  36.7120477  92.6159909   9.1301122
  36.8852476  92.2773183  10.5954390  33.4439097  95.7944222   8.9499803
  33.1528963  96.6989853   8.8346469  34.0796082  95.8360750   9.6643872
  34.3695304  93.1721071   5.5401162  34.9658876  92.9477093   4.8258125
  34.4270276  92.4305816   6.1426610  38.9863615  89.6296285   1.1826096
  39.7726705  89.2115708   0.8316513  39.2502320  90.5342377   1.3507745
  44.3872043  89.5671518   2.0859075  45.1197214  88.9970735   2.3196904
  43.6311398  89.1793118   2.5265581  36.0048162  91.9898759  -0.7177583
  35.6406369  91.4629380  -0.0064661  36.8615278  91.5997228  -0.8911097
  41.9097463  83.2793092   6.5453684  41.5780788  84.1488503   6.3214899
  41.3143076  82.9629376   7.2247714  38.4028982  95.4805638   5.9449596
  38.1029705  96.3830677   5.8365404  38.0580042  95.2137821   6.7970749
  31.8541464  91.9319435   1.9786301  30.9291960  91.7995649   2.1863992
  32.1025877  92.7113654   2.4756243  41.8026126  87.9988178   3.6247034
  40.8943004  87.9303586   3.3305795  41.7513722  88.4760123   4.4528859
  35.8766992  89.4177824  11.5681931  35.1000326  89.9771744  11.5584796
  36.5157555  89.9034607  12.0896801  43.6687773  86.2004616   5.4024908
  43.0262153  86.4937150   4.7564702  43.1642701  86.0857537   6.2078104
  41.3227936  89.9467790  -3.9089233  42.2345792  90.1795176  -4.0841536
  40.8137583  90.5304834  -4.4714155  34.1313364  92.2263277  11.1299898
  34.8728049  92.7648321  10.8534722  33.4250350  92.8529566  11.2871450
  39.6068704  94.3692417   9.7272059  40.0152060  93.9274828   8.9826692
  38.8845965  93.7945045   9.9806252  35.9599774  89.3065024   7.1005616
  36.8060969  89.7304438   7.2440265  35.8998412  88.6498649   7.7944179
  39.9297519  94.9293608   3.4824348  39.3006381  95.0939322   2.7800416
  39.5423181  95.3435218   4.2535312  43.8086750  95.8648046   0.8368712
  43.1237789  96.2446947   0.2865745  43.8930600  96.4743373   1.5700660
  39.1099219  86.9669393   8.7586790  38.8660151  87.7211453   8.2221066
  39.3859150  87.3454740   9.5934037  41.0637682  93.5108005   7.4364056
  41.2754577  94.1539765   6.7598437  41.0167430  92.6770322   6.9685986
  38.6663911  86.1225826   4.3400628  37.8048390  86.4207079   4.6317365
  38.6926346  86.3396225   3.4081660  35.4825480  94.6668016   0.7474433
  35.9463826  94.9455719  -0.0420944  35.2182279  93.7651461   0.5647524
  32.3749562  94.2139498   3.6854197  32.9450919  94.6426766   3.0471681
  32.9657673  93.9322082   4.3838382  32.8674728  89.3802925  11.9315208
  32.2373389  90.0619206  12.1650605  32.7610816  89.2686007  10.9868346
  42.1783510  96.3879960   5.6086413  43.0000954  95.9860148   5.3269095
  42.1745913  96.2848195   6.5602529  35.9440113  95.9364004   7.7647123
  36.0084546  96.3984411   8.6005295  35.2351037  95.3061369   7.8929433
  26.4457403  89.3005212   5.2896123  26.6965442  90.1852222   5.5553699
  26.9816952  89.1209813   4.5171215  50.2689503  92.7318709   1.9571384
  49.5153211  92.1626107   1.8015389  50.4037044  92.6981373   2.9042019
  32.1455471  83.6823691  14.2940459  31.7522416  83.1289890  14.9688103
  32.9621611  83.9934269  14.6846976  35.0623432  85.0981570  11.8860715
  35.8033145  85.6988723  11.8065178  35.2941355  84.3559208  11.3278758
  30.2064770  90.2837937  10.1638945  30.0918285  89.3823195  10.4646044
  29.3509287  90.5301634   9.8123762  37.2856607  98.2255678  11.7626446
  36.8420462  97.4392056  11.4447350  37.9473821  98.4134828  11.0970337
  32.0443729  99.7551479   6.2887124  32.5951154  99.6268543   5.5164118
  31.2055205 100.0546368   5.9382017  39.3837846  98.5058478   9.7907847
  39.3656321  99.3267359   9.2988116  40.3057766  98.3812553  10.0157988
  35.8410900  96.0202607  10.6331355  36.3739237  95.2590895  10.4030663
  35.3124981  95.7276259  11.3755510  39.0080595  81.1262673   6.1624997
  38.6644864  82.0164315   6.0864108  39.3759557  80.9364331   5.2994582
  36.5577988  85.9620985  -0.2717329  35.7019585  85.5727835  -0.4511691
  36.9704940  86.0412946  -1.1317544  38.0877135  83.4967328   4.1274230
  37.5841931  83.4597463   3.3142036  38.3807742  84.4060071   4.1870887
  34.3320021  83.5806058   3.1340412  35.1973018  83.3848867   2.7746302
  34.3997530  83.3516410   4.0609769  43.9465152  93.8703639  -3.3949394
  43.1694594  93.5314798  -3.8394232  44.6256633  93.8756262  -4.0694429
  38.7617181  88.9898376  -3.5042787  38.4567316  89.3044525  -2.6532643
  39.7147623  89.0679796  -3.4615454  42.1856458  93.3437620   3.2617214
  41.5280133  94.0336881   3.3497342  42.9896858  93.7334052   3.6051200
  31.9382340  85.8108266   0.5056779  32.5126092  85.5883447  -0.2270028
  32.5253322  85.8796960   1.2585380  40.9961917  91.6981993   1.3121156
  41.5093799  92.3311985   1.8142865  41.6463141  91.0983188   0.9464516
  34.2405008  82.6849515  -0.7668152  33.5869420  82.3698532  -1.3911537
  34.1985482  82.0625255  -0.0408329  37.4742748  89.1731448   3.5579496
  36.5565309  89.3946395   3.4001184  37.8902892  89.2477759   2.6991203
  38.2577796  90.5722864  -1.3117824  39.0049615  91.0844261  -1.6210702
  38.5269385  90.2506917  -0.4513430  41.7623713  96.6787994  -0.5599702
  41.3086041  95.8378904  -0.5034511  41.1317680  97.3149393  -0.2224922
  40.7056633  87.6079980   0.6700966  39.9679390  87.0957366   1.0011208
  40.9583407  87.1680362  -0.1415758  40.2056653  98.5164491   0.3750116
  40.4979627  99.0769548  -0.3437518  40.7155273  98.8093052   1.1303275
  40.8068260  80.3856232   1.2642735  41.1127137  79.5253596   0.9768650
  41.5320865  80.9773852   1.0641729  35.0789340  90.6810025   1.7718926
  35.1337950  89.7283862   1.6961403  34.2680542  90.8369464   2.2560224
  33.0181700  89.2987085  -0.4690695  32.2049566  89.5981256  -0.0625503
  33.5140694  88.9042774   0.2483787  38.6155912  89.7628910   8.3624199
  38.9705299  89.9900383   9.2218664  39.2628043  90.0947286   7.7401454
  44.3453649  92.8847345  -0.9326472  44.2071547  93.0748941  -1.8605283
  43.9889867  93.6466728  -0.4758421  32.5095775  86.8705441   5.1470540
  33.1495154  86.7294200   4.4493503  31.6773305  86.5839954   4.7709142
  44.3723028  94.9523872   4.0784799  44.8059535  94.8599162   4.9267853
  45.0854609  94.9281373   3.4404815  38.1050923  98.5525967   5.6117900
  38.1587945  99.1216903   6.3795616  37.2365705  98.7227852   5.2471937
  30.9849317  88.2543523   7.0942351  31.6572370  88.0460885   6.4455000
  30.1579103  88.0565609   6.6547583  45.2338578  94.9947573   6.6117685
  45.4274468  95.8993384   6.8576960  45.1339196  94.5354992   7.4456270
  36.8874889  84.8805464   9.1108012  36.2402804  85.5795413   9.0172488
  37.6575904  85.3141608   9.4784260  40.2953686  95.1454316  12.1858565
  40.1439193  94.9164868  11.2688649  40.2858366  96.1024917  12.1989910
  37.0639023  92.7186229   7.1704832  37.9931083  92.8697388   6.9973799
  36.6430053  92.8070249   6.3153478  35.8627355  96.7436893   4.9403369
  35.7238440  96.3755677   5.8129307  35.0741951  97.2584532   4.7687327
  37.4132570  96.1218496   2.3292207  37.0782402  96.0819266   3.2249857
  36.9136515  95.4563212   1.8562617  31.3876814  91.5286126   7.8544788
  31.2496612  90.7966365   8.4556327  32.2981737  91.4395026   7.5728976
  34.0159114  91.2406085   7.3428468  34.7258733  90.5999277   7.3015086
  33.9728423  91.4918980   8.2654649  42.0045893  98.1773438  10.2635047
  41.9458439  97.4932658   9.5965630  42.4065411  98.9192428   9.8115673
  32.7288048  88.2271303   9.1624107  32.1925405  87.7762041   9.8145704
  32.1404757  88.3617212   8.4194572  42.0063300  96.1413022   8.4949027
  41.1190079  95.8038944   8.6175426  42.5761851  95.4096054   8.7317792
  28.4627170  87.3627311   6.2477102  28.3785358  86.7552980   5.5127512
  27.6409876  87.8536329   6.2486598  35.5364454 100.8014475   5.4610270
  35.4634625 101.6069446   5.9729575  35.0941847 101.0006440   4.6358291
  38.6350884  85.8480874   1.6147297  39.1319583  85.0950836   1.2948367
  37.8637865  85.8845191   1.0490506  46.4880641  91.5521240   3.2565588
  46.4770517  92.4345955   2.8859522  45.6198020  91.1992791   3.0620125
  37.9963137 100.7001309   7.6168429  38.7091110 101.3348774   7.5444330
  37.5053166 100.7965175   6.8008430  39.7180664  94.6052561  -0.8114280
  38.7836943  94.7254024  -0.9809575  39.8957333  93.7025028  -1.0754270
  35.2185852  87.9898257   1.3418982  34.8483640  87.4369298   2.0299887
  35.7144945  87.3856391   0.7893982  43.1053216  90.4469881  -0.2764246
  43.5713668  91.2797872  -0.3503943  43.5560716  89.9814862   0.4281013
  33.0475051  98.4495752   8.4373999  33.7484510  99.0832235   8.5903394
  32.5770166  98.7910484   7.6769639  41.1729447  96.7913702  -3.2778094
  41.4489291  96.6770297  -2.3684219  40.3033945  96.3931187  -3.3165920
  41.0769878  82.8150468   3.7626656  40.1632958  83.0454694   3.9308863
  41.5062980  82.8988912   4.6140688  40.8476337  91.0040360   6.2626550
  40.1947787  91.2516267   5.6079003  41.2256717  90.1904498   5.9289027
  36.8963910  91.7460171  12.7492587  36.2204547  91.6454300  13.4194962
  37.7191544  91.5899384  13.2128584  35.6386693 103.0527098   6.9850203
  36.1905001 103.2158720   7.7499288  35.9792886 103.6431536   6.3130228
  30.6151186  85.4002248   7.5872088  30.6792512  86.2617079   7.1749485
  30.5518306  84.7876250   6.8544446  30.0903458  87.4725380  11.2345122
  30.7175497  87.0902458  11.8482646  29.2331377  87.2539582  11.6000814
  40.4897567  97.8788356  12.8398857  41.0337471  98.4918314  12.3453812
  39.9084412  98.4367934  13.3565870  38.7755080 101.0009074   3.9713885
  38.6506219 100.1998813   3.4624831  39.4334171 101.4955267   3.4827855
  30.3963248  87.3557806   3.1491025  29.6749834  87.9693774   3.0098499
  31.1856504  87.8915571   3.0707671  40.8389988  98.8018094   5.5993435
  39.8920324  98.6823445   5.5271762  41.1872761  97.9140592   5.6819697
  33.1989562  84.6912233   9.4231677  33.7223964  84.9374529  10.1857986
  32.9801895  85.5232267   9.0034814  37.8436422  98.5970810   1.7997787
  37.6961384  97.6687517   1.9805357  38.6689915  98.6190901   1.3154863
  41.4470543  99.4199369   2.8862660  42.3717091  99.2142230   2.7487111
  41.2785847  99.1715770   3.7952002  34.4042107  85.6325928   7.1081348
  34.0638927  84.8333741   7.5102027  33.6981113  85.9327639   6.5358181
  35.0558579  82.7175240   5.5608671  35.8784648  82.2435718   5.4387561
  35.2996642  83.4965724   6.0607357  37.8397936  86.4508648  -3.2070095
  38.0561550  87.3333285  -3.5081267  37.3592003  86.0594861  -3.9364453
  32.5797157  89.4094361   3.3700649  32.4341738  89.7234664   4.2624931
  32.1022361  90.0279261   2.8171548  34.4393540  86.3996909   3.4181539
  34.4255109  85.5038002   3.0813837  35.1565968  86.4067573   4.0519825
  36.2919671  86.8334249   5.4634666  36.0337449  87.7551320   5.4618997
  35.7604711  86.4364684   6.1535130  41.2365860  99.9385036  -1.7575248
  41.4102737  99.3731459  -2.5101396  41.7294751 100.7385931  -1.9395758
  27.0542820  91.9499705   6.3088310  26.5096288  92.7259513   6.4408585
  27.9322169  92.2970510   6.1507432  33.8430436  85.2811289  -1.3130891
  33.9646347  84.3527935  -1.1140004  33.5532479  85.2949975  -2.2252576
  36.7121627  82.9666200   1.8235829  36.7343323  83.0305533   0.8687808
  37.1289686  82.1270708   2.0176335  47.0905251  92.7021459  -0.1384949
  47.5336397  91.9528784  -0.5365825  46.2131761  92.6931595  -0.5211217
  27.8408841  91.0769601   9.2018467  27.0990577  91.2252237   9.7883098
  27.5201586  91.3377867   8.3385217  44.1232455  96.7051506  -3.1291019
  44.6483779  97.0438779  -3.8541699  44.0354808  95.7698521  -3.3127885
  35.7852504 100.6185580   8.9998857  36.0939630 100.3734726   9.8721557
  36.5827986 100.8232218   8.5117727  33.3271516  86.7943286  12.8959042
  33.3759671  87.6705409  12.5136811  33.8694030  86.2520679  12.3230685
  43.8126361  97.3384410  12.1760179  43.0221905  97.3208549  11.6364678
  43.5759716  97.8772703  12.9309215  43.9324236  94.1876876   9.4892907
  43.9822241  94.0226884  10.4308430  43.8238160  93.3204135   9.0990788
  41.2227999  90.1707804  10.8052214  42.1237862  90.0314269  10.5136212
  41.2975973  90.3362259  11.7450391  35.5570804  87.5474659   9.6505400
  34.6874114  87.8408225   9.3787989  35.7930285  88.1315104  10.3712664
  45.4342433  96.6073818   9.7334929  45.1427242  96.9703798  10.5698390
  44.8214565  95.8940826   9.5548261  46.6338116  94.1726697   2.2537499
  47.4685007  94.6116501   2.4175059  46.7697244  93.6965351   1.4345745
  43.6829622  91.7306432   8.2014987  44.1583743  91.9234079   7.3933838
  42.7595187  91.7865618   7.9558370  38.2609838  83.7654276   7.1670821
  38.7791782  84.5015303   6.8417309  37.9064971  84.0718269   8.0017580
  38.5122432  80.1854558   2.6871717  38.7924186  79.5177747   3.3132144
  39.2973039  80.3783654   2.1746381  42.3831291  88.6072192   6.4343292
  43.3348713  88.7070290   6.4555516  42.2134741  87.8150461   6.9441377
  40.4045670  85.6927776   6.6202693  39.8095602  85.9732788   5.9249182
  40.1195367  86.1821676   7.3919434  44.8619368  91.8278312   5.5485592
  44.8295688  90.8894313   5.7345276  45.4719992  91.9062349   4.8151417
  45.0113857  88.6189355   5.5943875  44.4952905  87.8347812   5.4073804
  45.8953805  88.2908072   5.7590395  42.6724584  82.3630371   1.5539688
  42.4749405  82.0545459   2.4383020  43.2824289  83.0892010   1.6837618
  50.6795918  92.8894319   4.6891629  51.4099307  92.6279607   5.2499332
  50.0702864  92.1523041   4.7293697  48.7611215  91.0302181   5.2866080
  48.0344379  90.8958146   4.6782571  48.3458502  91.3379010   6.0922798
  36.5841392  94.7492111  13.0513453  37.5044401  94.9270710  13.2453499
  36.5490975  93.8048156  12.8993152  29.5803464  92.6593146   5.6936234
  29.7989474  93.5910254   5.7124268  29.9929238  92.3001120   6.4791038
  36.5007682  83.1661231  -2.3188078  35.6908410  82.8208316  -1.9432831
  37.1892099  82.8568775  -1.7300466  38.4298230  82.2439278  -0.6963781
  38.9829269  82.6634731  -0.0373758  38.6668317  81.3175026  -0.6540825
  34.4531330  88.2326352  15.0838983  34.3528056  89.1820708  15.0151074
  34.2352872  87.9044590  14.2115053  41.8077037  84.3539803  -1.1885117
  41.2275706  85.0124607  -1.5707064  41.5412970  83.5317148  -1.5997699
  40.2580604  83.7544861   1.0136204  40.7580382  83.8661395   0.2050523
  40.9016212  83.4505914   1.6537012  34.3162600  91.6623490  13.9004045
  33.8329681  92.4623850  14.1067934  34.4023539  91.6731435  12.9471489
  30.2435937  95.5528025   5.9372478  31.1979191  95.5211967   5.8702410
  30.0448461  95.0918649   6.7522704  30.8335319  94.1229141   8.5043276
  31.6528208  94.6173220   8.5278113  31.1072127  93.2061109   8.4760844
  40.5901915  86.5139893  -2.1328768  39.7027770  86.7989544  -2.3508574
  41.0055905  86.3533657  -2.9801491  43.9416452  86.5386414   1.5825571
  44.7176842  87.0282867   1.8550188  43.2164586  86.9644469   2.0397440
  46.3789010  87.2514034   2.6399512  46.9733501  87.0109770   1.9292820
  46.4515594  86.5321164   3.2673048  40.5642939  92.0294429  -1.9178478
  40.5078141  92.4862981  -2.7570846  41.1171282  91.2685114  -2.0955635
  44.3747745  87.8184161  -1.0928359  44.1184679  87.4180797  -0.2620151
  43.7500613  88.5327955  -1.2178220  48.6860083  90.5580234   1.4142933
  48.1259641  90.6273424   2.1874495  48.0803586  90.3821219   0.6942429
  41.2977718  93.2199211  -4.6225949  41.2426522  93.0543482  -5.5637505
  40.6723774  93.9275243  -4.4663759  26.0870233  88.4567275   9.2035473
  26.7329097  87.9466229   9.6922698  25.8787385  89.1935957   9.7778898
  38.6123626  95.5248122  14.7027614  39.4814785  95.6988775  14.3414249
  38.1330377  96.3442539  14.5803343  34.6073844  82.7207320  -5.0440631
  34.5952514  83.6649160  -4.8872360  35.4997266  82.5377465  -5.3381169
  32.7809806 102.6445223   6.3817047  33.6837053 102.6768834   6.6983542
  32.5547176 101.7145674   6.3963383  38.4225963  79.3150096  -0.7894694
  37.6558359  78.7608583  -0.6438011  38.8336668  79.3871965   0.0719458
  30.4267724  85.6034892  13.3010487  31.2899186  85.2471697  13.5113812
  29.8533135  85.2648787  13.9885892  50.2716101 107.2336748   4.1072888
  50.9094511 107.1143496   3.4036228  50.1536944 108.1817592   4.1660841
  47.0805808 107.1864176   4.0434413  46.7424319 107.0705241   3.1554948
  47.9495576 106.7855342   4.0235419  47.5625591 108.3399028  10.0020619
  47.5514231 107.9451826   9.1301122  47.7246230 107.6065101  10.5954390
  44.2832852 111.1236140   8.9499803  43.9922718 112.0281771   8.8346469
  44.9189836 111.1652668   9.6643872  45.2089059 108.5012989   5.5401162
  45.8052631 108.2769011   4.8258125  45.2664030 107.7597734   6.1426610
  49.8257370 104.9588202   1.1826096  50.6120459 104.5407625   0.8316513
  50.0896074 105.8634294   1.3507745  55.2265797 104.8963435   2.0859075
  55.9590969 104.3262652   2.3196904  54.4705153 104.5085036   2.5265581
  46.8441917 107.3190677  -0.7177583  46.4800124 106.7921298  -0.0064661
  47.7009033 106.9289146  -0.8911097  52.7491217  98.6085010   6.5453684
  52.4174542  99.4780421   6.3214899  52.1536831  98.2921294   7.2247714
  49.2422737 110.8097556   5.9449596  48.9423460 111.7122594   5.8365404
  48.8973796 110.5429739   6.7970749  42.6935218 107.2611352   1.9786301
  41.7685715 107.1287566   2.1863992  42.9419632 108.0405572   2.4756243
  52.6419881 103.3280096   3.6247034  51.7336758 103.2595504   3.3305795
  52.5907476 103.8052041   4.4528859  46.7160746 104.7469741  11.5681931
  45.9394081 105.3063661  11.5584796  47.3551310 105.2326524  12.0896801
  54.5081527 101.5296534   5.4024908  53.8655907 101.8229067   4.7564702
  54.0036456 101.4149454   6.2078104  44.9707119 107.5555195  11.1299898
  45.7121803 108.0940239  10.8534722  44.2644104 108.1821483  11.2871450
  50.4462458 109.6984335   9.7272059  50.8545814 109.2566746   8.9826692
  49.7239720 109.1236963   9.9806252  46.7993528 104.6356942   7.1005616
  47.6454724 105.0596355   7.2440265  46.7392166 103.9790566   7.7944179
  50.7691273 110.2585526   3.4824348  50.1400135 110.4231240   2.7800416
  50.3816935 110.6727135   4.2535312  49.9492974 102.2961310   8.7586790
  49.7053906 103.0503371   8.2221066  50.2252904 102.6746658   9.5934037
  51.9031437 108.8399923   7.4364056  52.1148332 109.4831683   6.7598437
  51.8561185 108.0062239   6.9685986  49.5057666 101.4517743   4.3400628
  48.6442145 101.7498997   4.6317365  49.5320100 101.6688142   3.4081660
  46.3219235 109.9959934   0.7474433  46.7857580 110.2747637  -0.0420944
  46.0576033 109.0943378   0.5647524  43.2143316 109.5431415   3.6854197
  43.7844673 109.9718684   3.0471681  43.8051428 109.2614000   4.3838382
  43.7068483 104.7094843  11.9315208  43.0767143 105.3911124  12.1650605
  43.6004570 104.5977924  10.9868346  53.0177265 111.7171878   5.6086413
  53.8394708 111.3152065   5.3269095  53.0139667 111.6140112   6.5602529
  46.7833868 111.2655921   7.7647123  46.8478300 111.7276329   8.6005295
  46.0744792 110.6353286   7.8929433  37.2851158 104.6297129   5.2896123
  37.5359196 105.5144139   5.5553699  37.8210706 104.4501731   4.5171215
  42.9849225  99.0115609  14.2940459  42.5916171  98.4581807  14.9688103
  43.8015366  99.3226187  14.6846976  45.9017186 100.4273488  11.8860715
  46.6426900 101.0280641  11.8065178  46.1335109  99.6851126  11.3278758
  41.0458524 105.6129855  10.1638945  40.9312039 104.7115112  10.4646044
  40.1903042 105.8593552   9.8123762  48.1250362 113.5547595  11.7626446
  47.6814216 112.7683974  11.4447350  48.7867576 113.7426746  11.0970337
  42.8837483 115.0843397   6.2887124  43.4344908 114.9560460   5.5164118
  42.0448959 115.3838286   5.9382017  50.2231600 113.8350395   9.7907847
  50.2050075 114.6559276   9.2988116  51.1451520 113.7104471  10.0157988
  46.6804654 111.3494525  10.6331355  47.2132991 110.5882813  10.4030663
  46.1518735 111.0568177  11.3755510  49.8474349  96.4554591   6.1624997
  49.5038619  97.3456232   6.0864108  50.2153312  96.2656248   5.2994582
  47.3971743 101.2912903  -0.2717329  46.5413339 100.9019753  -0.4511691
  47.8098695 101.3704863  -1.1317544  48.9270890  98.8259246   4.1274230
  48.4235685  98.7889381   3.3142036  49.2201496  99.7351989   4.1870887
  45.1713775  98.9097976   3.1340412  46.0366772  98.7140784   2.7746302
  45.2391284  98.6808327   4.0609769  53.0250213 108.6729538   3.2617214
  52.3673887 109.3628799   3.3497342  53.8290612 109.0625970   3.6051200
  42.7776095 101.1400184   0.5056779  43.3519846 100.9175365  -0.2270028
  43.3647077 101.2088878   1.2585380  51.8355672 107.0273910   1.3121156
  52.3487553 107.6603902   1.8142865  52.4856896 106.4275106   0.9464516
  45.0798762  98.0141432  -0.7668152  44.4263175  97.6990450  -1.3911537
  45.0379236  97.3917173  -0.0408329  48.3136503 104.5023366   3.5579496
  47.3959064 104.7238313   3.4001184  48.7296646 104.5769676   2.6991203
  51.5450388 102.9371898   0.6700966  50.8073144 102.4249284   1.0011208
  51.7977161 102.4972280  -0.1415758  51.6462015  95.7148150   1.2642735
  51.9520892  94.8545513   0.9768650  52.3714620  96.3065770   1.0641729
  45.9183095 106.0101943   1.7718926  45.9731704 105.0575779   1.6961403
  45.1074297 106.1661382   2.2560224  43.8575454 104.6279003  -0.4690695
  43.0443320 104.9273173  -0.0625503  44.3534449 104.2334691   0.2483787
  49.4549666 105.0920827   8.3624199  49.8099054 105.3192300   9.2218664
  50.1021797 105.4239204   7.7401454  43.3489529 102.1997358   5.1470540
  43.9888909 102.0586117   4.4493503  42.5167060 101.9131872   4.7709142
  48.9444678 113.8817884   5.6117900  48.9981700 114.4508821   6.3795616
  48.0759459 114.0519769   5.2471937  41.8243071 103.5835440   7.0942351
  42.4966124 103.3752803   6.4455000  40.9972858 103.3857526   6.6547583
  56.0732332 110.3239491   6.6117685  56.2668222 111.2285301   6.8576960
  55.9732950 109.8646910   7.4456270  47.7268643 100.2097381   9.1108012
  47.0796558 100.9087331   9.0172488  48.4969658 100.6433525   9.4784260
  51.1347441 110.4746233  12.1858565  50.9832947 110.2456785  11.2688649
  51.1252120 111.4316835  12.1989910  47.9032777 108.0478146   7.1704832
  48.8324837 108.1989306   6.9973799  47.4823807 108.1362167   6.3153478
  46.7021109 112.0728811   4.9403369  46.5632195 111.7047595   5.8129307
  45.9135705 112.5876450   4.7687327  48.2526324 111.4510413   2.3292207
  47.9176157 111.4111183   3.2249857  47.7530270 110.7855129   1.8562617
  42.2270568 106.8578043   7.8544788  42.0890366 106.1258282   8.4556327
  43.1375492 106.7686943   7.5728976  44.8552869 106.5698003   7.3428468
  45.5652487 105.9291195   7.3015086  44.8122177 106.8210898   8.2654649
  52.8439648 113.5065356  10.2635047  52.7852194 112.8224576   9.5965630
  53.2459166 114.2484346   9.8115673  43.5681803 103.5563221   9.1624107
  43.0319160 103.1053959   9.8145704  42.9798511 103.6909129   8.4194572
  52.8457055 111.4704940   8.4949027  51.9583834 111.1330862   8.6175426
  53.4155606 110.7387971   8.7317792  39.3020924 102.6919228   6.2477102
  39.2179113 102.0844898   5.5127512  38.4803631 103.1828247   6.2486598
  46.3758208 116.1306392   5.4610270  46.3028380 116.9361364   5.9729575
  45.9335601 116.3298358   4.6358291  49.4744638 101.1772792   1.6147297
  49.9713338 100.4242754   1.2948367  48.7031620 101.2137108   1.0490506
  57.3274395 106.8813157   3.2565588  57.3164272 107.7637873   2.8859522
  56.4591775 106.5284708   3.0620125  48.8356892 116.0293226   7.6168429
  49.5484864 116.6640691   7.5444330  48.3446920 116.1257092   6.8008430
  46.0579607 103.3190175   1.3418982  45.6877394 102.7661215   2.0299887
  46.5538699 102.7148308   0.7893982  43.8868805 113.7787670   8.4373999
  44.5878265 114.4124153   8.5903394  43.4163920 114.1202401   7.6769639
  51.9163633  98.1442385   3.7626656  51.0026713  98.3746612   3.9308863
  52.3456734  98.2280829   4.6140688  51.6870091 106.3332277   6.2626550
  51.0341542 106.5808185   5.6079003  52.0650471 105.5196415   5.9289027
  47.7357664 107.0752088  12.7492587  47.0598301 106.9746218  13.4194962
  48.5585298 106.9191302  13.2128584  46.4780447 118.3819016   6.9850203
  47.0298755 118.5450637   7.7499288  46.8186641 118.9723454   6.3130228
  41.4544940 100.7294166   7.5872088  41.5186267 101.5908996   7.1749485
  41.3912061 100.1168167   6.8544446  40.9297213 102.8017298  11.2345122
  41.5569252 102.4194375  11.8482646  40.0725132 102.5831500  11.6000814
  51.3291322 113.2080273  12.8398857  51.8731225 113.8210232  12.3453812
  50.7478166 113.7659852  13.3565870  41.2357003 102.6849724   3.1491025
  40.5143588 103.2985692   3.0098499  42.0250258 103.2207489   3.0707671
  51.6783743 114.1310011   5.5993435  50.7314078 114.0115363   5.5271762
  52.0266516 113.2432509   5.6819697  44.0383316 100.0204150   9.4231677
  44.5617718 100.2666447  10.1857986  43.8195649 100.8524185   9.0034814
  45.2435861 100.9617845   7.1081348  44.9032682 100.1625658   7.5102027
  44.5374868 101.2619556   6.5358181  45.8952333  98.0467158   5.5608671
  46.7178402  97.5727636   5.4387561  46.1390397  98.8257642   6.0607357
  48.6791690 101.7800565  -3.2070095  48.8955305 102.6625203  -3.5081267
  48.1985758 101.3886779  -3.9364453  43.4190912 104.7386278   3.3700649
  43.2735493 105.0526582   4.2624931  42.9416115 105.3571179   2.8171548
  45.2787295 101.7288826   3.4181539  45.2648863 100.8329920   3.0813837
  45.9959723 101.7359490   4.0519825  47.1313425 102.1626167   5.4634666
  46.8731203 103.0843237   5.4618997  46.5998466 101.7656601   6.1535130
  37.8936574 107.2791623   6.3088310  37.3490042 108.0551431   6.4408585
  38.7715924 107.6262427   6.1507432  44.6824191 100.6103207  -1.3130891
  44.8040102  99.6819853  -1.1140004  44.3926233 100.6241893  -2.2252576
  47.5515381  98.2958117   1.8235829  47.5737078  98.3597450   0.8687808
  47.9683440  97.4562626   2.0176335  38.6802596 106.4061519   9.2018467
  37.9384332 106.5544154   9.7883098  38.3595340 106.6669785   8.3385217
  46.6246259 115.9477497   8.9998857  46.9333385 115.7026644   9.8721557
  47.4221741 116.1524136   8.5117727  44.1665270 102.1235204  12.8959042
  44.2153426 102.9997327  12.5136811  44.7087784 101.5812597  12.3230685
  54.6520116 112.6676327  12.1760179  53.8615660 112.6500466  11.6364678
  54.4153470 113.2064621  12.9309215  54.7717991 109.5168794   9.4892907
  54.8215996 109.3518801  10.4308430  54.6631914 108.6496053   9.0990788
  52.0621753 105.4999722  10.8052214  52.9631616 105.3606187  10.5136212
  52.1369728 105.6654177  11.7450391  46.3964559 102.8766577   9.6505400
  45.5267868 103.1700143   9.3787989  46.6324039 103.4607022  10.3712664
  56.2736188 111.9365735   9.7334929  55.9820996 112.2995716  10.5698390
  55.6608319 111.2232744   9.5548261  54.5223376 107.0598350   8.2014987
  54.9977498 107.2525996   7.3933838  53.5988941 107.1157536   7.9558370
  49.1003592  99.0946193   7.1670821  49.6185536  99.8307220   6.8417309
  48.7458725  99.4010187   8.0017580  49.3516187  95.5146476   2.6871717
  49.6317940  94.8469665   3.3132144  50.1366794  95.7075572   2.1746381
  53.2225045 103.9364110   6.4343292  54.1742468 104.0362208   6.4555516
  53.0528495 103.1442379   6.9441377  51.2439424 101.0219693   6.6202693
  50.6489357 101.3024706   5.9249182  50.9589121 101.5113594   7.3919434
  55.7013123 107.1570230   5.5485592  55.6689443 106.2186230   5.7345276
  56.3113746 107.2354266   4.8151417  55.8507611 103.9481273   5.5943875
  55.3346660 103.1639730   5.4073804  56.7347560 103.6199990   5.7590395
  53.5118338  97.6922289   1.5539688  53.3143159  97.3837377   2.4383020
  54.1218044  98.4183928   1.6837618  61.5189673 108.2186237   4.6891629
  62.2493061 107.9571525   5.2499332  60.9096618 107.4814958   4.7293697
  59.6004970 106.3594099   5.2866080  58.8738133 106.2250064   4.6782571
  59.1852257 106.6670928   6.0922798  47.4235146 110.0784029  13.0513453
  48.3438156 110.2562628  13.2453499  47.3884729 109.1340074  12.8993152
  40.4197219 107.9885063   5.6936234  40.6383229 108.9202171   5.7124268
  40.8322993 107.6293038   6.4791038  47.3401437  98.4953149  -2.3188078
  46.5302165  98.1500234  -1.9432831  48.0285853  98.1860692  -1.7300466
  49.2691985  97.5731196  -0.6963781  49.8223023  97.9926649  -0.0373758
  49.5062071  96.6466944  -0.6540825  45.2925084 103.5618269  15.0838983
  45.1921811 104.5112626  15.0151074  45.0746626 103.2336508  14.2115053
  52.6470792  99.6831721  -1.1885117  52.0669461 100.3416525  -1.5707064
  52.3806725  98.8609065  -1.5997699  51.0974358  99.0836778   1.0136204
  51.5974137  99.1953313   0.2050523  51.7409966  98.7797831   1.6537012
  45.1556354 106.9915408  13.9004045  44.6723436 107.7915768  14.1067934
  45.2417293 107.0023353  12.9471489  41.0829692 110.8819943   5.9372478
  42.0372945 110.8503885   5.8702410  40.8842215 110.4210566   6.7522704
  41.6729074 109.4521059   8.5043276  42.4921963 109.9465137   8.5278113
  41.9465881 108.5353027   8.4760844  51.4295670 101.8431811  -2.1328768
  50.5421525 102.1281462  -2.3508574  51.8449659 101.6825574  -2.9801491
  54.7810206 101.8678332   1.5825571  55.5570596 102.3574785   1.8550188
  54.0558340 102.2936386   2.0397440  57.2182765 102.5805951   2.6399512
  57.8127255 102.3401687   1.9292820  57.2909348 101.8613082   3.2673048
  36.9263988 103.7859193   9.2035473  37.5722852 103.2758147   9.6922698
  36.7181139 104.5227874   9.7778898  49.4517380 110.8540040  14.7027614
  50.3208540 111.0280692  14.3414249  48.9724132 111.6734457  14.5803343
  45.4467598  98.0499237  -5.0440631  45.4346268  98.9941077  -4.8872360
  46.3391020  97.8669383  -5.3381169  43.6203560 117.9737141   6.3817047
  44.5230807 118.0060751   6.6983542  43.3940930 117.0437592   6.3963383
  49.2619718  94.6442014  -0.7894694  48.4952114  94.0900501  -0.6438011
  49.6730423  94.7163883   0.0719458  41.2661479 100.9326810  13.3010487
  42.1292941 100.5763615  13.5113812  40.6926890 100.5940705  13.9885892
  57.5554501 120.0761659  11.5681931  56.7787835 120.6355579  11.5584796
  58.1945064 120.5618442  12.0896801  54.5462237 120.0386761  11.9315208
  53.9160898 120.7203041  12.1650605  54.4398325 119.9269842  10.9868346
  53.8242980 114.3407526  14.2940459  53.4309925 113.7873725  14.9688103
  54.6409120 114.6518105  14.6846976  56.7410941 115.7565405  11.8860715
  57.4820654 116.3572559  11.8065178  56.9728864 115.0143043  11.3278758
  51.8852279 120.9421773  10.1638945  51.7705794 120.0407030  10.4646044
  51.0296796 121.1885469   9.8123762  58.5662398 115.5389299   9.1108012
  57.9190313 116.2379249   9.0172488  59.3363413 115.9725443   9.4784260
  54.4075557 118.8855138   9.1624107  53.8712914 118.4345877   9.8145704
  53.8192266 119.0201047   8.4194572  50.1414679 118.0211146   6.2477102
  50.0572867 117.4136816   5.5127512  49.3197385 118.5120164   6.2486598
  58.5751419 122.4044006  12.7492587  57.8992056 122.3038135  13.4194962
  59.3979053 122.2483220  13.2128584  52.2938695 116.0586083   7.5872088
  52.3580021 116.9200914   7.1749485  52.2305815 115.4460085   6.8544446
  51.7690967 118.1309216  11.2345122  52.3963006 117.7486293  11.8482646
  50.9118886 117.9123418  11.6000814  54.8777071 115.3496068   9.4231677
  55.4011473 115.5958365  10.1857986  54.6589404 116.1816103   9.0034814
  49.5196350 121.7353437   9.2018467  48.7778086 121.8836072   9.7883098
  49.1989095 121.9961702   8.3385217  55.0059025 117.4527122  12.8959042
  55.0547180 118.3289245  12.5136811  55.5481539 116.9104515  12.3230685
  57.2358313 118.2058494   9.6505400  56.3661623 118.4992060   9.3787989
  57.4717793 118.7898939  10.3712664  56.1318839 118.8910187  15.0838983
  56.0315565 119.8404544  15.0151074  55.9140381 118.5628426  14.2115053
  55.9950109 122.3207326  13.9004045  55.5117190 123.1207686  14.1067934
  56.0811048 122.3315271  12.9471489  47.7657742 119.1151110   9.2035473
  48.4116606 118.6050064   9.6922698  47.5574894 119.8519792   9.7778898
  52.1055233 116.2618727  13.3010487  52.9686695 115.9055532  13.5113812
  51.5320644 115.9232622  13.9885892  37.2856609  75.2317800  -1.5128248
  36.8420463  74.4454179  -1.8307343  37.9473822  75.4196951  -2.1784357
  39.3837847  75.5120600  -3.4846846  39.3656322  76.3329481  -3.9766577
  40.3057767  75.3874675  -3.2596705  35.8410901  73.0264730  -2.6423338
  36.3739238  72.2653018  -2.8724030  35.3124982  72.7338381  -1.8999183
  45.2338579  72.0009696  -6.6637009  45.4274469  72.9055506  -6.4177734
  45.1339197  71.5417115  -5.8298424  40.2953688  72.1516438  -1.0896128
  40.1439194  71.9226990  -2.0066044  40.2858367  73.1087040  -1.0764783
  42.0045894  75.1835561  -3.0119646  41.9458441  74.4994781  -3.6789063
  42.4065413  75.9254551  -3.4639020  42.0063302  73.1475145  -4.7805667
  41.1190080  72.8101067  -4.6579268  42.5761853  72.4158176  -4.5436901
  37.9963139  77.7063431  -5.6586265  38.7091111  78.3410896  -5.7310363
  37.5053167  77.8027297  -6.4746263  36.8963911  68.7522293  -0.5262106
  36.2204548  68.6516423   0.1440269  37.7191545  68.5961507  -0.0626109
  35.6386694  80.0589221  -6.2904490  36.1905002  80.2220842  -5.5255405
  35.9792887  80.6493659  -6.9624466  40.4897568  74.8850478  -0.4355836
  41.0337472  75.4980436  -0.9300881  39.9084413  75.4430057   0.0811177
  35.7852505  77.6247702  -4.2755836  36.0939632  77.3796849  -3.4033137
  36.5827987  77.8294341  -4.7636966  43.8126363  74.3446532  -1.0994515
  43.0221906  74.3270671  -1.6390015  43.5759717  74.8834826  -0.3445478
  43.9324238  71.1938999  -3.7861786  43.9822243  71.0289006  -2.8446263
  43.8238161  70.3266258  -4.1763905  41.2228000  67.1769927  -2.4702480
  42.1237863  67.0376392  -2.7618482  41.2975975  67.3424382  -1.5304302
  45.4342435  73.6135940  -3.5419765  45.1427243  73.9765921  -2.7056304
  44.8214566  72.9002948  -3.7206433  36.5841393  71.7554234  -0.2241240
  37.5044402  71.9332833  -0.0301194  36.5490976  70.8110279  -0.3761541
  34.3162601  68.6685613   0.6249351  33.8329683  69.4685973   0.8313240
  34.4023540  68.6793558  -0.3283205  38.6123627  72.5310245   1.4272920
  39.4814787  72.7050897   1.0659555  38.1330378  73.3504662   1.3048650
  50.2716103  84.2398871  -9.1681805  50.9094513  84.1205618  -9.8718465
  50.1536946  85.1879715  -9.1093853  47.0805809  84.1926299  -9.2320280
  46.7424320  84.0767364 -10.1199745  47.9495577  83.7917464  -9.2519274
  47.5625592  85.3461151  -3.2734075  47.5514233  84.9513949  -4.1453571
  47.7246231  84.6127223  -2.6800303  44.2832853  88.1298263  -4.3254891
  43.9922719  89.0343893  -4.4408224  44.9189837  88.1714790  -3.6110821
  45.2089060  85.5075111  -7.7353531  45.8052632  85.2831134  -8.4496568
  45.2664031  84.7659857  -7.1328083  49.8257371  81.9650325 -12.0928597
  50.6120460  81.5469748 -12.4438180  50.0896075  82.8696417 -11.9246949
  55.2265798  81.9025558 -11.1895618  55.9590970  81.3324775 -10.9557789
  54.4705154  81.5147158 -10.7489113  46.8441918  84.3252800 -13.9932276
  46.4800125  83.7983421 -13.2819354  47.7009034  83.9351269 -14.1665791
  52.7491219  75.6147132  -6.7301010  52.4174543  76.4842543  -6.9539795
  52.1536832  75.2983416  -6.0506979  49.2422738  87.8159678  -7.3305097
  48.9423461  88.7184717  -7.4389290  48.8973798  87.5491861  -6.4783944
  42.6935220  84.2673475 -11.2968393  41.7685716  84.1349689 -11.0890701
  42.9419633  85.0467694 -10.7998450  52.6419882  80.3342218  -9.6507660
  51.7336759  80.2657627  -9.9448899  52.5907478  80.8114163  -8.8225834
  46.7160748  81.7531864  -1.7072762  45.9394082  82.3125784  -1.7169898
  47.3551311  82.2388647  -1.1857892  54.5081528  78.5358657  -7.8729786
  53.8655909  78.8291190  -8.5189991  54.0036457  78.4211577  -7.0676589
  44.9707120  84.5617317  -2.1454795  45.7121804  85.1002361  -2.4219972
  44.2644105  85.1883606  -1.9883244  50.4462460  86.7046458  -3.5482634
  50.8545816  86.2628868  -4.2928002  49.7239721  86.1299085  -3.2948441
  46.7993530  81.6419065  -6.1749077  47.6454725  82.0658478  -6.0314428
  46.7392167  80.9852689  -5.4810514  50.7691274  87.2647648  -9.7930345
  50.1400137  87.4293362 -10.4954277  50.3816936  87.6789258  -9.0219381
  49.9492975  79.3023433  -4.5167903  49.7053907  80.0565493  -5.0533628
  50.2252906  79.6808780  -3.6820656  51.9031438  85.8462045  -5.8390638
  52.1148333  86.4893805  -6.5156257  51.8561186  85.0124362  -6.3068708
  49.5057667  78.4579866  -8.9354066  48.6442146  78.7561119  -8.6437328
  49.5320101  78.6750265  -9.8673033  46.3219236  87.0022056 -12.5280260
  46.7857582  87.2809759 -13.3175638  46.0576034  86.1005501 -12.7107169
  43.2143317  86.5493538  -9.5900497  43.7844674  86.9780806 -10.2283012
  43.8051429  86.2676123  -8.8916311  43.7068484  81.7156965  -1.3439485
  43.0767144  82.3973246  -1.1104089  43.6004572  81.6040047  -2.2886347
  53.0177266  88.7234001  -7.6668280  53.8394709  88.3214188  -7.9485599
  53.0139669  88.6202235  -6.7152165  46.7833869  88.2718044  -5.5107570
  46.8478302  88.7338451  -4.6749398  46.0744793  87.6415409  -5.3825260
  37.2851159  81.6359252  -7.9858571  37.5359198  82.5206262  -7.7200995
  37.8210708  81.4563853  -8.7583479  42.9849226  76.0177731   1.0185766
  42.5916172  75.4643930   1.6933410  43.8015367  76.3288310   1.4092283
  45.9017187  77.4335610  -1.3893978  46.6426901  78.0342764  -1.4689515
  46.1335110  76.6913248  -1.9475935  41.0458525  82.6191978  -3.1115748
  40.9312041  81.7177235  -2.8108649  40.1903043  82.8655674  -3.4630932
  48.1250363  90.5609718  -1.5128248  47.6814217  89.7746097  -1.8307343
  48.7867577  90.7488868  -2.1784357  42.8837484  92.0905520  -6.9867569
  43.4344910  91.9622583  -7.7590575  42.0448960  92.3900409  -7.3372676
  50.2231601  90.8412518  -3.4846846  50.2050077  91.6621399  -3.9766577
  51.1451521  90.7166593  -3.2596705  46.6804655  88.3556647  -2.6423338
  47.2132992  87.5944936  -2.8724030  46.1518737  88.0630299  -1.8999183
  49.8474350  73.4616713  -7.1129696  49.5038620  74.3518355  -7.1890586
  50.2153313  73.2718371  -7.9760111  48.9270891  75.8321368  -9.1480463
  48.4235686  75.7951504  -9.9612658  49.2201498  76.7414111  -9.0883806
  53.0250214  85.6791660 -10.0137480  52.3673889  86.3690922  -9.9257351
  53.8290613  86.0688092  -9.6703493  51.8355673  84.0336033 -11.9633538
  52.3487555  84.6666025 -11.4611828  52.4856897  83.4337229 -12.3290178
  48.3136504  81.5085489  -9.7175197  47.3959065  81.7300436  -9.8753509
  48.7296647  81.5831799 -10.5763490  51.5450389  79.9434021 -12.6053728
  50.8073146  79.4311407 -12.2743485  51.7977162  79.5034402 -13.4170451
  45.9183096  83.0164066 -11.5035767  45.9731706  82.0637902 -11.5793291
  45.1074298  83.1723505 -11.0194469  49.4549667  82.0982950  -4.9130495
  49.8099055  82.3254423  -4.0536029  50.1021799  82.4301327  -5.5353239
  43.3489531  79.2059481  -8.1284154  43.9888910  79.0648240  -8.8261190
  42.5167061  78.9193994  -8.5045552  48.9444679  90.8880007  -7.6636794
  48.9981701  91.4570943  -6.8959078  48.0759460  91.0581892  -8.0282756
  41.8243072  80.5897563  -6.1812342  42.4966126  80.3814925  -6.8299693
  40.9972859  80.3919649  -6.6207110  56.0732334  87.3301613  -6.6637009
  56.2668224  88.2347424  -6.4177734  55.9732952  86.8709032  -5.8298424
  47.7268644  77.2159504  -4.1646681  47.0796559  77.9149454  -4.2582205
  48.4969660  77.6495648  -3.7970433  51.1347442  87.4808356  -1.0896128
  50.9832949  87.2518908  -2.0066044  51.1252122  88.4378958  -1.0764783
  47.9032779  85.0540269  -6.1049862  48.8324839  85.2051428  -6.2780894
  47.4823809  85.1424290  -6.9601215  46.7021110  89.0790933  -8.3351324
  46.5632196  88.7109718  -7.4625386  45.9135707  89.5938573  -8.5067366
  48.2526326  88.4572536 -10.9462486  47.9176158  88.4173306 -10.0504836
  47.7530271  87.7917252 -11.4192076  42.2270570  83.8640166  -5.4209905
  42.0890367  83.1320405  -4.8198366  43.1375493  83.7749066  -5.7025717
  44.8552870  83.5760125  -5.9326225  45.5652489  82.9353317  -5.9739607
  44.8122178  83.8273020  -5.0100045  52.8439649  90.5127479  -3.0119646
  52.7852195  89.8286699  -3.6789063  53.2459167  91.2546469  -3.4639020
  43.5681804  80.5625343  -4.1130586  43.0319161  80.1116082  -3.4608990
  42.9798513  80.6971252  -4.8560122  52.8457056  88.4767063  -4.7805667
  51.9583835  88.1392984  -4.6579268  53.4155607  87.7450094  -4.5436901
  39.3020925  79.6981351  -7.0277591  39.2179114  79.0907020  -7.7627182
  38.4803632  80.1890369  -7.0268095  46.3758210  93.1368515  -7.8144423
  46.3028381  93.9423486  -7.3025119  45.9335603  93.3360481  -8.6396402
  57.3274397  83.8875280 -10.0189105  57.3164273  84.7699995 -10.3895172
  56.4591776  83.5346831 -10.2134568  48.8356893  93.0355349  -5.6586265
  49.5484865  93.6702814  -5.7310363  48.3446922  93.1319215  -6.4746263
  43.8868807  90.7849792  -4.8380694  44.5878266  91.4186275  -4.6851300
  43.4163922  91.1264524  -5.5985055  51.9163634  75.1504508  -9.5128038
  51.0026714  75.3808735  -9.3445831  52.3456736  75.2342952  -8.6614005
  51.6870093  83.3394400  -7.0128144  51.0341543  83.5870307  -7.6675691
  52.0650472  82.5258538  -7.3465666  47.7357666  84.0814211  -0.5262106
  47.0598303  83.9808340   0.1440269  48.5585299  83.9253425  -0.0626109
  46.4780448  95.3881138  -6.2904490  47.0298756  95.5512760  -5.5255405
  46.8186642  95.9785576  -6.9624466  41.4544942  77.7356288  -5.6882606
  41.5186268  78.5971119  -6.1005208  41.3912062  77.1230290  -6.4210247
  40.9297214  79.8079421  -2.0409572  41.5569253  79.4256498  -1.4272047
  40.0725133  79.5893623  -1.6753879  51.3291323  90.2142396  -0.4355836
  51.8731227  90.8272354  -0.9300881  50.7478168  90.7721974   0.0811177
  51.6783744  91.1372134  -7.6761258  50.7314080  91.0177485  -7.7482931
  52.0266517  90.2494632  -7.5934997  44.0383317  77.0266273  -3.8523016
  44.5617719  77.2728569  -3.0896707  43.8195651  77.8586308  -4.2719879
  45.2435863  77.9679968  -6.1673346  44.9032683  77.1687781  -5.7652666
  44.5374869  78.2681679  -6.7396513  45.8952334  75.0529280  -7.7146023
  46.7178404  74.5789759  -7.8367132  46.1390398  75.8319764  -7.2147336
  43.4190913  81.7448401  -9.9054044  43.2735494  82.0588704  -9.0129763
  42.9416117  82.3633301 -10.4583146  45.2787296  78.7350949  -9.8573155
  45.2648865  77.8392042 -10.1940857  45.9959724  78.7421613  -9.2234869
  47.1313427  79.1688289  -7.8120027  46.8731205  80.0905360  -7.8135697
  46.5998467  78.7718724  -7.1219563  37.8936575  84.2853745  -6.9666383
  37.3490043  85.0613553  -6.8346109  38.7715925  84.6324550  -7.1247262
  38.6802597  83.4123642  -4.0736226  37.9384333  83.5606277  -3.4871596
  38.3595341  83.6731907  -4.9369477  46.6246260  92.9539620  -4.2755836
  46.9333386  92.7088767  -3.4033137  47.4221742  93.1586258  -4.7636966
  44.1665271  79.1297327  -0.3795652  44.2153427  80.0059450  -0.7617882
  44.7087786  78.5874720  -0.9524009  54.6520117  89.6738450  -1.0994515
  53.8615661  89.6562589  -1.6390015  54.4153472  90.2126744  -0.3445478
  54.7717992  86.5230916  -3.7861786  54.8215997  86.3580924  -2.8446263
  54.6631916  85.6558175  -4.1763905  52.0621755  82.5061844  -2.4702480
  52.9631617  82.3668309  -2.7618482  52.1369729  82.6716299  -1.5304302
  46.3964560  79.8828699  -3.6249293  45.5267869  80.1762265  -3.8966705
  46.6324040  80.4669144  -2.9042030  56.2736189  88.9427858  -3.5419765
  55.9820997  89.3057838  -2.7056304  55.6608320  88.2294866  -3.7206433
  54.5223377  84.0660472  -5.0739707  54.9977499  84.2588119  -5.8820855
  53.5988943  84.1219658  -5.3196323  49.1003594  76.1008316  -6.1083873
  49.6185538  76.8369343  -6.4337384  48.7458727  76.4072309  -5.2737114
  53.2225046  80.9426233  -6.8411401  54.1742469  81.0424330  -6.8199177
  53.0528497  80.1504501  -6.3313317  51.2439426  78.0281816  -6.6552000
  50.6489358  78.3086828  -7.3505512  50.9589122  78.5175717  -5.8835259
  55.7013124  84.1632352  -7.7269101  55.6689444  83.2248353  -7.5409418
  56.3113748  84.2416389  -8.4603277  55.8507613  80.9543396  -7.6810818
  55.3346661  80.1701852  -7.8680889  56.7347561  80.6262112  -7.5164299
  53.5118339  74.6984411 -11.7215006  53.3143161  74.3899499 -10.8371674
  54.1218045  75.4246050 -11.5917076  61.5189674  85.2248359  -8.5863065
  62.2493062  84.9633647  -8.0255361  60.9096619  84.4877081  -8.5460997
  59.6004971  83.3656222  -7.9888613  58.8738135  83.2312187  -8.5972122
  59.1852258  83.6733050  -7.1831895  47.4235147  87.0846151  -0.2241240
  48.3438157  87.2624750  -0.0301194  47.3884730  86.1402197  -0.3761541
  40.4197220  84.9947186  -7.5818459  40.6383230  85.9264294  -7.5630425
  40.8322994  84.6355160  -6.7963655  45.2925085  80.5680392   1.8084290
  45.1921812  81.5174749   1.7396381  45.0746627  80.2398631   0.9360360
  45.1556355  83.9977531   0.6249351  44.6723437  84.7977891   0.8313240
  45.2417294  84.0085475  -0.3283205  41.0829693  87.8882065  -7.3382215
  42.0372946  87.8566008  -7.4052283  40.8842216  87.4272689  -6.5231989
  41.6729075  86.4583181  -4.7711417  42.4921964  86.9527260  -4.7476580
  41.9465883  85.5415150  -4.7993850  54.7810207  78.8740455 -11.6929122
  55.5570597  79.3636907 -11.4204506  54.0558341  79.2998509 -11.2357253
  57.2182766  79.5868074 -10.6355182  57.8127257  79.3463810 -11.3461874
  57.2909350  78.8675204 -10.0081646  36.9263989  80.7921315  -4.0719220
  37.5722853  80.2820269  -3.5831995  36.7181140  81.5289997  -3.4975795
  49.4517381  87.8602163   1.4272920  50.3208541  88.0342815   1.0659555
  48.9724133  88.6796580   1.3048650  43.6203562  94.9799264  -6.8937646
  44.5230808  95.0122874  -6.5771151  43.3940932  94.0499715  -6.8791310
  41.2661480  77.9388932   0.0255794  42.1292942  77.5825737   0.2359119
  40.6926891  77.6002827   0.7131198  57.5554502  97.0823782  -1.7072762
  56.7787836  97.6417702  -1.7169898  58.1945065  97.5680565  -1.1857892
  54.5462238  97.0448883  -1.3439485  53.9160899  97.7265164  -1.1104089
  54.4398326  96.9331965  -2.2886347  53.8242981  91.3469649   1.0185766
  53.4309927  90.7935848   1.6933410  54.6409121  91.6580227   1.4092283
  56.7410942  92.7627528  -1.3893978  57.4820655  93.3634681  -1.4689515
  56.9728865  92.0205166  -1.9475935  51.8852280  97.9483895  -3.1115748
  51.7705795  97.0469153  -2.8108649  51.0296798  98.1947592  -3.4630932
  58.5662399  92.5451422  -4.1646681  57.9190314  93.2441371  -4.2582205
  59.3363414  92.9787566  -3.7970433  54.4075559  95.8917261  -4.1130586
  53.8712916  95.4407999  -3.4608990  53.8192267  96.0263170  -4.8560122
  50.1414680  95.0273269  -7.0277591  50.0572869  94.4198938  -7.7627182
  49.3197386  95.5182287  -7.0268095  58.5751420  99.4106129  -0.5262106
  57.8992057  99.3100258   0.1440269  59.3979054  99.2545342  -0.0626109
  52.2938696  93.0648206  -5.6882606  52.3580023  93.9263037  -6.1005208
  52.2305816  92.4522208  -6.4210247  51.7690969  95.1371338  -2.0409572
  52.3963008  94.7548416  -1.4272047  50.9118888  94.9185540  -1.6753879
  54.8777072  92.3558191  -3.8523016  55.4011474  92.6020487  -3.0896707
  54.6589405  93.1878225  -4.2719879  49.5196352  98.7415559  -4.0736226
  48.7778088  98.8898195  -3.4871596  49.1989096  99.0023825  -4.9369477
  55.0059026  94.4589244  -0.3795652  55.0547181  95.3351367  -0.7617882
  55.5481540  93.9166637  -0.9524009  57.2358314  95.2120617  -3.6249293
  56.3661624  95.5054183  -3.8966705  57.4717795  95.7961062  -2.9042030
  56.1318840  95.8972309   1.8084290  56.0315567  96.8466666   1.7396381
  55.9140382  95.5690548   0.9360360  55.9950110  99.3269448   0.6249351
  55.5117192 100.1269808   0.8313240  56.0811049  99.3377393  -0.3283205
  47.7657744  96.1213233  -4.0719220  48.4116607  95.6112187  -3.5831995
  47.5574895  96.8581915  -3.4975795  52.1055235  93.2680850   0.0255794
  52.9686696  92.9117655   0.2359119  51.5320645  92.9294745   0.7131198
  58.5751421  76.4168251 -13.8016800  57.8992058  76.3162381 -13.1314425
  59.3979055  76.2607465 -13.3380803  55.9950111  76.3331571 -12.6505342
  55.5117193  77.1331931 -12.4441453  56.0811050  76.3439516 -13.6037898
 138.0644717 138.0644717 138.0644717 109.4712190 109.4712190 109.4712190
